Title
82275
    1SAPS     N    1   3.112   0.699  11.044  0.1759 -0.2336  0.7000
    1SAPS   HN1    2   3.079   0.657  11.133 -0.8315 -2.3088 -0.6112
    1SAPS   HN2    3   3.051   0.682  10.961 -0.5339  1.1926  0.9187
    1SAPS   HN3    4   3.198   0.648  11.018  0.0439 -0.4354  0.6534
    1SAPS   C12    5   3.133   0.841  11.061 -0.3232  0.2952  0.2068
    1SAPS  H12A    6   3.108   0.891  10.969  1.5017  0.6150 -0.1259
    1SAPS   C13    7   3.056   0.893  11.190 -0.1496 -0.3473  0.4327
    1SAPS  O13A    8   2.968   0.827  11.243  0.8039  0.7733 -0.4319
    1SAPS  O13B    9   3.057   1.023  11.202 -0.2618 -0.9833  0.3767
    1SAPS   C11   10   3.289   0.861  11.089 -0.1684  0.9536  0.0050
    1SAPS  H11A   11   3.324   0.801  11.175  1.3086 -0.3381 -1.4846
    1SAPS  H11B   12   3.291   0.969  11.117  1.2269  1.5049 -2.0611
    1SAPS     P   13   3.514   0.819  10.955  0.4075  0.8180 -0.2167
    1SAPS   O13   14   3.582   0.939  11.009  0.6636 -0.1446  0.1262
    1SAPS   O14   15   3.544   0.693  11.020 -0.3492  0.2788 -0.7378
    1SAPS   O12   16   3.363   0.852  10.969 -0.6491  0.3875 -0.0875
    1SAPS   O11   17   3.550   0.797  10.799 -0.5670  0.4979  0.4975
    1SAPS    C1   18   3.521   0.907  10.707  0.2663 -0.0232  0.3864
    1SAPS    HA   19   3.411   0.923  10.702  0.2425 -0.2367  0.2017
    1SAPS    HB   20   3.567   0.999  10.749  1.4721 -1.6646  2.7979
    1SAPS    C2   21   3.587   0.878  10.575 -0.1236 -0.9974 -0.3567
    1SAPS    HS   22   3.601   0.970  10.515 -2.5595 -1.0586 -1.0649
    1SAPS   O21   23   3.514   0.781  10.507  0.2958  0.2796 -0.7654
    1SAPS   C21   24   3.395   0.820  10.454 -0.4273  0.2016  0.5619
    1SAPS   O22   25   3.357   0.935  10.469  0.6561 -0.1834  0.1511
    1SAPS   C22   26   3.333   0.713  10.367  0.3114 -0.4371 -0.8171
    1SAPS   H2R   27   3.378   0.613  10.386 -0.5512 -0.6938 -0.0881
    1SAPS   H2S   28   3.225   0.714  10.393  0.7967  0.1269  1.3053
    1SAPS    C3   29   3.733   0.824  10.590  0.1015  0.1809 -0.6303
    1SAPS    HX   30   3.732   0.726  10.644  1.2443  0.6158  0.1938
    1SAPS    HY   31   3.799   0.892  10.648  1.8718 -1.6586 -0.4299
    1SAPS   O31   32   3.787   0.806  10.458 -0.3564 -0.7144  0.1397
    1SAPS   C31   33   3.878   0.710  10.445 -0.4098 -0.1157  0.3564
    1SAPS   O32   34   3.922   0.640  10.534  0.1188  0.1148  0.4966
    1SAPS   C32   35   3.905   0.696  10.296 -0.3133  0.1323  0.5755
    1SAPS   H2X   36   3.925   0.796  10.252 -2.9512 -0.1907 -1.5351
    1SAPS   H2Y   37   3.829   0.642  10.235 -0.5346  1.8060 -0.6611
    1SAPS   C23   38   3.341   0.728  10.210 -0.0350 -0.5746 -1.6238
    1SAPS   H3R   39   3.359   0.832  10.176 -4.1658  1.3640  1.6916
    1SAPS   H3S   40   3.245   0.698  10.165  0.1929 -0.6692 -2.0490
    1SAPS   C24   41   3.449   0.630  10.152  0.6339 -0.2852  0.0447
    1SAPS   H4R   42   3.409   0.535  10.194  0.4396  1.2517  3.5010
    1SAPS   H4S   43   3.552   0.658  10.183  0.5274  0.5721 -0.3529
    1SAPS   C25   44   3.426   0.619  10.005 -0.5430  0.0245 -0.6038
    1SAPS   H5R   45   3.345   0.555   9.967 -0.5845 -0.6513  0.6084
    1SAPS   C26   46   3.496   0.684   9.908 -0.9397 -0.2758  0.4416
    1SAPS   H6R   47   3.455   0.689   9.806  1.2362 -2.8116 -0.6219
    1SAPS   C27   48   3.610   0.779   9.922 -0.0213  0.2087  0.0977
    1SAPS   H7R   49   3.590   0.838  10.014 -1.1363 -0.5232  0.3387
    1SAPS   H7S   50   3.601   0.847   9.834 -0.2243  0.9880  0.7056
    1SAPS   C28   51   3.749   0.730   9.927  0.0978  0.0616 -0.5084
    1SAPS   H8R   52   3.753   0.627   9.967 -2.8619  0.5501  1.1708
    1SAPS   C29   53   3.858   0.796   9.889 -0.4006  0.7610  0.0685
    1SAPS   H9R   54   3.951   0.737   9.900 -2.2688 -2.0800  1.0695
    1SAPS  C210   55   3.869   0.936   9.836 -0.5062 -0.1557  0.5019
    1SAPS  H10R   56   3.777   0.993   9.862 -1.4734 -0.6547 -1.7007
    1SAPS  H10S   57   3.889   0.938   9.727 -0.9185  0.6137  0.4389
    1SAPS  C211   58   3.982   1.005   9.900  0.5134 -0.0512  0.4156
    1SAPS  H11R   59   3.985   0.983  10.008 -2.0058 -1.0788  0.3107
    1SAPS  C212   60   4.064   1.099   9.843  0.0748 -0.4866 -0.7746
    1SAPS  H12R   61   4.148   1.131   9.907 -1.2022 -0.6371  1.0080
    1SAPS  C213   62   4.064   1.158   9.698 -0.0694  0.4226 -0.2085
    1SAPS  H13R   63   3.983   1.232   9.681 -1.1430 -0.9626 -1.2794
    1SAPS  H13S   64   4.045   1.079   9.622  0.2760  0.0001  0.1332
    1SAPS  C214   65   4.191   1.228   9.659 -0.6381 -0.0387  0.0871
    1SAPS  H14R   66   4.281   1.204   9.717 -0.3259 -1.0095 -0.7860
    1SAPS  C215   67   4.206   1.317   9.555  0.3707  1.5107 -0.1078
    1SAPS  H15R   68   4.308   1.343   9.524  0.1525 -1.0669 -3.2861
    1SAPS  C216   69   4.101   1.369   9.462  0.0610 -0.1590  0.5766
    1SAPS  H16R   70   4.095   1.479   9.477 -1.4551 -0.1704  0.0827
    1SAPS  H16S   71   4.001   1.325   9.479  0.4077 -1.0077  0.4460
    1SAPS  C217   72   4.145   1.332   9.315  0.2234  0.0423 -0.3278
    1SAPS  H17R   73   4.150   1.222   9.305 -0.2518 -0.1105  1.0084
    1SAPS  H17S   74   4.249   1.370   9.314  1.7070 -3.7563  1.1705
    1SAPS  C218   75   4.061   1.397   9.203  0.3887  0.4455 -0.4744
    1SAPS  H18R   76   4.100   1.367   9.104  0.5788 -2.0687  0.3421
    1SAPS  H18S   77   4.053   1.507   9.214  0.4813  0.4851 -0.7926
    1SAPS  C219   78   3.921   1.344   9.195 -0.5126  0.0133 -0.4036
    1SAPS  H19R   79   3.874   1.358   9.294 -2.2957 -0.1741 -1.2127
    1SAPS  H19S   80   3.925   1.234   9.180  0.1788 -0.0440  0.1308
    1SAPS  C220   81   3.834   1.404   9.084 -0.4445  0.3583 -0.2204
    1SAPS  H20R   82   3.898   1.378   8.997 -0.6086 -1.1943  0.1218
    1SAPS  H20S   83   3.824   1.515   9.090  2.3066  0.5872  1.3018
    1SAPS  H20T   84   3.731   1.363   9.091  0.6498 -2.2736  1.5754
    1SAPS   C33   85   4.040   0.638  10.272  1.0087 -0.0763 -0.6362
    1SAPS   H3X   86   4.051   0.538  10.319 -1.1326 -1.3546 -2.7251
    1SAPS   H3Y   87   4.119   0.709  10.305 -0.0635  0.1889  1.3670
    1SAPS   C34   88   4.058   0.612  10.121  0.5960 -0.2323 -0.4521
    1SAPS   H4X   89   4.061   0.710  10.070 -0.9786 -0.4437 -0.9731
    1SAPS   H4Y   90   3.972   0.551  10.085  1.6408 -3.2811  1.9406
    1SAPS   C35   91   4.191   0.533  10.091 -0.4717  0.1875 -0.4556
    1SAPS   H5X   92   4.186   0.431  10.134 -1.2414  0.0357 -0.8910
    1SAPS   H5Y   93   4.281   0.572  10.143 -1.3495  3.3839 -1.2217
    1SAPS   C36   94   4.218   0.530   9.933  0.2191  0.3040  0.0594
    1SAPS   H6X   95   4.129   0.483   9.885  1.0451 -3.0736  1.6912
    1SAPS   H6Y   96   4.298   0.456   9.914  0.2650  0.3014  0.2722
    1SAPS   C37   97   4.266   0.654   9.858 -0.7252  0.2586  0.2029
    1SAPS   H7X   98   4.371   0.672   9.889 -1.2001  0.7928  1.5084
    1SAPS   H7Y   99   4.204   0.739   9.891  0.1781  2.0648 -2.5650
    1SAPS   C38  100   4.238   0.639   9.701 -0.1431  0.6511  0.7412
    1SAPS   H8X  101   4.150   0.573   9.689  0.4684 -0.0351 -0.0454
    1SAPS   H8Y  102   4.326   0.583   9.660 -0.8007 -0.6188  1.0369
    1SAPS   C39  103   4.223   0.783   9.641 -0.7044  0.0091 -0.8537
    1SAPS   H9X  104   4.314   0.840   9.671 -0.3173 -0.4185 -1.2025
    1SAPS   H9Y  105   4.139   0.840   9.684  0.4943 -0.1345  1.8040
    1SAPS  C310  106   4.216   0.800   9.492 -0.9875  0.1452 -0.3847
    1SAPS  H10X  107   4.307   0.752   9.451  0.6156  0.6553  2.4760
    1SAPS  H10Y  108   4.221   0.908   9.469 -1.5214  0.5974  1.5439
    1SAPS  C311  109   4.092   0.741   9.434  1.6409  0.6858  0.2356
    1SAPS  H11X  110   3.996   0.793   9.451  0.4166 -0.6680 -2.3676
    1SAPS  H11Y  111   4.065   0.639   9.471  1.0414  1.5950  2.3942
    1SAPS  C312  112   4.106   0.740   9.277 -0.0287  0.2364  0.1576
    1SAPS  H12X  113   4.119   0.848   9.258  0.4449  0.1069 -0.2850
    1SAPS  H12Y  114   4.011   0.713   9.226 -0.1135  3.0626 -1.2517
    1SAPS  C313  115   4.206   0.647   9.214 -0.5451 -0.5879 -0.3429
    1SAPS  H13X  116   4.306   0.673   9.256  0.0955 -0.1027 -2.1119
    1SAPS  H13Y  117   4.207   0.667   9.105  0.6594 -1.7352 -0.5553
    1SAPS  C314  118   4.179   0.497   9.237 -0.5555 -0.8905  0.0885
    1SAPS  H14X  119   4.087   0.477   9.179 -0.1056 -3.3519  0.1659
    1SAPS  H14Y  120   4.150   0.472   9.341 -0.8465  3.2564  1.0748
    1SAPS  C315  121   4.283   0.400   9.183 -0.1274  0.5444  0.3777
    1SAPS  H15X  122   4.245   0.297   9.196 -0.3890  0.5027 -0.6809
    1SAPS  H15Y  123   4.380   0.416   9.236 -0.1124 -0.8060  0.7857
    1SAPS  C316  124   4.319   0.394   9.028  0.1585  0.0632  0.1376
    1SAPS  H16X  125   4.356   0.490   8.985  0.2957  0.2262  0.6096
    1SAPS  H16Y  126   4.218   0.371   8.987  0.1755  2.4709 -1.3361
    1SAPS  C317  127   4.422   0.283   8.998  0.8052 -0.4578 -0.3454
    1SAPS  H17X  128   4.383   0.192   9.047 -0.8175  0.4196  0.0089
    1SAPS  H17Y  129   4.510   0.314   9.057  1.9176 -2.0660 -1.1153
    1SAPS  C318  130   4.434   0.257   8.845 -0.1777 -0.1620 -0.4130
    1SAPS  H18X  131   4.450   0.149   8.820  0.9262  0.2743 -1.6631
    1SAPS  H18Y  132   4.510   0.313   8.787 -0.5794  1.0306  0.1979
    1SAPS  H18Z  133   4.334   0.280   8.801  0.4469  0.7618 -1.3669
    2SAPS     N  134   1.987   1.505  10.803 -0.1172 -0.5138  0.2480
    2SAPS   HN1  135   2.023   1.483  10.708 -0.1956  0.2755  0.0337
    2SAPS   HN2  136   1.941   1.597  10.794 -0.4223 -0.7531 -0.7249
    2SAPS   HN3  137   2.068   1.505  10.867 -0.2617 -3.6027  0.5420
    2SAPS   C12  138   1.895   1.406  10.856  0.2669 -0.0183 -0.1520
    2SAPS  H12A  139   1.951   1.315  10.871 -1.3095 -0.6815  1.9648
    2SAPS   C13  140   1.820   1.453  10.990  0.0904 -0.7303  0.3252
    2SAPS  O13A  141   1.831   1.576  11.025  0.0049  0.5329  0.1131
    2SAPS  O13B  142   1.741   1.373  11.047  0.2661 -0.3766 -0.1197
    2SAPS   C11  143   1.785   1.364  10.748 -0.0315 -0.0778  0.1593
    2SAPS  H11A  144   1.713   1.440  10.713 -0.2823 -0.7696 -0.8633
    2SAPS  H11B  145   1.722   1.293  10.805  0.5119  0.6951  1.7544
    2SAPS     P  146   1.837   1.159  10.593  0.0060  0.1263 -0.2920
    2SAPS   O13  147   1.884   1.075  10.702 -0.8248  0.1693  0.0428
    2SAPS   O14  148   1.703   1.122  10.542 -0.7012  0.4384 -0.2419
    2SAPS   O12  149   1.852   1.313  10.633  0.5799  0.0094  0.3253
    2SAPS   O11  150   1.936   1.144  10.470  0.4476  0.1923  0.2828
    2SAPS    C1  151   2.009   1.239  10.394  0.6383  0.1747 -0.1822
    2SAPS    HA  152   1.940   1.311  10.345  0.3060 -0.0964 -0.1184
    2SAPS    HB  153   2.084   1.287  10.459  0.4196  2.2541 -1.4165
    2SAPS    C2  154   2.088   1.169  10.280  0.5512 -0.2926  0.2640
    2SAPS    HS  155   2.194   1.162  10.315  1.0992  1.2941 -1.0068
    2SAPS   O21  156   2.086   1.246  10.156  0.1136 -0.7428 -0.2768
    2SAPS   C21  157   2.161   1.352  10.158  0.6857  0.6386  0.5710
    2SAPS   O22  158   2.251   1.385  10.229 -0.5085 -0.6622 -0.5592
    2SAPS   C22  159   2.148   1.426  10.027  0.6066 -0.3342 -1.1828
    2SAPS   H2R  160   2.053   1.399   9.977 -0.3597 -1.8232  1.3202
    2SAPS   H2S  161   2.153   1.534  10.052  1.9745 -0.3742 -1.2081
    2SAPS    C3  162   2.035   1.031  10.253 -0.9072  0.3460 -0.2285
    2SAPS    HX  163   1.925   1.023  10.236 -1.4813  0.5720  3.0815
    2SAPS    HY  164   2.052   0.971  10.345 -3.2049  1.5531  1.0487
    2SAPS   O31  165   2.111   0.978  10.144 -0.1914  0.4506 -0.1796
    2SAPS   C31  166   2.047   0.891  10.055  0.1305 -0.2337  0.0510
    2SAPS   O32  167   1.936   0.847  10.072 -0.0445  0.3246  0.1918
    2SAPS   C32  168   2.132   0.861   9.936 -0.1704  0.2604 -0.2069
    2SAPS   H2X  169   2.192   0.771   9.962 -1.3783 -0.2206  0.9558
    2SAPS   H2Y  170   2.205   0.943   9.917  1.4905 -1.4319 -1.3199
    2SAPS   C23  171   2.259   1.396   9.919  0.4230 -0.2404 -0.0871
    2SAPS   H3R  172   2.363   1.416   9.954  1.1009 -2.0736 -0.9782
    2SAPS   H3S  173   2.239   1.476   9.844 -2.5962  0.2855  1.1905
    2SAPS   C24  174   2.260   1.250   9.873 -1.3749  0.4165  0.8739
    2SAPS   H4R  175   2.157   1.222   9.841 -0.4466 -0.7575 -1.1305
    2SAPS   H4S  176   2.290   1.182   9.956 -0.2006  0.6988  0.6839
    2SAPS   C25  177   2.359   1.231   9.759  0.1790 -0.7532 -0.3568
    2SAPS   H5R  178   2.463   1.216   9.793  0.5791 -2.5396 -2.2727
    2SAPS   C26  179   2.339   1.216   9.629 -0.5388 -0.5747  0.6634
    2SAPS   H6R  180   2.427   1.210   9.563 -1.0576  0.9141 -0.1840
    2SAPS   C27  181   2.206   1.211   9.551 -0.0023  0.1428 -0.2870
    2SAPS   H7R  182   2.130   1.193   9.631 -0.2966 -2.5152 -1.1275
    2SAPS   H7S  183   2.201   1.122   9.485  0.3371 -1.0910  1.3038
    2SAPS   C28  184   2.189   1.346   9.496 -0.2056 -0.5432 -0.6071
    2SAPS   H8R  185   2.172   1.428   9.567 -0.1355  0.0056 -1.2196
    2SAPS   C29  186   2.221   1.381   9.370  0.4533 -0.1835  0.3747
    2SAPS   H9R  187   2.217   1.488   9.347 -0.6799  0.0372  1.5411
    2SAPS  C210  188   2.274   1.298   9.257 -0.1828 -0.0908 -0.3389
    2SAPS  H10R  189   2.197   1.311   9.178 -0.0502 -1.4509 -0.6966
    2SAPS  H10S  190   2.264   1.190   9.280  1.2208  0.1282  1.4122
    2SAPS  C211  191   2.422   1.332   9.225  0.2101  0.1007 -0.1490
    2SAPS  H11R  192   2.485   1.358   9.311  0.8476 -2.4128  0.1972
    2SAPS  C212  193   2.483   1.326   9.104  0.1790  0.3451 -0.2743
    2SAPS  H12R  194   2.589   1.356   9.106  0.4017 -0.4559  0.3894
    2SAPS  C213  195   2.430   1.291   8.964 -0.0408 -0.8041 -0.4012
    2SAPS  H13R  196   2.494   1.328   8.881  1.7228 -1.2123  0.7460
    2SAPS  H13S  197   2.329   1.336   8.958  0.8919  1.7882  2.0188
    2SAPS  C214  198   2.407   1.142   8.959  0.1945 -0.1453  0.1084
    2SAPS  H14R  199   2.334   1.098   9.029  1.2613 -0.1861  1.1970
    2SAPS  C215  200   2.453   1.048   8.876 -0.0261 -0.3380 -0.0659
    2SAPS  H15R  201   2.430   0.942   8.889 -1.8626  0.0146 -0.3751
    2SAPS  C216  202   2.548   1.062   8.752 -0.2997 -0.3418 -0.3697
    2SAPS  H16R  203   2.655   1.038   8.769 -0.9525 -1.7068  2.1906
    2SAPS  H16S  204   2.544   1.168   8.719 -2.9772  0.1408  1.3203
    2SAPS  C217  205   2.500   0.980   8.628 -0.1035  0.0864 -0.4355
    2SAPS  H17R  206   2.395   1.009   8.604 -0.0177  0.9047  0.1145
    2SAPS  H17S  207   2.496   0.873   8.658 -1.4019  0.0448 -0.7089
    2SAPS  C218  208   2.597   0.995   8.508  0.5478 -0.1710  0.8163
    2SAPS  H18R  209   2.697   0.955   8.536  0.5403 -0.7720  0.0158
    2SAPS  H18S  210   2.588   1.098   8.466  1.0761 -0.3523  0.2490
    2SAPS  C219  211   2.564   0.890   8.396  0.1692  0.1218  0.5791
    2SAPS  H19R  212   2.577   0.788   8.437 -1.4590 -0.1402  0.4624
    2SAPS  H19S  213   2.635   0.915   8.314  0.7711 -2.3375  0.3161
    2SAPS  C220  214   2.422   0.905   8.348 -0.6283  0.3335 -0.1527
    2SAPS  H20R  215   2.358   0.855   8.424 -0.1779 -0.1221 -0.0749
    2SAPS  H20S  216   2.400   0.847   8.255  0.9372  0.8423 -0.8485
    2SAPS  H20T  217   2.389   1.011   8.346  1.8681  1.1961  2.3918
    2SAPS   C33  218   2.056   0.827   9.811  0.2884  0.5790 -0.6218
    2SAPS   H3X  219   1.959   0.873   9.784 -0.7420 -0.8382  0.5576
    2SAPS   H3Y  220   2.038   0.717   9.821  2.0227  0.4467  1.2674
    2SAPS   C34  221   2.137   0.854   9.679  0.2672  0.2663 -0.2923
    2SAPS   H4X  222   2.233   0.798   9.684 -1.2285 -2.1512  2.1971
    2SAPS   H4Y  223   2.167   0.960   9.667  0.6860  0.2606  0.6458
    2SAPS   C35  224   2.058   0.809   9.555  0.3601  0.0679  0.4733
    2SAPS   H5X  225   1.959   0.859   9.550 -0.9551 -2.6794 -2.4603
    2SAPS   H5Y  226   2.023   0.704   9.568  2.3753 -0.4934  1.6232
    2SAPS   C36  227   2.138   0.817   9.420  0.3354  0.1185  0.1337
    2SAPS   H6X  228   2.231   0.758   9.436 -0.7259 -1.2183  1.5338
    2SAPS   H6Y  229   2.171   0.921   9.402  0.8826 -0.0190  0.3107
    2SAPS   C37  230   2.069   0.760   9.297  0.0668 -0.1613  0.1019
    2SAPS   H7X  231   1.972   0.811   9.284 -1.2614 -1.8878  2.8205
    2SAPS   H7Y  232   2.060   0.649   9.293  1.3774 -0.2316 -1.6684
    2SAPS   C38  233   2.143   0.799   9.166  0.4622 -0.3519 -0.4174
    2SAPS   H8X  234   2.232   0.732   9.158  1.2130  0.7335 -1.3304
    2SAPS   H8Y  235   2.165   0.907   9.161  1.7038 -0.6499 -1.8822
    2SAPS   C39  236   2.054   0.756   9.051  0.5392 -0.0971  0.1554
    2SAPS   H9X  237   1.951   0.795   9.061 -0.0318 -1.2439 -1.1190
    2SAPS   H9Y  238   2.036   0.647   9.060  0.9752 -0.2294 -0.5431
    2SAPS  C310  239   2.114   0.797   8.916  0.1185  0.0886 -0.0352
    2SAPS  H10X  240   2.220   0.764   8.914  0.4723  1.2629 -1.3393
    2SAPS  H10Y  241   2.118   0.908   8.907  0.1747  0.1028  0.1618
    2SAPS  C311  242   2.032   0.730   8.799  0.0221 -0.2135  0.1558
    2SAPS  H11X  243   1.922   0.730   8.819 -0.3977  1.5104 -1.9881
    2SAPS  H11Y  244   2.073   0.627   8.808 -0.2417 -0.5553 -2.1877
    2SAPS  C312  245   2.075   0.783   8.665 -0.0671 -0.1878  0.5297
    2SAPS  H12X  246   2.048   0.699   8.597  0.1158  0.4711 -0.3759
    2SAPS  H12Y  247   2.185   0.796   8.652 -0.1682  0.8085  0.6379
    2SAPS  C313  248   1.997   0.913   8.621 -0.1669 -0.7090  0.5469
    2SAPS  H13X  249   1.955   0.963   8.711  2.1605  3.2220 -0.4598
    2SAPS  H13Y  250   1.912   0.879   8.557 -0.6298 -1.9907  1.8163
    2SAPS  C314  251   2.081   1.021   8.552  0.4921  0.3912  0.4531
    2SAPS  H14X  252   2.113   0.982   8.452 -0.1237  0.1862  0.3305
    2SAPS  H14Y  253   2.161   1.054   8.622  0.6386 -0.9207  0.9235
    2SAPS  C315  254   1.991   1.144   8.529  0.4719  0.2044  0.3749
    2SAPS  H15X  255   1.950   1.169   8.630  1.6028  0.4578  0.7772
    2SAPS  H15Y  256   1.908   1.113   8.462 -0.9234  1.4081  1.4918
    2SAPS  C316  257   2.062   1.273   8.474 -0.9774  0.1508 -0.6783
    2SAPS  H16X  258   2.096   1.262   8.369 -1.2261 -2.5543 -0.5343
    2SAPS  H16Y  259   2.146   1.297   8.542  0.2572 -1.8167 -1.4547
    2SAPS  C317  260   1.962   1.392   8.492 -0.5436 -0.7585 -0.5014
    2SAPS  H17X  261   2.021   1.482   8.466  0.7669 -1.7262 -0.9355
    2SAPS  H17Y  262   1.929   1.390   8.598  0.6680 -1.7207 -0.1322
    2SAPS  C318  263   1.832   1.374   8.406 -0.4326 -0.1619  0.2969
    2SAPS  H18X  264   1.790   1.271   8.412  1.6814 -1.3588 -3.5125
    2SAPS  H18Y  265   1.847   1.395   8.298  1.4268  0.5461  0.6853
    2SAPS  H18Z  266   1.750   1.439   8.444 -0.1918  0.0508  0.4474
    3SAPS     N  267   2.053   2.907  11.282 -0.0871 -0.1375 -0.0916
    3SAPS   HN1  268   2.010   2.847  11.355 -2.1972  2.5320  0.9507
    3SAPS   HN2  269   2.144   2.861  11.259  1.3713  2.8319 -0.5933
    3SAPS   HN3  270   2.078   2.999  11.324  0.2817  0.0656 -0.7478
    3SAPS   C12  271   1.954   2.918  11.168  0.0192 -0.7495  0.0009
    3SAPS  H12A  272   1.964   2.825  11.114 -2.5579 -0.7917 -0.4619
    3SAPS   C13  273   1.810   2.940  11.207  0.4371  0.7254 -0.7575
    3SAPS  O13A  274   1.785   2.960  11.329 -0.4190 -0.1971 -0.5452
    3SAPS  O13B  275   1.727   2.968  11.121  0.0867 -0.3512 -0.1982
    3SAPS   C11  276   1.994   3.047  11.088  0.6532  0.2112 -0.0830
    3SAPS  H11A  277   1.995   3.129  11.163 -0.0716 -0.3786  0.5694
    3SAPS  H11B  278   1.919   3.065  11.007 -2.5359 -1.2524  2.4685
    3SAPS     P  279   2.175   3.143  10.942 -0.2352  0.0301 -0.1225
    3SAPS   O13  280   2.184   3.262  11.027 -0.1653  0.2021  0.0015
    3SAPS   O14  281   2.298   3.092  10.878  0.1811  0.4292 -0.4948
    3SAPS   O12  282   2.114   3.019  11.026  0.3571  0.9598  0.6277
    3SAPS   O11  283   2.067   3.173  10.836 -0.0672 -0.0059 -0.0197
    3SAPS    C1  284   2.034   3.079  10.733  0.7298  0.0623 -0.2452
    3SAPS    HA  285   2.066   2.974  10.748 -2.1695 -0.7689  0.5259
    3SAPS    HB  286   1.924   3.062  10.734  0.2824  2.7590 -0.1435
    3SAPS    C2  287   2.056   3.149  10.598 -0.1170 -0.6360 -0.3221
    3SAPS    HS  288   2.161   3.186  10.602 -0.2346 -0.1285 -1.6519
    3SAPS   O21  289   1.964   3.250  10.581 -0.6034  0.7110 -0.0298
    3SAPS   C21  290   2.008   3.373  10.591 -0.1117 -0.7131  0.1959
    3SAPS   O22  291   2.121   3.410  10.606 -0.2756 -0.8899 -0.6726
    3SAPS   C22  292   1.896   3.468  10.571 -0.3031  0.1025  0.4092
    3SAPS   H2R  293   1.814   3.434  10.637  1.9052 -0.9230  2.7545
    3SAPS   H2S  294   1.944   3.559  10.613  0.3686 -0.2967  0.5159
    3SAPS    C3  295   2.036   3.058  10.474  0.1072 -0.5614 -0.0879
    3SAPS    HX  296   2.046   3.130  10.391 -1.4962 -0.2813 -0.0576
    3SAPS    HY  297   1.931   3.022  10.476  0.0027 -0.2627 -0.1659
    3SAPS   O31  298   2.135   2.951  10.459  0.4737  0.4481 -0.4749
    3SAPS   C31  299   2.093   2.832  10.501 -0.6569 -0.3755  0.3462
    3SAPS   O32  300   1.974   2.814  10.527 -0.1460  0.5344 -0.6446
    3SAPS   C32  301   2.207   2.735  10.500  0.5265 -0.4672  0.4164
    3SAPS   H2X  302   2.210   2.702  10.606  0.1406  1.7267  1.1295
    3SAPS   H2Y  303   2.305   2.779  10.473  0.9297 -0.3991  1.9332
    3SAPS   C23  304   1.864   3.503  10.423  0.1459  0.1910  0.8723
    3SAPS   H3R  305   1.963   3.533  10.383 -0.7364 -1.9686 -3.1483
    3SAPS   H3S  306   1.792   3.587  10.413 -0.2903 -0.3063 -0.1950
    3SAPS   C24  307   1.789   3.396  10.345 -0.2209 -0.3524 -0.0166
    3SAPS   H4R  308   1.695   3.376  10.400 -0.7394 -2.5943 -1.6748
    3SAPS   H4S  309   1.848   3.302  10.346  2.4549  1.2477  1.2083
    3SAPS   C25  310   1.756   3.437  10.206 -0.5047 -1.1599  0.0691
    3SAPS   H5R  311   1.842   3.476  10.149 -0.6757 -1.7487 -0.5938
    3SAPS   C26  312   1.638   3.431  10.137 -0.1151 -0.2338 -0.0711
    3SAPS   H6R  313   1.631   3.465  10.033 -0.1303 -2.1358 -0.6973
    3SAPS   C27  314   1.503   3.377  10.195 -0.2515  0.1764 -0.0986
    3SAPS   H7R  315   1.530   3.306  10.276  0.6763 -2.1751 -2.3848
    3SAPS   H7S  316   1.454   3.328  10.108 -0.4291  0.1905 -0.0049
    3SAPS   C28  317   1.411   3.484  10.247  0.0266  0.4406 -1.0057
    3SAPS   H8R  318   1.424   3.492  10.356 -1.1932  0.2430 -0.8430
    3SAPS   C29  319   1.323   3.552  10.173  0.1499  0.1043 -0.3951
    3SAPS   H9R  320   1.274   3.636  10.224 -1.5469 -1.3434  0.4327
    3SAPS  C210  321   1.314   3.533  10.023  0.3627 -0.2757  0.2548
    3SAPS  H10R  322   1.288   3.427  10.002  1.9818 -0.5999 -0.1962
    3SAPS  H10S  323   1.416   3.536   9.977 -0.0169 -1.2313 -0.6680
    3SAPS  C211  324   1.217   3.627   9.947  0.4437  0.2138 -0.3072
    3SAPS  H11R  325   1.121   3.653   9.996  0.4564  1.8917 -1.1576
    3SAPS  C212  326   1.248   3.684   9.832  0.0229  0.1054  0.0719
    3SAPS  H12R  327   1.183   3.760   9.788  1.3302  0.6148 -1.0044
    3SAPS  C213  328   1.368   3.646   9.747 -0.3336 -0.0448 -0.1500
    3SAPS  H13R  329   1.336   3.604   9.650  1.3541 -3.1514  0.5752
    3SAPS  H13S  330   1.432   3.565   9.790  0.3146  0.1443 -0.7564
    3SAPS  C214  331   1.451   3.769   9.720 -0.3078  0.1369 -0.7376
    3SAPS  H14R  332   1.482   3.832   9.805  1.6459  1.3882 -2.2975
    3SAPS  C215  333   1.487   3.804   9.596  0.4336 -0.7813  0.0267
    3SAPS  H15R  334   1.554   3.891   9.593 -1.2242  0.5685  0.8075
    3SAPS  C216  335   1.465   3.726   9.466  0.9261 -0.8090  0.4177
    3SAPS  H16R  336   1.369   3.744   9.413  0.5949 -1.1483  0.9001
    3SAPS  H16S  337   1.490   3.619   9.484 -0.2513 -0.9455  1.3388
    3SAPS  C217  338   1.566   3.760   9.346  0.6338  0.5859 -0.7181
    3SAPS  H17R  339   1.565   3.663   9.291 -0.3721  0.0389  0.2365
    3SAPS  H17S  340   1.669   3.762   9.388  0.8848 -1.8036 -1.1437
    3SAPS  C218  341   1.536   3.878   9.253 -0.6523 -0.7454  0.1005
    3SAPS  H18R  342   1.549   3.970   9.314 -0.4919  0.2649 -1.4332
    3SAPS  H18S  343   1.435   3.848   9.215 -1.4598  2.1002 -0.1236
    3SAPS  C219  344   1.630   3.881   9.134 -0.5368 -0.4353  0.4593
    3SAPS  H19R  345   1.590   3.959   9.066  2.5683  0.7093 -0.1415
    3SAPS  H19S  346   1.642   3.785   9.079 -0.7646  0.2196 -0.7544
    3SAPS  C220  347   1.771   3.937   9.168  0.1795 -0.4620  0.6250
    3SAPS  H20R  348   1.758   4.010   9.251  1.1212  0.1808  0.2119
    3SAPS  H20S  349   1.815   3.987   9.079 -3.7081  0.4396 -0.8643
    3SAPS  H20T  350   1.838   3.856   9.207  0.4679 -1.1996 -1.3625
    3SAPS   C33  351   2.184   2.614  10.407  0.3873  0.0125  0.0782
    3SAPS   H3X  352   2.106   2.551  10.455  2.4143 -1.8716  0.9603
    3SAPS   H3Y  353   2.275   2.551  10.403 -0.7044 -1.6603  0.8110
    3SAPS   C34  354   2.135   2.663  10.266  0.3789  0.0336 -0.6083
    3SAPS   H4X  355   2.046   2.729  10.277  1.7402  2.0739 -1.4635
    3SAPS   H4Y  356   2.105   2.576  10.205  1.8754 -0.5696 -0.4969
    3SAPS   C35  357   2.245   2.742  10.193 -0.3194  0.4743 -0.4757
    3SAPS   H5X  358   2.338   2.683  10.184 -0.7157 -0.6483  2.3575
    3SAPS   H5Y  359   2.279   2.830  10.252  1.6653  0.0747 -0.9970
    3SAPS   C36  360   2.189   2.799  10.069  0.2439  0.0061 -0.4519
    3SAPS   H6X  361   2.255   2.886  10.049  1.7556 -1.0137 -0.0497
    3SAPS   H6Y  362   2.085   2.828  10.092 -0.0213 -0.7712 -0.6601
    3SAPS   C37  363   2.178   2.706   9.948 -0.7305 -0.4977  0.5501
    3SAPS   H7X  364   2.075   2.672   9.925 -0.1788  0.5937 -4.1715
    3SAPS   H7Y  365   2.243   2.617   9.963 -2.0250 -1.7030 -0.8344
    3SAPS   C38  366   2.215   2.764   9.812  0.2796  0.2582 -0.6843
    3SAPS   H8X  367   2.318   2.807   9.810 -0.7757  2.8456 -1.5577
    3SAPS   H8Y  368   2.147   2.851   9.816 -0.5446 -0.3774 -0.6713
    3SAPS   C39  369   2.208   2.671   9.690  0.7450 -0.2366  0.0345
    3SAPS   H9X  370   2.108   2.622   9.688  1.2602 -1.2993 -0.6202
    3SAPS   H9Y  371   2.286   2.592   9.698  0.4836 -0.3534  1.4509
    3SAPS  C310  372   2.224   2.752   9.555  0.3372  0.0959 -0.1707
    3SAPS  H10X  373   2.318   2.812   9.549  0.1123  0.6482  1.5439
    3SAPS  H10Y  374   2.152   2.836   9.562  1.7076  1.3476 -0.8191
    3SAPS  C311  375   2.217   2.659   9.430  0.4878 -0.1941 -0.2855
    3SAPS  H11X  376   2.136   2.584   9.445  0.3125  0.0623  0.0554
    3SAPS  H11Y  377   2.318   2.616   9.412  1.2729  0.4744  2.2584
    3SAPS  C312  378   2.191   2.729   9.293  0.5880 -0.1587  0.4079
    3SAPS  H12X  379   2.204   2.659   9.208  1.3251  1.2197 -0.6515
    3SAPS  H12Y  380   2.267   2.809   9.277 -0.2908  0.2269 -2.1709
    3SAPS  C313  381   2.047   2.789   9.280  0.9661  0.0770  0.3597
    3SAPS  H13X  382   2.031   2.864   9.360 -2.7633  0.1315 -0.3622
    3SAPS  H13Y  383   1.976   2.705   9.299 -0.9937  1.1447 -1.9298
    3SAPS  C314  384   2.016   2.833   9.132  0.5726 -0.3842 -0.3189
    3SAPS  H14X  385   2.093   2.902   9.093  1.1250  0.3139  1.9144
    3SAPS  H14Y  386   1.922   2.892   9.141  0.7743  0.0225 -0.8661
    3SAPS  C315  387   1.997   2.712   9.041 -0.4667 -0.9009 -0.7813
    3SAPS  H15X  388   1.958   2.626   9.099 -2.6279 -0.7951 -2.0266
    3SAPS  H15Y  389   2.101   2.683   9.018  0.4758  1.4901  0.2932
    3SAPS  C316  390   1.916   2.743   8.913  0.1338  0.5159  0.1930
    3SAPS  H16X  391   1.964   2.831   8.866 -1.2573  0.0036 -2.2965
    3SAPS  H16Y  392   1.812   2.762   8.947 -0.1876 -1.8445  0.5747
    3SAPS  C317  393   1.904   2.621   8.819 -0.2218 -0.3695 -0.2913
    3SAPS  H17X  394   1.858   2.538   8.877  1.4760  0.1232  1.8286
    3SAPS  H17Y  395   2.010   2.598   8.796  0.3185  1.9821 -0.2729
    3SAPS  C318  396   1.818   2.656   8.698  0.6072 -0.4008  1.0645
    3SAPS  H18X  397   1.813   2.561   8.641  1.0454 -0.9954  2.0085
    3SAPS  H18Y  398   1.850   2.742   8.635 -2.0928  1.3578  2.0252
    3SAPS  H18Z  399   1.714   2.669   8.734  0.1494  1.4126 -0.8291
    4SAPS     N  400   4.562   3.652  11.296  0.0842 -0.4743  0.3301
    4SAPS   HN1  401   4.611   3.640  11.386 -2.1234 -0.4954  1.5796
    4SAPS   HN2  402   4.507   3.566  11.275 -0.1669  0.3697 -2.6455
    4SAPS   HN3  403   4.627   3.675  11.219  1.0571  0.3448  1.3882
    4SAPS   C12  404   4.459   3.759  11.319 -0.1925 -0.3630  0.6925
    4SAPS  H12A  405   4.369   3.705  11.346  0.0915 -1.2493 -0.1128
    4SAPS   C13  406   4.511   3.852  11.433  0.1608  0.5781  0.9985
    4SAPS  O13A  407   4.626   3.828  11.481 -0.0875  0.2053  1.0964
    4SAPS  O13B  408   4.432   3.940  11.478 -1.0067  0.4014 -0.0600
    4SAPS   C11  409   4.421   3.833  11.191  0.7773  0.2722  0.2061
    4SAPS  H11A  410   4.509   3.898  11.170  1.3194 -0.8882 -1.1884
    4SAPS  H11B  411   4.332   3.895  11.214  1.2051  1.1257 -0.4282
    4SAPS     P  412   4.339   3.781  10.939  0.2553 -0.4522  0.1864
    4SAPS   O13  413   4.428   3.736  10.828  0.0686 -0.2038 -0.2756
    4SAPS   O14  414   4.195   3.737  10.941  0.6748 -0.7270  0.3410
    4SAPS   O12  415   4.403   3.746  11.081 -0.1962  0.4232 -0.3093
    4SAPS   O11  416   4.335   3.936  10.945 -0.1422  0.1268  0.0947
    4SAPS    C1  417   4.443   4.012  10.885  0.3930  0.3606  0.4690
    4SAPS    HA  418   4.467   4.096  10.953  0.4307 -1.6642  3.0166
    4SAPS    HB  419   4.528   3.946  10.857  0.2774 -0.5897  2.2756
    4SAPS    C2  420   4.401   4.087  10.758  0.3866 -0.0514 -0.2467
    4SAPS    HS  421   4.478   4.157  10.719 -0.0987  0.1319 -0.8895
    4SAPS   O21  422   4.273   4.151  10.779  0.2426  0.5816  0.0705
    4SAPS   C21  423   4.285   4.274  10.820 -0.1698 -0.0937  0.0738
    4SAPS   O22  424   4.385   4.333  10.847 -0.2896 -0.1940 -0.1860
    4SAPS   C22  425   4.149   4.351  10.814 -0.9670 -0.1275  1.0264
    4SAPS   H2R  426   4.057   4.290  10.821 -2.7013  1.8998 -2.7631
    4SAPS   H2S  427   4.149   4.424  10.899 -0.1407  2.0032 -0.7433
    4SAPS    C3  428   4.386   3.985  10.639  0.3337 -0.3529 -0.5628
    4SAPS    HX  429   4.315   3.908  10.677  0.0599  0.2876  0.2367
    4SAPS    HY  430   4.487   3.945  10.617  0.3467  0.9367 -2.9566
    4SAPS   O31  431   4.350   4.044  10.516  0.1748 -0.1748 -0.6927
    4SAPS   C31  432   4.245   4.001  10.451 -0.5946  0.5081 -0.0424
    4SAPS   O32  433   4.175   3.904  10.481  0.6097  0.4596 -0.1242
    4SAPS   C32  434   4.209   4.093  10.333  0.2008 -0.4929  0.0456
    4SAPS   H2X  435   4.301   4.142  10.293  1.5359 -3.5944 -0.8111
    4SAPS   H2Y  436   4.138   4.168  10.375  2.1538  0.0470  2.4824
    4SAPS   C23  437   4.125   4.443  10.692  0.3070  0.5879 -0.1313
    4SAPS   H3R  438   4.218   4.503  10.682  0.5904 -0.1289 -2.0561
    4SAPS   H3S  439   4.036   4.509  10.705 -0.9375 -1.0661 -0.1588
    4SAPS   C24  440   4.097   4.364  10.562  0.3950  0.1595  0.1923
    4SAPS   H4R  441   4.023   4.284  10.586 -0.8484  0.9781 -0.8605
    4SAPS   H4S  442   4.200   4.334  10.533 -0.5819 -2.1275 -1.0639
    4SAPS   C25  443   4.050   4.456  10.448  0.6588 -0.9029 -0.4842
    4SAPS   H5R  444   3.948   4.495  10.455  1.6680  1.5378  1.4755
    4SAPS   C26  445   4.117   4.483  10.334  0.0801 -0.0763  0.0025
    4SAPS   H6R  446   4.080   4.546  10.252  0.4421 -2.0772 -1.7166
    4SAPS   C27  447   4.258   4.443  10.310 -0.9261 -0.3397  0.3404
    4SAPS   H7R  448   4.278   4.363  10.237 -2.3047 -1.9353  1.6592
    4SAPS   H7S  449   4.310   4.408  10.402 -1.0260 -0.6610  0.2728
    4SAPS   C28  450   4.341   4.562  10.266  0.2857 -0.6266  0.6118
    4SAPS   H8R  451   4.404   4.607  10.344  0.0095  0.0251  0.4678
    4SAPS   C29  452   4.348   4.606  10.136 -0.3142 -0.2478  0.4567
    4SAPS   H9R  453   4.426   4.681  10.112 -0.5456 -0.3613 -0.6758
    4SAPS  C210  454   4.284   4.539  10.018 -0.1397 -0.2741 -0.6034
    4SAPS  H10R  455   4.226   4.624   9.976 -0.9556 -0.4133  0.2329
    4SAPS  H10S  456   4.209   4.469  10.061 -0.5764  1.2553  1.1978
    4SAPS  C211  457   4.379   4.479   9.920  0.0952 -0.0254 -0.3001
    4SAPS  H11R  458   4.439   4.396   9.959 -0.3270 -0.7494 -1.1681
    4SAPS  C212  459   4.388   4.507   9.791  0.3072  0.4501 -0.1728
    4SAPS  H12R  460   4.467   4.461   9.729  0.1011  0.4663 -0.4470
    4SAPS  C213  461   4.308   4.601   9.713 -0.1800 -0.8465 -0.3484
    4SAPS  H13R  462   4.362   4.643   9.625  0.7633  0.8427  1.0111
    4SAPS  H13S  463   4.285   4.691   9.773 -2.1171 -2.2826  1.1241
    4SAPS  C214  464   4.179   4.549   9.675 -1.0096 -0.4227 -0.2815
    4SAPS  H14R  465   4.105   4.557   9.756 -1.0089 -2.4307 -0.0596
    4SAPS  C215  466   4.145   4.490   9.561  0.0011 -0.3531 -0.4372
    4SAPS  H15R  467   4.039   4.463   9.553  0.3588 -1.5405 -1.4675
    4SAPS  C216  468   4.232   4.459   9.441  0.6480 -0.4823 -0.1986
    4SAPS  H16R  469   4.318   4.529   9.439  0.0891  0.2619  1.1433
    4SAPS  H16S  470   4.179   4.461   9.343  1.7687  2.2681 -0.8025
    4SAPS  C217  471   4.279   4.319   9.451 -0.3098  0.1384 -0.3674
    4SAPS  H17R  472   4.200   4.244   9.469 -0.1729  0.5853  2.3772
    4SAPS  H17S  473   4.341   4.316   9.543  1.5664 -0.4653 -1.6243
    4SAPS  C218  474   4.378   4.278   9.342  0.6383 -0.0607  0.3824
    4SAPS  H18R  475   4.459   4.354   9.353  0.3893  0.6227 -2.1343
    4SAPS  H18S  476   4.340   4.268   9.239  0.9270  1.9553  0.0618
    4SAPS  C219  477   4.445   4.147   9.374 -0.3222  0.4107  0.1645
    4SAPS  H19R  478   4.382   4.057   9.361 -0.4067  0.5120 -0.1094
    4SAPS  H19S  479   4.485   4.149   9.478  0.2746 -0.3595 -0.0491
    4SAPS  C220  480   4.576   4.119   9.290 -0.8471  0.0265 -0.0177
    4SAPS  H20R  481   4.603   4.012   9.292  0.8720  0.4588  1.6707
    4SAPS  H20S  482   4.660   4.178   9.333 -1.1722 -0.5297  1.4071
    4SAPS  H20T  483   4.557   4.146   9.184 -2.5830 -0.3783  0.1707
    4SAPS   C33  484   4.161   4.001  10.222  0.4715 -0.1424 -0.1643
    4SAPS   H3X  485   4.078   3.939  10.261 -0.5196  2.1857  1.5341
    4SAPS   H3Y  486   4.231   3.924  10.182 -0.1132 -1.0985  0.6635
    4SAPS   C34  487   4.097   4.077  10.108 -1.0664  0.5233  0.2832
    4SAPS   H4X  488   4.057   4.174  10.146 -1.9623  0.0687  0.5054
    4SAPS   H4Y  489   4.020   4.014  10.060 -1.0502  0.0640  0.8644
    4SAPS   C35  490   4.197   4.102   9.999  0.5183 -0.0066  0.1343
    4SAPS   H5X  491   4.239   4.006   9.961 -1.8982 -1.1377  0.1690
    4SAPS   H5Y  492   4.283   4.156  10.042  0.7393 -0.7677  0.6691
    4SAPS   C36  493   4.130   4.168   9.883  0.5054 -0.1292  0.0609
    4SAPS   H6X  494   4.211   4.219   9.827 -0.3023 -0.4277 -1.3975
    4SAPS   H6Y  495   4.066   4.252   9.916  0.1604 -0.1963 -0.4380
    4SAPS   C37  496   4.065   4.068   9.780  0.1816 -0.2155  0.2844
    4SAPS   H7X  497   3.971   4.114   9.744  0.2883  0.2897  0.6508
    4SAPS   H7Y  498   4.037   3.972   9.829 -2.9979  1.0102  0.9984
    4SAPS   C38  499   4.149   4.024   9.658  0.5107  0.0510  0.4076
    4SAPS   H8X  500   4.227   3.951   9.689 -0.7771 -0.4231  2.7057
    4SAPS   H8Y  501   4.204   4.110   9.614 -0.7601  0.8940  0.4408
    4SAPS   C39  502   4.060   3.957   9.558  0.1401 -0.3092 -0.4449
    4SAPS   H9X  503   3.966   4.005   9.525 -0.4876 -0.3311  1.3045
    4SAPS   H9Y  504   4.036   3.853   9.588 -0.1820 -0.2843 -0.6141
    4SAPS  C310  505   4.125   3.940   9.423  0.0236 -0.0163 -0.6707
    4SAPS  H10X  506   4.200   3.859   9.434  1.5741  1.6772  1.7677
    4SAPS  H10Y  507   4.184   4.027   9.388 -2.2092  2.2664  1.0387
    4SAPS  C311  508   4.017   3.900   9.318  0.0197  0.2705  0.1210
    4SAPS  H11X  509   3.964   3.994   9.295  3.3599  2.5591  1.3150
    4SAPS  H11Y  510   3.946   3.825   9.359 -1.3684  1.6343  0.2480
    4SAPS  C312  511   4.070   3.852   9.186 -0.4928  0.0783 -0.6864
    4SAPS  H12X  512   3.989   3.825   9.114  0.2164 -0.4568 -1.2887
    4SAPS  H12Y  513   4.128   3.759   9.200  0.8482  1.1549  1.1112
    4SAPS  C313  514   4.161   3.951   9.128  0.0646 -0.8749  0.2093
    4SAPS  H13X  515   4.206   3.903   9.038  0.0466  0.4711 -0.5411
    4SAPS  H13Y  516   4.247   3.977   9.193 -1.3504  0.7787  1.4697
    4SAPS  C314  517   4.084   4.081   9.092  0.1578 -0.4208 -0.6976
    4SAPS  H14X  518   4.065   4.138   9.185 -0.1262 -1.0965 -0.3398
    4SAPS  H14Y  519   3.987   4.052   9.046  0.3046  0.3610 -1.5268
    4SAPS  C315  520   4.168   4.171   9.002  0.0657 -0.0992 -0.3890
    4SAPS  H15X  521   4.276   4.168   9.027 -0.1247  1.2139  0.6717
    4SAPS  H15Y  522   4.135   4.277   9.013  2.3072  0.6711 -0.6452
    4SAPS  C316  523   4.161   4.134   8.853 -0.0629 -0.0047 -0.0431
    4SAPS  H16X  524   4.066   4.096   8.812  0.1630 -2.3364  1.4870
    4SAPS  H16Y  525   4.226   4.047   8.833  0.4380  0.7917 -2.0551
    4SAPS  C317  526   4.232   4.251   8.768  0.0267  1.0493  0.2106
    4SAPS  H17X  527   4.334   4.265   8.810  0.6421 -4.4081  0.9706
    4SAPS  H17Y  528   4.173   4.344   8.782 -0.3773  0.6818  1.0647
    4SAPS  C318  529   4.232   4.219   8.616 -0.0493 -0.3051  0.4240
    4SAPS  H18X  530   4.136   4.216   8.561  0.3075 -0.6236 -0.1882
    4SAPS  H18Y  531   4.275   4.117   8.610  1.5669  0.4091 -0.6742
    4SAPS  H18Z  532   4.304   4.286   8.564  1.2055 -0.5317  1.8415
    5SAPS     N  533   1.622   3.184  11.262  0.5800  0.1056 -0.2376
    5SAPS   HN1  534   1.642   3.166  11.362 -2.9134  0.6136  0.6208
    5SAPS   HN2  535   1.649   3.105  11.199  0.3432 -2.2824  2.5340
    5SAPS   HN3  536   1.687   3.262  11.242  0.9830 -0.0717  0.3902
    5SAPS   C12  537   1.487   3.240  11.237 -0.2548  0.3404  0.2919
    5SAPS  H12A  538   1.409   3.170  11.267 -1.1943  1.5422  0.7042
    5SAPS   C13  539   1.459   3.379  11.300 -1.0923 -0.2966  0.1115
    5SAPS  O13A  540   1.552   3.441  11.354  0.1665  0.0134  0.0672
    5SAPS  O13B  541   1.345   3.422  11.295 -0.3201 -0.2001  0.2083
    5SAPS   C11  542   1.447   3.237  11.087 -0.9836 -0.8919  0.0291
    5SAPS  H11A  543   1.523   3.293  11.029  1.1053 -2.7724  0.8880
    5SAPS  H11B  544   1.342   3.272  11.078 -1.3115 -1.4918  1.3970
    5SAPS     P  545   1.362   3.053  10.916  0.4132  0.1995  0.0561
    5SAPS   O13  546   1.335   2.908  10.931 -0.1974  0.2126 -0.3812
    5SAPS   O14  547   1.241   3.137  10.900 -0.6990  0.2078 -1.0154
    5SAPS   O12  548   1.447   3.106  11.036  0.7683 -0.4396  0.3161
    5SAPS   O11  549   1.455   3.072  10.794  0.1719 -0.3575  0.0579
    5SAPS    C1  550   1.501   3.191  10.746 -0.1193  0.0474 -0.4735
    5SAPS    HA  551   1.426   3.273  10.753  0.0354  0.1569 -0.1040
    5SAPS    HB  552   1.595   3.228  10.791 -0.9376 -0.1164  1.4134
    5SAPS    C2  553   1.528   3.188  10.588  0.1610 -0.2498 -0.9019
    5SAPS    HS  554   1.556   3.292  10.562 -1.1082  0.3646  0.1615
    5SAPS   O21  555   1.411   3.147  10.521 -0.2221  0.0780  0.2128
    5SAPS   C21  556   1.308   3.242  10.520 -0.0813  0.3107 -0.2446
    5SAPS   O22  557   1.326   3.362  10.537 -0.1924 -0.3273  0.2156
    5SAPS   C22  558   1.180   3.172  10.482  0.0004 -0.4546  0.2286
    5SAPS   H2R  559   1.187   3.066  10.515 -1.0091 -0.5671  0.0801
    5SAPS   H2S  560   1.097   3.218  10.539 -0.7432 -0.5043 -0.8125
    5SAPS    C3  561   1.651   3.087  10.549 -0.5060 -0.0024  0.2600
    5SAPS    HX  562   1.638   2.993  10.607 -0.6515 -0.3222 -0.2867
    5SAPS    HY  563   1.741   3.142  10.584 -0.4122  1.0996 -1.6710
    5SAPS   O31  564   1.672   3.074  10.411 -0.6354  0.1449 -0.3731
    5SAPS   C31  565   1.614   2.971  10.363 -0.5852  0.6865  0.3445
    5SAPS   O32  566   1.552   2.891  10.428  0.1560  0.1226  0.0801
    5SAPS   C32  567   1.643   2.954  10.218 -0.5378 -0.2549 -1.3573
    5SAPS   H2X  568   1.562   3.011  10.167  0.9454  2.1700 -1.1042
    5SAPS   H2Y  569   1.634   2.844  10.205  0.1893 -0.4238 -0.4606
    5SAPS   C23  570   1.157   3.174  10.332  0.0107  0.4806  0.3467
    5SAPS   H3R  571   1.085   3.092  10.317  0.7810 -0.1461  0.0437
    5SAPS   H3S  572   1.252   3.161  10.275 -0.5702  1.7097 -0.9331
    5SAPS   C24  573   1.091   3.303  10.278  0.0548  0.0908 -0.1840
    5SAPS   H4R  574   1.098   3.282  10.169 -0.7717  0.8038 -0.3781
    5SAPS   H4S  575   1.158   3.388  10.300 -1.6537  0.9411  1.8942
    5SAPS   C25  576   0.956   3.351  10.328  0.0854  0.2705  0.3430
    5SAPS   H5R  577   0.952   3.387  10.432 -2.4742 -2.0681  1.1247
    5SAPS   C26  578   0.845   3.345  10.255  0.0024  0.2368  0.0734
    5SAPS   H6R  579   0.747   3.384  10.285  0.1855 -0.5131  1.6732
    5SAPS   C27  580   0.844   3.290  10.112  0.1388 -0.3999 -0.0348
    5SAPS   H7R  581   0.739   3.281  10.078 -0.1171 -2.5941  1.2001
    5SAPS   H7S  582   0.882   3.186  10.098  1.7554  0.0948  0.5221
    5SAPS   C28  583   0.913   3.382  10.009  0.2869 -0.0697 -0.3843
    5SAPS   H8R  584   0.961   3.472  10.050 -0.1883 -0.0803  0.2184
    5SAPS   C29  585   0.907   3.366   9.875 -0.2574 -0.2522 -0.2576
    5SAPS   H9R  586   0.974   3.428   9.813  0.0834 -0.1458  0.2135
    5SAPS  C210  587   0.837   3.246   9.800 -0.6283 -0.7518 -0.5499
    5SAPS  H10R  588   0.799   3.283   9.702  2.2393 -0.7578 -1.7099
    5SAPS  H10S  589   0.754   3.202   9.860  0.5110 -1.0407  0.8406
    5SAPS  C211  590   0.937   3.139   9.768 -0.2488 -0.4771  0.1566
    5SAPS  H11R  591   0.970   3.080   9.854 -1.8186 -0.3886  0.8303
    5SAPS  C212  592   0.974   3.094   9.645  0.2637 -0.7642 -0.0977
    5SAPS  H12R  593   1.043   3.008   9.648  0.3353 -0.6833  0.5297
    5SAPS  C213  594   0.917   3.139   9.512 -0.0857 -0.2718  0.4428
    5SAPS  H13R  595   0.808   3.122   9.505  0.1510 -2.0679  0.9256
    5SAPS  H13S  596   0.938   3.064   9.432 -0.1957 -2.3497  2.3139
    5SAPS  C214  597   0.941   3.281   9.465  0.3017 -0.1693 -0.2328
    5SAPS  H14R  598   1.006   3.338   9.532  0.7797 -1.5381  0.4828
    5SAPS  C215  599   0.880   3.336   9.356  0.0081  0.2344 -1.5436
    5SAPS  H15R  600   0.896   3.440   9.323 -2.4898  0.8567 -0.8956
    5SAPS  C216  601   0.786   3.261   9.261  0.2226  0.0786 -0.2873
    5SAPS  H16R  602   0.681   3.291   9.280 -0.0732 -2.0316  1.4637
    5SAPS  H16S  603   0.796   3.151   9.263  1.7272  0.2129  0.4171
    5SAPS  C217  604   0.807   3.299   9.116 -0.5920 -0.2287  0.4549
    5SAPS  H17R  605   0.916   3.294   9.092 -0.1230  1.9408  1.9828
    5SAPS  H17S  606   0.788   3.407   9.100 -0.5457 -0.3172 -0.2179
    5SAPS  C218  607   0.729   3.218   9.011  0.6390  1.0831 -0.5188
    5SAPS  H18R  608   0.747   3.111   9.037 -3.3789  0.6612  0.9924
    5SAPS  H18S  609   0.620   3.237   9.025  0.3378 -0.1413 -1.1117
    5SAPS  C219  610   0.777   3.264   8.880 -0.0648  0.6863  0.4193
    5SAPS  H19R  611   0.876   3.225   8.847  0.8837  3.1903  0.2150
    5SAPS  H19S  612   0.783   3.375   8.870  1.3719  0.6428  0.6491
    5SAPS  C220  613   0.695   3.203   8.763  0.5007 -0.0583  0.5470
    5SAPS  H20R  614   0.738   3.235   8.666 -1.4440  1.9587  0.3094
    5SAPS  H20S  615   0.588   3.227   8.777  0.4869 -1.0164  2.2169
    5SAPS  H20T  616   0.699   3.092   8.764 -1.0704 -0.1839 -2.2690
    5SAPS   C33  617   1.784   3.009  10.180  0.1933 -0.6137  0.0569
    5SAPS   H3X  618   1.851   2.948  10.244 -2.1669 -0.2533  2.9812
    5SAPS   H3Y  619   1.785   3.115  10.214 -0.0181 -0.8759  0.8992
    5SAPS   C34  620   1.829   2.983  10.038  0.5489 -0.3636 -0.2522
    5SAPS   H4X  621   1.825   2.872  10.029 -0.0330 -0.5095  1.5730
    5SAPS   H4Y  622   1.935   3.013  10.026  0.5249  0.2348  0.9413
    5SAPS   C35  623   1.735   3.042   9.935  1.0602  0.1119 -0.1344
    5SAPS   H5X  624   1.736   3.152   9.919  2.7232  0.1077 -0.1696
    5SAPS   H5Y  625   1.635   2.997   9.951  0.3245  1.3570 -1.1836
    5SAPS   C36  626   1.769   2.999   9.786  0.3284 -0.2342  0.1150
    5SAPS   H6X  627   1.773   2.888   9.786 -2.2389 -0.3652 -0.9335
    5SAPS   H6Y  628   1.873   3.023   9.754 -0.4278 -0.1994 -2.4125
    5SAPS   C37  629   1.685   3.059   9.675 -0.2026 -0.0334  0.1143
    5SAPS   H7X  630   1.666   3.169   9.683  0.1597  0.1642 -1.5856
    5SAPS   H7Y  631   1.581   3.022   9.688 -0.9473  1.0432 -2.3875
    5SAPS   C38  632   1.745   3.025   9.533  0.5690  0.4604  0.7117
    5SAPS   H8X  633   1.764   2.916   9.526 -0.0004  0.3995  0.0365
    5SAPS   H8Y  634   1.834   3.083   9.503  0.1217  0.7882 -0.0128
    5SAPS   C39  635   1.654   3.058   9.420  0.0282 -0.6530 -0.4328
    5SAPS   H9X  636   1.629   3.165   9.430  2.9091 -0.0201  0.4336
    5SAPS   H9Y  637   1.566   2.991   9.432 -0.1125 -0.4706 -0.4578
    5SAPS  C310  638   1.711   3.034   9.276  0.0840 -0.1889  0.6094
    5SAPS  H10X  639   1.730   2.926   9.256  0.8171  0.1816 -0.7839
    5SAPS  H10Y  640   1.804   3.095   9.275  0.3961 -0.6121 -2.3646
    5SAPS  C311  641   1.630   3.096   9.170 -0.3667  0.1085  0.2477
    5SAPS  H11X  642   1.618   3.205   9.188  0.7502  0.0151  1.5980
    5SAPS  H11Y  643   1.526   3.063   9.187 -0.6300  1.4575  1.3821
    5SAPS  C312  644   1.683   3.062   9.038 -0.1287 -0.1487  0.3532
    5SAPS  H12X  645   1.673   2.952   9.030 -1.6366 -0.1813  2.2300
    5SAPS  H12Y  646   1.793   3.078   9.043 -0.0996  0.4271 -1.7149
    5SAPS  C313  647   1.612   3.144   8.928 -0.2727 -0.0489 -0.0597
    5SAPS  H13X  648   1.663   3.242   8.942  0.5352 -0.6845  1.6434
    5SAPS  H13Y  649   1.504   3.157   8.948  0.1009 -1.6354  3.4576
    5SAPS  C314  650   1.649   3.103   8.779 -0.1971 -0.7697 -0.0191
    5SAPS  H14X  651   1.613   2.998   8.771 -1.4417 -0.4415  1.0234
    5SAPS  H14Y  652   1.760   3.098   8.775 -0.2570 -0.6745 -2.0800
    5SAPS  C315  653   1.568   3.200   8.689  0.0018  0.4127  0.1755
    5SAPS  H15X  654   1.627   3.293   8.701  1.2550 -0.2657 -0.6376
    5SAPS  H15Y  655   1.468   3.207   8.738 -0.4895 -0.0622 -0.7535
    5SAPS  C316  656   1.554   3.157   8.546  0.7044 -0.6137  0.0901
    5SAPS  H16X  657   1.520   3.051   8.540 -0.7650 -0.2182  1.1025
    5SAPS  H16Y  658   1.656   3.169   8.504  1.1651 -0.1068  1.3180
    5SAPS  C317  659   1.460   3.252   8.465 -0.5180  0.0580 -0.1938
    5SAPS  H17X  660   1.506   3.353   8.463 -0.8493  0.2022 -0.4698
    5SAPS  H17Y  661   1.360   3.270   8.508 -0.5072  1.4283 -0.7294
    5SAPS  C318  662   1.448   3.206   8.322  0.0112 -0.5336  0.4968
    5SAPS  H18X  663   1.369   3.263   8.268 -0.3650 -0.5438  1.0417
    5SAPS  H18Y  664   1.418   3.100   8.309 -0.2408 -0.3989 -0.0357
    5SAPS  H18Z  665   1.546   3.217   8.270  0.0634 -1.9221  0.2860
    6SAPS     N  666   0.475   1.772  10.514 -0.3920 -0.4642  0.0142
    6SAPS   HN1  667   0.490   1.860  10.462 -1.3083  0.1872  0.8402
    6SAPS   HN2  668   0.551   1.701  10.509 -0.7947 -0.7256 -5.5193
    6SAPS   HN3  669   0.390   1.739  10.463 -0.4191  0.5647 -0.6194
    6SAPS   C12  670   0.438   1.804  10.649  0.2985  0.1677 -0.2358
    6SAPS  H12A  671   0.388   1.900  10.655 -3.5074 -1.7920  1.4534
    6SAPS   C13  672   0.333   1.706  10.701 -0.4123 -0.3975 -0.2248
    6SAPS  O13A  673   0.266   1.641  10.614 -0.5306 -0.9105 -0.0049
    6SAPS  O13B  674   0.293   1.715  10.817  0.3720 -0.3954 -0.5100
    6SAPS   C11  675   0.564   1.795  10.736 -0.1396  0.9220  0.0812
    6SAPS  H11A  676   0.608   1.693  10.748  1.7955  1.7809  0.5503
    6SAPS  H11B  677   0.533   1.817  10.840 -0.6636  1.2085 -0.1371
    6SAPS     P  678   0.706   2.019  10.757 -0.2440  0.7788 -0.0639
    6SAPS   O13  679   0.592   2.113  10.732  0.0708 -0.5574 -0.1377
    6SAPS   O14  680   0.740   2.004  10.900 -0.4677  0.1948 -0.6550
    6SAPS   O12  681   0.673   1.878  10.686 -0.2200  0.6034 -0.8519
    6SAPS   O11  682   0.830   2.062  10.667 -0.0683  0.1103 -0.1846
    6SAPS    C1  683   0.928   1.976  10.619  0.2602 -0.0637 -0.4525
    6SAPS    HA  684   1.022   1.984  10.678 -0.0614 -1.4402  0.2677
    6SAPS    HB  685   0.902   1.868  10.625 -0.0816 -0.0147 -0.9986
    6SAPS    C2  686   0.951   2.007  10.474 -0.4831 -0.3557 -0.3766
    6SAPS    HS  687   1.026   1.941  10.426  0.2037 -0.2900  0.5790
    6SAPS   O21  688   0.987   2.143  10.448  0.6414 -0.0271  0.5225
    6SAPS   C21  689   1.112   2.175  10.474  0.3611  0.0787  0.4823
    6SAPS   O22  690   1.194   2.099  10.525  0.4146  0.5050 -0.1259
    6SAPS   C22  691   1.128   2.320  10.443  0.1918  0.3017 -0.3235
    6SAPS   H2R  692   1.036   2.368  10.404 -0.4851  0.5423  1.5133
    6SAPS   H2S  693   1.146   2.370  10.540 -1.0549 -2.0589  1.1838
    6SAPS    C3  694   0.822   1.975  10.403 -0.3952  0.0477 -0.3735
    6SAPS    HX  695   0.757   2.065  10.412  0.4420  0.6644 -0.3385
    6SAPS    HY  696   0.763   1.898  10.455 -1.6157 -1.8426 -4.3799
    6SAPS   O31  697   0.847   1.933  10.264 -0.6019  0.0248  0.3343
    6SAPS   C31  698   0.732   1.877  10.205 -0.2030 -0.4799 -0.0136
    6SAPS   O32  699   0.627   1.876  10.270  0.3038 -0.0212  0.4504
    6SAPS   C32  700   0.753   1.858  10.056 -0.8733 -0.1627  0.7975
    6SAPS   H2X  701   0.856   1.821  10.036 -0.9872 -1.7710  3.0575
    6SAPS   H2Y  702   0.753   1.953   9.997  2.6638  1.7413  3.6766
    6SAPS   C23  703   1.245   2.347  10.338 -0.2210 -0.9122 -0.8478
    6SAPS   H3R  704   1.335   2.293  10.374  0.6393  0.5179 -0.8162
    6SAPS   H3S  705   1.263   2.456  10.331 -1.1996 -0.4953  2.3481
    6SAPS   C24  706   1.211   2.291  10.201 -0.0963  0.4970 -0.4365
    6SAPS   H4R  707   1.171   2.188  10.216 -0.7435  0.5744 -1.5475
    6SAPS   H4S  708   1.309   2.281  10.148  1.3503  1.7992  1.8847
    6SAPS   C25  709   1.106   2.381  10.130 -0.3644  0.3382 -0.4703
    6SAPS   H5R  710   1.008   2.385  10.179  0.9596 -0.6157  2.4013
    6SAPS   C26  711   1.135   2.460  10.026 -0.8739 -0.2442 -0.3440
    6SAPS   H6R  712   1.053   2.526   9.993  0.3985  1.7271  0.3402
    6SAPS   C27  713   1.254   2.478   9.940  0.2965 -0.8239  0.5017
    6SAPS   H7R  714   1.350   2.441   9.983  1.0076 -0.4360 -0.7268
    6SAPS   H7S  715   1.267   2.587   9.925 -0.1899 -0.6746  1.1447
    6SAPS   C28  716   1.232   2.411   9.810 -1.0641 -0.1927 -0.0580
    6SAPS   H8R  717   1.255   2.303   9.812 -1.1661 -0.2871 -2.5140
    6SAPS   C29  718   1.221   2.460   9.686  0.0584  0.9979 -0.0672
    6SAPS   H9R  719   1.212   2.392   9.599 -0.4547  2.3005 -1.0491
    6SAPS  C210  720   1.214   2.612   9.654  0.3359 -0.7096 -0.1748
    6SAPS  H10R  721   1.170   2.663   9.743 -0.4378  1.0342 -1.5138
    6SAPS  H10S  722   1.145   2.638   9.570 -1.4828  1.2427  1.8477
    6SAPS  C211  723   1.344   2.677   9.627  0.3441 -0.5174  0.1691
    6SAPS  H11R  724   1.400   2.682   9.721 -0.6183 -0.4118  0.7462
    6SAPS  C212  725   1.380   2.747   9.516  0.5227  0.2886 -0.4070
    6SAPS  H12R  726   1.470   2.808   9.535  1.4495 -1.2730  0.3026
    6SAPS  C213  727   1.294   2.778   9.393  0.0978  0.3150 -0.0536
    6SAPS  H13R  728   1.208   2.708   9.387  0.0764  0.3333  0.0370
    6SAPS  H13S  729   1.352   2.760   9.300 -1.7535 -0.6090 -1.0590
    6SAPS  C214  730   1.251   2.921   9.394 -0.0763  0.2257 -0.8196
    6SAPS  H14R  731   1.284   2.988   9.475  1.4631 -1.0402 -0.3929
    6SAPS  C215  732   1.169   2.977   9.306  0.5267 -0.6481 -0.0522
    6SAPS  H15R  733   1.143   3.084   9.318 -0.4659 -1.0995  2.0923
    6SAPS  C216  734   1.097   2.915   9.190 -0.1509  0.2474 -0.0202
    6SAPS  H16R  735   0.994   2.956   9.191  0.7505  2.6701 -1.2822
    6SAPS  H16S  736   1.086   2.806   9.207 -1.1146  0.3064 -0.1944
    6SAPS  C217  737   1.157   2.938   9.051  0.3194  0.1708  0.4641
    6SAPS  H17R  738   1.245   2.872   9.040  0.6752  0.8356 -0.6778
    6SAPS  H17S  739   1.181   3.045   9.038  1.9249 -0.2351  0.0569
    6SAPS  C218  740   1.067   2.909   8.931 -0.1109 -0.1913 -0.0180
    6SAPS  H18R  741   0.967   2.954   8.950  1.0063  2.3801  0.0218
    6SAPS  H18S  742   1.051   2.800   8.922  0.5532 -0.0665 -3.3838
    6SAPS  C219  743   1.117   2.950   8.788  0.2204 -0.1990  0.3397
    6SAPS  H19R  744   1.086   3.054   8.766 -1.3201 -0.5977  0.5499
    6SAPS  H19S  745   1.072   2.881   8.713  2.7075 -1.3131 -0.1629
    6SAPS  C220  746   1.273   2.934   8.776 -1.0026 -0.5346  0.3581
    6SAPS  H20R  747   1.313   2.953   8.674 -3.5919 -0.4002 -0.6539
    6SAPS  H20S  748   1.305   2.829   8.798 -3.6917 -1.5749 -0.5019
    6SAPS  H20T  749   1.322   2.995   8.855  0.2525  0.4912 -1.1794
    6SAPS   C33  750   0.645   1.775   9.984 -0.6803 -0.1930  0.0367
    6SAPS   H3X  751   0.552   1.836   9.993  0.7413  1.9582  0.5666
    6SAPS   H3Y  752   0.621   1.679  10.035 -2.1577  0.0825 -0.1080
    6SAPS   C34  753   0.674   1.742   9.837 -0.2605  0.3826  0.2688
    6SAPS   H4X  754   0.718   1.829   9.783  0.9956  0.0078  0.6758
    6SAPS   H4Y  755   0.573   1.728   9.793 -1.1672  1.2044  2.0614
    6SAPS   C35  756   0.763   1.622   9.831  0.3482  0.6451  0.6082
    6SAPS   H5X  757   0.705   1.529   9.811  2.7267 -0.1714 -3.0430
    6SAPS   H5Y  758   0.827   1.595   9.917  4.2970  1.0889 -2.0433
    6SAPS   C36  759   0.858   1.622   9.703 -0.0030  0.2372  0.1007
    6SAPS   H6X  760   0.955   1.568   9.708 -0.4823 -0.5353  1.4026
    6SAPS   H6Y  761   0.881   1.731   9.698  0.4016  0.1920  0.8545
    6SAPS   C37  762   0.788   1.578   9.567  0.0537  0.2857 -0.3744
    6SAPS   H7X  763   0.692   1.633   9.554 -1.5336 -2.7852 -2.1291
    6SAPS   H7Y  764   0.766   1.469   9.561 -0.6170  0.1823  2.7927
    6SAPS   C38  765   0.873   1.612   9.446 -0.1697  0.7443  0.2302
    6SAPS   H8X  766   0.974   1.566   9.455 -0.6500 -0.4466 -0.2439
    6SAPS   H8Y  767   0.892   1.720   9.432  0.4953  0.5783 -0.2015
    6SAPS   C39  768   0.815   1.554   9.321 -0.4785  0.0476 -0.3274
    6SAPS   H9X  769   0.721   1.604   9.288  0.9639  2.1161 -1.4153
    6SAPS   H9Y  770   0.807   1.445   9.342  2.3775 -0.5974 -2.4325
    6SAPS  C310  771   0.913   1.563   9.203 -0.2730 -0.4326  0.1468
    6SAPS  H10X  772   1.015   1.530   9.234 -0.1491 -0.8073 -0.6536
    6SAPS  H10Y  773   0.907   1.669   9.172 -0.5086 -0.7571 -0.9333
    6SAPS  C311  774   0.880   1.466   9.086 -0.2044 -0.6627 -0.2984
    6SAPS  H11X  775   0.790   1.506   9.036  1.5142  2.5559 -0.9734
    6SAPS  H11Y  776   0.856   1.372   9.140 -0.4451 -0.0209  0.7466
    6SAPS  C312  777   0.995   1.453   8.981 -0.3285  0.2915 -0.2120
    6SAPS  H12X  778   1.075   1.408   9.044  0.5199 -1.0084 -2.1541
    6SAPS  H12Y  779   1.022   1.554   8.943  3.7590 -0.0828  1.3603
    6SAPS  C313  780   0.963   1.353   8.866  0.0683  0.6945  0.5664
    6SAPS  H13X  781   0.872   1.373   8.804 -0.2438 -0.6825  0.5587
    6SAPS  H13Y  782   0.951   1.250   8.907  2.6502 -1.0809 -2.8580
    6SAPS  C314  783   1.076   1.328   8.765 -0.7544 -0.0627 -0.3133
    6SAPS  H14X  784   1.053   1.236   8.707 -1.0498 -0.5480  0.5592
    6SAPS  H14Y  785   1.169   1.322   8.825  0.9467  0.1062 -2.8630
    6SAPS  C315  786   1.077   1.451   8.669 -0.1724  0.3638  0.2027
    6SAPS  H15X  787   1.174   1.454   8.615 -1.4407  2.9479 -2.1069
    6SAPS  H15Y  788   1.050   1.543   8.725 -0.4441  0.2546  0.2508
    6SAPS  C316  789   0.963   1.442   8.560  0.6702  0.5017 -1.0240
    6SAPS  H16X  790   0.968   1.523   8.484 -0.1926 -0.6679 -2.3460
    6SAPS  H16Y  791   0.864   1.437   8.608  1.1602 -1.8256 -0.1804
    6SAPS  C317  792   0.969   1.319   8.468 -0.9082 -0.2392 -0.6366
    6SAPS  H17X  793   0.903   1.340   8.381 -2.5253 -2.8996 -0.1145
    6SAPS  H17Y  794   0.944   1.222   8.516 -1.2738 -1.3616 -2.9857
    6SAPS  C318  795   1.108   1.289   8.402  0.9163 -0.0658 -0.0722
    6SAPS  H18X  796   1.145   1.362   8.327  1.4588 -1.1315 -0.8400
    6SAPS  H18Y  797   1.116   1.191   8.350 -2.9826 -1.7862  2.4003
    6SAPS  H18Z  798   1.183   1.290   8.484 -2.1307 -1.5851  2.8442
    7SAPS     N  799   2.897   3.834  10.848 -0.0808  0.3898  0.0884
    7SAPS   HN1  800   2.859   3.914  10.793  0.7124  0.3333 -0.5460
    7SAPS   HN2  801   2.842   3.821  10.935  0.4566 -0.6142  0.2776
    7SAPS   HN3  802   2.995   3.851  10.878 -0.1556  0.3169  0.3743
    7SAPS   C12  803   2.895   3.720  10.754  0.4826  0.6890 -0.0067
    7SAPS  H12A  804   2.971   3.739  10.679 -0.0166  1.4623 -0.3233
    7SAPS   C13  805   2.945   3.592  10.816 -0.1043  0.1711 -0.0719
    7SAPS  O13A  806   2.988   3.585  10.935  0.3781 -0.2223 -0.4508
    7SAPS  O13B  807   2.958   3.493  10.738  0.2050 -0.2909 -0.1474
    7SAPS   C11  808   2.749   3.709  10.697 -0.4858  0.1142  0.7040
    7SAPS  H11A  809   2.684   3.709  10.787 -0.5227  0.5035  0.6759
    7SAPS  H11B  810   2.738   3.619  10.633 -2.4390  0.3849  0.6253
    7SAPS     P  811   2.576   3.822  10.540  0.5144  0.1335 -0.2255
    7SAPS   O13  812   2.497   3.707  10.582 -0.4971 -0.2249 -0.0196
    7SAPS   O14  813   2.519   3.964  10.540  0.4365  0.9345 -0.3061
    7SAPS   O12  814   2.709   3.828  10.629 -0.1038  0.3854 -0.7117
    7SAPS   O11  815   2.641   3.795  10.403  0.3338  0.4089  0.0709
    7SAPS    C1  816   2.738   3.893  10.345  0.3166 -0.4649  0.0507
    7SAPS    HA  817   2.693   3.962  10.272  1.8988 -0.4479 -0.9488
    7SAPS    HB  818   2.789   3.954  10.423  1.1646 -0.2882 -0.6264
    7SAPS    C2  819   2.847   3.809  10.276  0.9924 -0.2553 -0.0768
    7SAPS    HS  820   2.925   3.876  10.232 -0.4048  0.2258 -1.9184
    7SAPS   O21  821   2.789   3.718  10.171 -0.5061 -0.3282 -0.0807
    7SAPS   C21  822   2.785   3.792  10.056 -0.4494  0.5370 -0.3313
    7SAPS   O22  823   2.809   3.911  10.040  0.0381  0.2081  0.2032
    7SAPS   C22  824   2.769   3.690   9.940 -0.1733 -0.1976 -0.3029
    7SAPS   H2R  825   2.719   3.757   9.868  0.7798 -1.1175 -1.8491
    7SAPS   H2S  826   2.872   3.672   9.901 -0.5647  0.5112 -1.6781
    7SAPS    C3  827   2.915   3.717  10.378 -0.4172 -0.2861 -0.3484
    7SAPS    HX  828   2.839   3.649  10.421  0.5160 -0.0222  1.7650
    7SAPS    HY  829   2.955   3.770  10.467 -3.1864  0.7462  0.3448
    7SAPS   O31  830   3.037   3.653  10.332 -0.1838  0.0724 -0.2644
    7SAPS   C31  831   3.042   3.521  10.316  0.0737 -0.0763 -0.9883
    7SAPS   O32  832   2.956   3.440  10.332  0.3942  0.7551 -0.3194
    7SAPS   C32  833   3.189   3.487  10.281  0.6369 -0.8023  0.0371
    7SAPS   H2X  834   3.190   3.376  10.281 -1.5599 -0.8527 -1.3324
    7SAPS   H2Y  835   3.265   3.533  10.348  0.7508 -1.1581  0.1493
    7SAPS   C23  836   2.687   3.561   9.960 -0.4519  0.5216  0.0841
    7SAPS   H3R  837   2.580   3.587   9.973 -0.1463  0.8456  2.0050
    7SAPS   H3S  838   2.725   3.518  10.054  0.7537  2.9818  0.7656
    7SAPS   C24  839   2.705   3.459   9.852 -0.1012  0.4481  0.1240
    7SAPS   H4R  840   2.643   3.367   9.860 -1.6650  1.2659 -1.9359
    7SAPS   H4S  841   2.810   3.424   9.849 -0.5264 -0.8707  0.3088
    7SAPS   C25  842   2.674   3.512   9.711  0.2077  0.1876  0.0333
    7SAPS   H5R  843   2.565   3.506   9.696  0.3424  0.0043 -0.8896
    7SAPS   C26  844   2.758   3.545   9.613 -0.5184 -0.3764  0.0001
    7SAPS   H6R  845   2.713   3.591   9.524  0.2471  1.2854  0.4569
    7SAPS   C27  846   2.911   3.528   9.624 -0.2569  0.5045  0.8771
    7SAPS   H7R  847   2.939   3.475   9.717 -1.2674 -1.7614 -0.0617
    7SAPS   H7S  848   2.962   3.627   9.631  1.3609 -0.1264 -1.3939
    7SAPS   C28  849   2.974   3.448   9.509 -0.2177 -0.0347  0.6835
    7SAPS   H8R  850   2.910   3.371   9.463  1.2923 -0.6381 -0.4714
    7SAPS   C29  851   3.101   3.459   9.469 -1.0954  0.4192  0.7635
    7SAPS   H9R  852   3.129   3.394   9.384  1.4090  0.8580  1.2009
    7SAPS  C210  853   3.210   3.548   9.528  0.1033  0.7426  0.3396
    7SAPS  H10R  854   3.306   3.491   9.533  0.0474  0.5238 -0.9067
    7SAPS  H10S  855   3.193   3.562   9.637 -3.2779  0.7207 -0.1490
    7SAPS  C211  856   3.222   3.682   9.460  0.0537 -0.1393  0.2398
    7SAPS  H11R  857   3.165   3.762   9.510 -0.1360  1.1893 -2.0151
    7SAPS  C212  858   3.297   3.700   9.356 -0.8423  0.1881  0.1864
    7SAPS  H12R  859   3.296   3.796   9.301 -0.5018 -1.0726 -2.0840
    7SAPS  C213  860   3.390   3.603   9.278  0.5753 -0.0937 -0.4204
    7SAPS  H13R  861   3.324   3.561   9.199 -0.4982  0.3785  0.2159
    7SAPS  H13S  862   3.415   3.513   9.337 -0.9668  0.2852  0.8562
    7SAPS  C214  863   3.511   3.672   9.216 -0.2376 -0.4787 -0.1694
    7SAPS  H14R  864   3.495   3.756   9.147 -0.1466 -0.7437 -0.5167
    7SAPS  C215  865   3.639   3.629   9.240  0.0615  0.0700 -0.5502
    7SAPS  H15R  866   3.722   3.685   9.195 -1.3527  2.3205 -0.4887
    7SAPS  C216  867   3.674   3.520   9.338  0.1211  0.1951 -0.1013
    7SAPS  H16R  868   3.750   3.455   9.291 -0.7117 -0.9452  0.0872
    7SAPS  H16S  869   3.589   3.452   9.363  1.4609 -1.0822  1.0313
    7SAPS  C217  870   3.751   3.563   9.462  0.5372 -0.5266  0.4022
    7SAPS  H17R  871   3.692   3.629   9.530  1.0461  0.8156 -0.4336
    7SAPS  H17S  872   3.847   3.615   9.439  0.8469 -0.3712  1.9474
    7SAPS  C218  873   3.799   3.443   9.548 -0.5397  0.1135 -0.9161
    7SAPS  H18R  874   3.877   3.392   9.487  0.0868 -1.7515  1.3511
    7SAPS  H18S  875   3.703   3.389   9.567 -0.9167  0.8013 -0.8357
    7SAPS  C219  876   3.846   3.475   9.690 -0.1801  0.1533 -0.3326
    7SAPS  H19R  877   3.821   3.385   9.750 -0.7187  1.8178  2.0366
    7SAPS  H19S  878   3.789   3.561   9.733 -0.5457 -0.5358  0.5809
    7SAPS  C220  879   3.992   3.507   9.709  0.5889 -0.3433  0.5327
    7SAPS  H20R  880   4.024   3.590   9.643  1.5102 -0.5925  0.6689
    7SAPS  H20S  881   4.047   3.413   9.688 -1.5580 -1.4433 -0.4165
    7SAPS  H20T  882   4.026   3.541   9.809  0.3338  0.7037  0.2718
    7SAPS   C33  883   3.226   3.547  10.140  0.1412 -0.2214  0.5739
    7SAPS   H3X  884   3.222   3.657  10.135  1.1509 -0.3084 -3.1117
    7SAPS   H3Y  885   3.153   3.504  10.068 -0.2585  2.2345 -0.5055
    7SAPS   C34  886   3.361   3.496  10.105 -0.2145  0.1214 -0.1686
    7SAPS   H4X  887   3.357   3.385  10.109  0.5102  0.0887 -0.3846
    7SAPS   H4Y  888   3.427   3.538  10.184 -0.4120 -0.8741  0.5248
    7SAPS   C35  889   3.404   3.548   9.972 -0.5778  0.8495  0.0329
    7SAPS   H5X  890   3.509   3.586   9.971  0.2034 -1.2512  0.1218
    7SAPS   H5Y  891   3.325   3.618   9.938 -0.4299  0.8437 -0.3221
    7SAPS   C36  892   3.399   3.443   9.853 -0.1748 -0.4213  0.7245
    7SAPS   H6X  893   3.438   3.489   9.760  1.3755 -4.1811 -0.5752
    7SAPS   H6Y  894   3.295   3.415   9.826 -0.6232  1.0861  0.8936
    7SAPS   C37  895   3.478   3.313   9.876  0.6289  0.2190 -0.3907
    7SAPS   H7X  896   3.419   3.252   9.947  1.2834 -0.1966 -0.2041
    7SAPS   H7Y  897   3.578   3.337   9.918  1.7749 -0.6079 -2.5665
    7SAPS   C38  898   3.507   3.224   9.760 -0.1009  0.0737 -0.0280
    7SAPS   H8X  899   3.553   3.134   9.807  2.3017  2.1974  1.8294
    7SAPS   H8Y  900   3.585   3.267   9.693 -1.8204  3.6416  0.1493
    7SAPS   C39  901   3.387   3.187   9.679 -0.6262  0.0618  0.7837
    7SAPS   H9X  902   3.342   3.279   9.637 -0.4959  0.2717  1.0966
    7SAPS   H9Y  903   3.312   3.141   9.747 -2.7152 -0.8226 -2.0294
    7SAPS  C310  904   3.417   3.089   9.564 -0.1374  0.0436  0.3345
    7SAPS  H10X  905   3.328   3.026   9.541  0.1361 -0.8942  1.7645
    7SAPS  H10Y  906   3.505   3.024   9.583  0.0114  0.1297 -0.0562
    7SAPS  C311  907   3.446   3.162   9.434  0.4069 -0.8714  0.2445
    7SAPS  H11X  908   3.530   3.229   9.462  0.3018 -1.1498  1.2286
    7SAPS  H11Y  909   3.352   3.219   9.413  0.4066 -1.6974 -2.2194
    7SAPS  C312  910   3.482   3.083   9.309  0.0635 -0.4550  0.3265
    7SAPS  H12X  911   3.426   2.988   9.296  0.3396 -0.6033  0.2208
    7SAPS  H12Y  912   3.590   3.056   9.308  0.2456  0.3038 -1.1904
    7SAPS  C313  913   3.454   3.178   9.192  0.5711 -0.6721  0.0505
    7SAPS  H13X  914   3.487   3.279   9.224 -0.1410 -0.4083 -0.0320
    7SAPS  H13Y  915   3.345   3.193   9.178  0.5369  0.2382  1.2177
    7SAPS  C314  916   3.527   3.152   9.063  0.1797 -0.2801  0.4697
    7SAPS  H14X  917   3.512   3.050   9.021  1.8276 -1.0094  1.6147
    7SAPS  H14Y  918   3.637   3.167   9.066  0.1619  1.2302 -3.3572
    7SAPS  C315  919   3.482   3.252   8.958 -1.0382  0.4226 -0.6240
    7SAPS  H15X  920   3.541   3.214   8.872 -1.3839 -0.4613 -0.4730
    7SAPS  H15Y  921   3.512   3.353   8.992  3.9956 -1.2244  0.2975
    7SAPS  C316  922   3.331   3.248   8.907 -0.2302  0.6462 -0.0064
    7SAPS  H16X  923   3.257   3.301   8.971 -1.4559 -1.0193  0.0219
    7SAPS  H16Y  924   3.289   3.145   8.909 -0.2587  0.6243 -1.3261
    7SAPS  C317  925   3.320   3.307   8.763 -0.4528  0.4667  0.2591
    7SAPS  H17X  926   3.212   3.304   8.739 -0.0481  2.2509 -1.9385
    7SAPS  H17Y  927   3.374   3.244   8.688  1.4711  1.0488  1.1391
    7SAPS  C318  928   3.373   3.451   8.751  0.1470 -0.0418  0.4778
    7SAPS  H18X  929   3.322   3.519   8.822 -0.7228 -0.3391  0.1368
    7SAPS  H18Y  930   3.361   3.483   8.645 -0.4640 -2.7237 -0.2984
    7SAPS  H18Z  931   3.481   3.453   8.776  0.0032  1.3793  1.0328
    8SAPS     N  932   0.218   4.457  11.334  0.3211 -0.0495 -0.2498
    8SAPS   HN1  933   0.127   4.504  11.317  1.1916  1.9610  0.5675
    8SAPS   HN2  934   0.251   4.451  11.432 -1.0840 -1.3932  0.1667
    8SAPS   HN3  935   0.286   4.516  11.282  0.5129 -0.6447 -0.6848
    8SAPS   C12  936   0.214   4.314  11.264 -0.2047 -0.4492  0.0010
    8SAPS  H12A  937   0.303   4.260  11.293  0.5140  0.5740 -0.2460
    8SAPS   C13  938   0.088   4.234  11.301  0.6185 -0.1221 -0.6687
    8SAPS  O13A  939  -0.008   4.300  11.358  0.5295 -0.3150  0.0621
    8SAPS  O13B  940   0.067   4.117  11.262 -0.3092  0.1927 -0.3644
    8SAPS   C11  941   0.222   4.338  11.116  0.1079 -0.0505  0.3422
    8SAPS  H11A  942   0.122   4.379  11.088 -0.6727 -1.9027  0.3490
    8SAPS  H11B  943   0.235   4.245  11.057  0.0385 -0.1023  0.4097
    8SAPS     P  944   0.462   4.411  11.040 -0.1450 -0.3923 -0.0651
    8SAPS   O13  945   0.547   4.529  11.070  0.4927  0.1644  0.2830
    8SAPS   O14  946   0.502   4.284  11.100  0.3576 -0.0740 -0.4013
    8SAPS   O12  947   0.314   4.442  11.088 -0.1773 -0.5039 -0.0337
    8SAPS   O11  948   0.458   4.380  10.881 -0.4174  0.3269 -0.6999
    8SAPS    C1  949   0.441   4.493  10.797 -0.4047  0.2898 -0.0781
    8SAPS    HA  950   0.339   4.538  10.801 -1.1868 -0.5047 -6.3383
    8SAPS    HB  951   0.505   4.580  10.821 -1.8987  0.8229  2.1555
    8SAPS    C2  952   0.462   4.448  10.648  0.2537 -0.4386  0.1101
    8SAPS    HS  953   0.439   4.526  10.572  1.3142  1.1776  1.4332
    8SAPS   O21  954   0.396   4.330  10.622 -0.3956  0.0770  0.8301
    8SAPS   C21  955   0.263   4.331  10.648 -0.4000 -0.1622 -0.3836
    8SAPS   O22  956   0.192   4.427  10.659 -0.5375  0.3118  0.3055
    8SAPS   C22  957   0.215   4.186  10.653  0.0537 -0.1343 -0.3863
    8SAPS   H2R  958   0.225   4.136  10.554 -0.2524 -2.1641  0.5628
    8SAPS   H2S  959   0.275   4.142  10.736 -0.3515  0.5889  0.2950
    8SAPS    C3  960   0.613   4.425  10.619  0.1959  0.3353  0.4813
    8SAPS    HX  961   0.653   4.340  10.679  1.1014 -0.3427 -1.0331
    8SAPS    HY  962   0.659   4.520  10.653  1.8913  0.2503 -1.4516
    8SAPS   O31  963   0.652   4.412  10.477  0.2286  0.1019 -0.0837
    8SAPS   C31  964   0.663   4.527  10.403  0.4676 -0.0190 -0.5400
    8SAPS   O32  965   0.647   4.637  10.455 -0.4530 -0.0155  1.0238
    8SAPS   C32  966   0.703   4.502  10.251 -0.4048  0.5730 -0.5263
    8SAPS   H2X  967   0.635   4.418  10.225  2.6007 -2.2390  0.2887
    8SAPS   H2Y  968   0.809   4.471  10.247 -0.3439  0.9138 -1.5964
    8SAPS   C23  969   0.066   4.185  10.690 -0.2513 -1.0365 -0.0883
    8SAPS   H3R  970   0.043   4.261  10.768  1.0190 -3.1973  2.4855
    8SAPS   H3S  971   0.036   4.084  10.724  1.0969 -0.8094  1.8635
    8SAPS   C24  972  -0.018   4.222  10.565  0.4439  0.2800 -0.2057
    8SAPS   H4R  973   0.046   4.278  10.493  1.7249 -2.6726 -1.4576
    8SAPS   H4S  974  -0.096   4.285  10.612  1.8341  2.2866 -0.5378
    8SAPS   C25  975  -0.079   4.106  10.494  0.0769  0.0982  0.0896
    8SAPS   H5R  976  -0.138   4.044  10.562 -0.5003  0.8372  0.2604
    8SAPS   C26  977  -0.057   4.063  10.377 -0.6290 -0.2177 -0.4632
    8SAPS   H6R  978  -0.109   3.970  10.353  1.0153 -1.5378  0.9939
    8SAPS   C27  979   0.041   4.122  10.280  0.5527  0.8551 -0.3755
    8SAPS   H7R  980   0.096   4.043  10.225 -2.2234 -1.7338  0.4832
    8SAPS   H7S  981   0.115   4.189  10.330 -1.2327  0.7315  2.5329
    8SAPS   C28  982  -0.035   4.206  10.187 -0.2083 -0.0245  0.2101
    8SAPS   H8R  983  -0.096   4.282  10.238 -1.4736 -0.2822 -0.8766
    8SAPS   C29  984  -0.026   4.197  10.050 -0.1123 -0.4967 -0.1437
    8SAPS   H9R  985  -0.091   4.257   9.986 -2.7499 -4.2420 -1.1362
    8SAPS  C210  986   0.070   4.106   9.979  0.3821  0.7375  0.7209
    8SAPS  H10R  987   0.100   4.020  10.042  0.6182 -0.0737 -0.4791
    8SAPS  H10S  988   0.161   4.160   9.947  0.8417  0.7475  2.0393
    8SAPS  C211  989   0.007   4.048   9.855 -0.1453  0.4366 -0.1119
    8SAPS  H11R  990  -0.091   4.001   9.868  0.3647 -0.0618  2.1668
    8SAPS  C212  991   0.060   4.034   9.733 -0.0994 -0.6594 -0.6358
    8SAPS  H12R  992  -0.002   3.985   9.656 -0.3126  0.3378 -1.0988
    8SAPS  C213  993   0.196   4.084   9.686 -0.2545 -0.5848 -0.5043
    8SAPS  H13R  994   0.212   4.169   9.755  0.1003  1.1682 -2.6869
    8SAPS  H13S  995   0.175   4.119   9.583 -2.0762 -0.1614 -0.0249
    8SAPS  C214  996   0.305   3.980   9.690  0.2116 -0.8535 -0.7206
    8SAPS  H14R  997   0.314   3.917   9.779  2.5791  2.5345  1.5399
    8SAPS  C215  998   0.400   3.956   9.603 -0.5533  0.9532  0.5115
    8SAPS  H15R  999   0.476   3.887   9.642  0.4153  1.2305 -0.8640
    8SAPS  C216 1000   0.429   4.023   9.476  0.8284 -0.1446 -0.4130
    8SAPS  H16R 1001   0.521   3.972   9.442  0.2000 -2.5013  1.3370
    8SAPS  H16S 1002   0.442   4.129   9.508 -0.5469 -0.2030  0.3923
    8SAPS  C217 1003   0.313   4.013   9.370 -0.1479 -0.2404 -0.7357
    8SAPS  H17R 1004   0.226   4.078   9.393  0.8118  1.1922 -1.0959
    8SAPS  H17S 1005   0.275   3.909   9.369 -0.0454 -0.2995  0.4447
    8SAPS  C218 1006   0.359   4.036   9.225 -0.5724  0.7947  0.1994
    8SAPS  H18R 1007   0.437   3.964   9.194 -0.4759  1.7540 -1.8138
    8SAPS  H18S 1008   0.394   4.142   9.220  0.6139  0.2853 -2.5804
    8SAPS  C219 1009   0.251   4.023   9.127 -0.3002  0.0978 -0.5848
    8SAPS  H19R 1010   0.165   4.091   9.142 -0.4735 -0.1457 -0.4789
    8SAPS  H19S 1011   0.212   3.920   9.144 -0.4963  0.3437  0.4710
    8SAPS  C220 1012   0.303   4.039   8.985  0.1128  0.6160 -0.2398
    8SAPS  H20R 1013   0.366   4.129   8.969  3.3493 -1.8122 -1.7796
    8SAPS  H20S 1014   0.219   4.044   8.913  0.2446  0.7575 -0.3852
    8SAPS  H20T 1015   0.361   3.948   8.956 -1.6209 -1.5431  2.7473
    8SAPS   C33 1016   0.682   4.626  10.154 -0.0776  0.6380  0.4442
    8SAPS   H3X 1017   0.770   4.692  10.165 -0.6555  1.3471  0.8346
    8SAPS   H3Y 1018   0.585   4.679  10.164 -0.0927  0.5625  0.7046
    8SAPS   C34 1019   0.685   4.570  10.009  0.1332 -0.1341  0.1748
    8SAPS   H4X 1020   0.594   4.509   9.993  0.0019  0.1418 -0.1407
    8SAPS   H4Y 1021   0.776   4.509   9.988 -0.5727 -1.0023 -0.3717
    8SAPS   C35 1022   0.685   4.680   9.908  0.0399 -0.0041  0.5429
    8SAPS   H5X 1023   0.756   4.761   9.936 -2.3959  2.2482  0.3673
    8SAPS   H5Y 1024   0.590   4.738   9.914 -0.5219 -0.7285 -1.0644
    8SAPS   C36 1025   0.722   4.631   9.773 -0.4286  0.1979 -0.2057
    8SAPS   H6X 1026   0.640   4.571   9.728  0.2321 -0.6166 -0.3472
    8SAPS   H6Y 1027   0.807   4.560   9.785 -1.4057 -1.0380 -0.5266
    8SAPS   C37 1028   0.775   4.738   9.682 -0.1344  0.0949  0.0268
    8SAPS   H7X 1029   0.838   4.809   9.739  1.9584 -2.6483  1.2775
    8SAPS   H7Y 1030   0.694   4.806   9.647  0.6783  0.0443 -2.0205
    8SAPS   C38 1031   0.857   4.683   9.563  0.0270  0.0632  0.7283
    8SAPS   H8X 1032   0.870   4.758   9.482  0.0423 -0.3050  0.3867
    8SAPS   H8Y 1033   0.786   4.617   9.508  0.4362  0.6381 -0.5141
    8SAPS   C39 1034   0.989   4.613   9.593  0.3393  0.3196  0.9938
    8SAPS   H9X 1035   0.955   4.508   9.609  1.5923  0.0159  1.7851
    8SAPS   H9Y 1036   1.035   4.663   9.681  0.5354  0.1784  0.9720
    8SAPS  C310 1037   1.075   4.594   9.463  0.1485  0.2171 -0.1391
    8SAPS  H10X 1038   1.162   4.532   9.492  0.7353  1.8606  1.7264
    8SAPS  H10Y 1039   1.098   4.694   9.421 -0.1165  0.4784  0.3316
    8SAPS  C311 1040   1.004   4.521   9.353  0.2035  0.3952 -0.4578
    8SAPS  H11X 1041   0.900   4.558   9.346  1.1062  3.1780  0.4450
    8SAPS  H11Y 1042   1.003   4.410   9.361 -1.6759  0.3430 -1.2694
    8SAPS  C312 1043   1.067   4.533   9.212 -0.3333  0.6396 -0.1953
    8SAPS  H12X 1044   1.167   4.483   9.213  0.3706  2.0269  0.2485
    8SAPS  H12Y 1045   1.082   4.640   9.187 -1.6545  0.9811  0.4442
    8SAPS  C313 1046   0.982   4.475   9.099 -0.6569  0.3159 -0.1939
    8SAPS  H13X 1047   0.877   4.506   9.117 -0.2194  0.9953  1.2069
    8SAPS  H13Y 1048   0.988   4.364   9.106 -0.3743  0.3186 -0.4049
    8SAPS  C314 1049   1.029   4.514   8.957 -0.4770 -0.0125  0.8012
    8SAPS  H14X 1050   0.997   4.439   8.880 -0.4538  1.0738 -0.2857
    8SAPS  H14Y 1051   1.140   4.513   8.955 -0.4217  2.0313  2.3112
    8SAPS  C315 1052   0.965   4.646   8.905 -0.6643  0.8559 -0.2564
    8SAPS  H15X 1053   1.000   4.732   8.966  0.3647  0.2367  0.0498
    8SAPS  H15Y 1054   0.855   4.638   8.917 -0.8560 -1.0321 -2.7025
    8SAPS  C316 1055   1.014   4.681   8.766 -0.1727 -0.8236 -0.1670
    8SAPS  H16X 1056   0.989   4.599   8.694 -0.8721 -2.5737  2.0061
    8SAPS  H16Y 1057   1.124   4.693   8.757 -0.6721  1.9358 -3.8678
    8SAPS  C317 1058   0.945   4.820   8.724 -0.1578  1.1726  0.1664
    8SAPS  H17X 1059   0.968   4.896   8.801 -0.5673  0.9466  0.5145
    8SAPS  H17Y 1060   0.835   4.806   8.718  0.1601 -0.8636 -1.7888
    8SAPS  C318 1061   0.994   4.870   8.587 -0.0290 -0.7071 -0.5670
    8SAPS  H18X 1062   0.935   4.954   8.546 -0.6157 -1.8714 -2.2017
    8SAPS  H18Y 1063   0.994   4.792   8.507 -0.1778  0.3696 -1.6216
    8SAPS  H18Z 1064   1.101   4.900   8.599  0.0180 -1.1012  0.0033
    9SAPS     N 1065   3.383   1.676   6.311 -0.1071 -0.0087  0.0842
    9SAPS   HN1 1066   3.291   1.643   6.345  0.1189 -0.8987 -0.1785
    9SAPS   HN2 1067   3.369   1.744   6.233 -0.0442 -0.7220 -0.5466
    9SAPS   HN3 1068   3.424   1.591   6.268  0.2471 -0.9060  2.1234
    9SAPS   C12 1069   3.475   1.720   6.414  0.1548  0.6895  0.1446
    9SAPS  H12A 1070   3.428   1.788   6.484  1.6099  1.0164  0.8143
    9SAPS   C13 1071   3.514   1.602   6.504  0.1138  0.0092 -0.3465
    9SAPS  O13A 1072   3.494   1.478   6.476 -0.6605 -0.1189 -0.4691
    9SAPS  O13B 1073   3.574   1.634   6.614  0.1634 -0.2897  0.4447
    9SAPS   C11 1074   3.603   1.773   6.336  0.9110  0.3983  0.9965
    9SAPS  H11A 1075   3.660   1.691   6.286  1.4176  1.9709 -1.0925
    9SAPS  H11B 1076   3.681   1.810   6.406  1.4401  0.3407  0.4485
    9SAPS     P 1077   3.528   2.017   6.290  0.0617  0.2892  0.1631
    9SAPS   O13 1078   3.545   2.107   6.173  0.5374  0.5124  0.0691
    9SAPS   O14 1079   3.393   2.015   6.351 -0.0606 -0.4009 -0.4202
    9SAPS   O12 1080   3.568   1.873   6.239  0.2055 -0.4170  0.3124
    9SAPS   O11 1081   3.640   2.052   6.394 -0.5195  0.3820  0.1154
    9SAPS    C1 1082   3.611   2.054   6.533 -0.7355 -0.0731  0.3472
    9SAPS    HA 1083   3.511   2.013   6.558  0.1449 -1.3141  1.8725
    9SAPS    HB 1084   3.684   2.001   6.597  0.2117  1.2162  0.3567
    9SAPS    C2 1085   3.608   2.205   6.578  0.2290  0.2724  0.5447
    9SAPS    HS 1086   3.559   2.254   6.491 -1.4687 -2.6472 -0.2130
    9SAPS   O21 1087   3.744   2.251   6.599 -0.4969 -0.6742  0.5316
    9SAPS   C21 1088   3.752   2.382   6.617 -0.6308 -0.7010 -0.1568
    9SAPS   O22 1089   3.667   2.466   6.593  0.0440 -0.0465  0.6481
    9SAPS   C22 1090   3.892   2.409   6.676 -0.1104 -0.4079 -0.5349
    9SAPS   H2R 1091   3.938   2.311   6.701 -0.3461 -0.3174  0.2625
    9SAPS   H2S 1092   3.940   2.461   6.590  0.9738 -1.3698 -0.5284
    9SAPS    C3 1093   3.517   2.224   6.705 -0.0138  0.5777  0.6395
    9SAPS    HX 1094   3.415   2.188   6.680 -0.3899  0.8618  1.7379
    9SAPS    HY 1095   3.506   2.332   6.730  0.7522  0.8792 -0.3160
    9SAPS   O31 1096   3.565   2.160   6.830 -0.6318  0.1913 -0.0165
    9SAPS   C31 1097   3.467   2.145   6.918  0.4484  0.0689 -0.0901
    9SAPS   O32 1098   3.347   2.178   6.903 -0.7224  0.1013 -0.4795
    9SAPS   C32 1099   3.517   2.081   7.039 -0.1562 -0.6032 -0.0861
    9SAPS   H2X 1100   3.569   2.151   7.108  1.0991  0.5122 -2.1265
    9SAPS   H2Y 1101   3.581   1.991   7.026 -0.6504 -1.3079  1.9846
    9SAPS   C23 1102   3.892   2.512   6.794  0.0202  0.1509  0.7175
    9SAPS   H3R 1103   3.867   2.601   6.734  0.0852 -0.2421  0.1023
    9SAPS   H3S 1104   3.993   2.538   6.831  0.6510  0.1492 -0.9591
    9SAPS   C24 1105   3.789   2.486   6.907 -0.6444  0.1200 -0.4135
    9SAPS   H4R 1106   3.686   2.493   6.864 -1.3959 -2.9447  0.7826
    9SAPS   H4S 1107   3.802   2.567   6.982  0.8626  0.9220 -1.5066
    9SAPS   C25 1108   3.809   2.352   6.971  0.7523 -0.5776  0.0664
    9SAPS   H5R 1109   3.818   2.260   6.911 -1.2135 -0.9908  0.3669
    9SAPS   C26 1110   3.811   2.331   7.105 -1.4823  0.0863 -0.2617
    9SAPS   H6R 1111   3.821   2.227   7.139 -0.9167 -0.0393 -0.8072
    9SAPS   C27 1112   3.812   2.436   7.217  0.5676  0.3349 -0.3492
    9SAPS   H7R 1113   3.705   2.461   7.234 -0.5940 -4.0619 -0.7588
    9SAPS   H7S 1114   3.863   2.529   7.184 -0.9717  2.2922  2.5624
    9SAPS   C28 1115   3.874   2.379   7.342  0.5668 -0.3351  0.6053
    9SAPS   H8R 1116   3.979   2.362   7.313 -0.0001  1.2486 -2.5705
    9SAPS   C29 1117   3.829   2.361   7.471 -0.0084 -0.7318 -0.0476
    9SAPS   H9R 1118   3.896   2.306   7.538  0.4778 -1.8560 -1.4221
    9SAPS  C210 1119   3.697   2.407   7.516  0.0092 -0.0069 -0.8402
    9SAPS  H10R 1120   3.648   2.468   7.437 -0.7396  1.5645  0.7900
    9SAPS  H10S 1121   3.709   2.471   7.607 -0.3486 -0.1660 -0.6769
    9SAPS  C211 1122   3.607   2.291   7.537  0.1541  0.3013  0.0026
    9SAPS  H11R 1123   3.591   2.246   7.438  0.2276 -0.4592  0.3333
    9SAPS  C212 1124   3.534   2.257   7.647 -0.0236 -0.4991  0.1238
    9SAPS  H12R 1125   3.464   2.172   7.642 -0.9410  0.2959 -0.8227
    9SAPS  C213 1126   3.553   2.339   7.777  0.0325  0.6585  0.5333
    9SAPS  H13R 1127   3.507   2.441   7.776 -0.5592  0.3928 -0.4717
    9SAPS  H13S 1128   3.661   2.343   7.802 -0.0031  1.0281  0.6383
    9SAPS  C214 1129   3.481   2.262   7.886  0.3915 -0.0176 -0.7093
    9SAPS  H14R 1130   3.377   2.245   7.853 -0.3041  2.1302  0.3104
    9SAPS  C215 1131   3.518   2.238   8.016 -0.2656  0.0802 -0.4243
    9SAPS  H15R 1132   3.459   2.159   8.065  1.4493  0.1190  1.7873
    9SAPS  C216 1133   3.646   2.289   8.081  0.4145 -0.4309  0.0561
    9SAPS  H16R 1134   3.654   2.398   8.063  1.1121 -0.2799  1.2136
    9SAPS  H16S 1135   3.739   2.257   8.029 -0.3137  1.3077 -2.4273
    9SAPS  C217 1136   3.662   2.279   8.232 -0.1325  0.2685 -1.0566
    9SAPS  H17R 1137   3.642   2.174   8.261 -1.7372  0.6527 -0.7023
    9SAPS  H17S 1138   3.601   2.355   8.286  0.7201 -2.0119  3.3648
    9SAPS  C218 1139   3.812   2.304   8.263  0.1264 -0.1010 -0.2380
    9SAPS  H18R 1140   3.868   2.234   8.198  2.5612  1.1384  0.4617
    9SAPS  H18S 1141   3.827   2.266   8.367  0.1331 -1.6510 -0.7994
    9SAPS  C219 1142   3.864   2.446   8.243  0.2504 -0.2721  0.0391
    9SAPS  H19R 1143   3.811   2.510   8.316 -3.1692 -0.7075 -1.9897
    9SAPS  H19S 1144   3.823   2.495   8.152 -1.9252  2.2304  2.2699
    9SAPS  C220 1145   4.018   2.446   8.262 -0.3472  0.3045  0.5047
    9SAPS  H20R 1146   4.064   2.392   8.177 -0.6366  0.2521  0.3784
    9SAPS  H20S 1147   4.045   2.390   8.354 -1.5759 -0.5133  0.3811
    9SAPS  H20T 1148   4.062   2.548   8.258  0.0549  0.0508 -1.8197
    9SAPS   C33 1149   3.398   2.032   7.126  0.3845 -0.2774  0.2408
    9SAPS   H3X 1150   3.307   1.990   7.080  2.3894 -2.1065 -2.1916
    9SAPS   H3Y 1151   3.359   2.126   7.171 -2.0428 -1.2958  0.3269
    9SAPS   C34 1152   3.455   1.934   7.228  0.1474 -0.5838  0.3211
    9SAPS   H4X 1153   3.532   1.987   7.289 -0.5771  2.0823 -0.9854
    9SAPS   H4Y 1154   3.477   1.838   7.178 -1.4460 -0.6801 -0.2086
    9SAPS   C35 1155   3.347   1.888   7.329 -0.1256 -0.5371  0.8145
    9SAPS   H5X 1156   3.288   1.806   7.283  0.6631 -0.2597 -0.7332
    9SAPS   H5Y 1157   3.286   1.981   7.336  2.8970  1.7329 -1.5415
    9SAPS   C36 1158   3.403   1.851   7.466 -0.1014 -0.5380 -0.0183
    9SAPS   H6X 1159   3.463   1.944   7.482 -1.4211  1.0295 -3.6304
    9SAPS   H6Y 1160   3.464   1.758   7.473  0.4212 -0.1073  1.3048
    9SAPS   C37 1161   3.299   1.845   7.574  0.0366 -0.1319  0.3260
    9SAPS   H7X 1162   3.243   1.750   7.566  0.5679 -0.2340 -2.5355
    9SAPS   H7Y 1163   3.228   1.931   7.571 -1.4197 -1.1674  2.9868
    9SAPS   C38 1164   3.359   1.851   7.716  0.3710 -0.5629  0.2451
    9SAPS   H8X 1165   3.418   1.944   7.711 -0.9811  0.2041 -2.4691
    9SAPS   H8Y 1166   3.442   1.778   7.727  0.3440 -0.4514  1.2453
    9SAPS   C39 1167   3.256   1.839   7.835  0.2771  0.9342 -0.0320
    9SAPS   H9X 1168   3.156   1.813   7.795 -0.4748  2.9945  0.4462
    9SAPS   H9Y 1169   3.256   1.937   7.887 -0.0342  0.3055  1.1659
    9SAPS  C310 1170   3.297   1.735   7.950  0.0453  0.3979  0.3494
    9SAPS  H10X 1171   3.402   1.762   7.974 -0.1493  0.6500  0.9102
    9SAPS  H10Y 1172   3.312   1.634   7.907 -0.9703  1.1853 -1.9493
    9SAPS  C311 1173   3.201   1.734   8.065  0.3676  0.3638  0.3632
    9SAPS  H11X 1174   3.236   1.655   8.135  2.3407 -0.1617 -1.1727
    9SAPS  H11Y 1175   3.101   1.705   8.027  0.7191  2.9865 -2.8240
    9SAPS  C312 1176   3.181   1.862   8.139  0.4564 -0.4170  0.4913
    9SAPS  H12X 1177   3.101   1.856   8.215  1.0798 -1.4655  1.0813
    9SAPS  H12Y 1178   3.162   1.937   8.060  0.8940 -2.5222 -1.6813
    9SAPS  C313 1179   3.313   1.901   8.216 -0.5287  0.1322 -0.5778
    9SAPS  H13X 1180   3.384   1.931   8.136  0.7304 -0.6574  0.2026
    9SAPS  H13Y 1181   3.355   1.813   8.270 -0.0031 -1.0709 -2.8506
    9SAPS  C314 1182   3.285   2.001   8.334 -0.2047 -0.2421  1.1937
    9SAPS  H14X 1183   3.379   2.032   8.383 -0.3142  1.3511  0.4357
    9SAPS  H14Y 1184   3.219   1.953   8.409 -1.7289  0.1579  0.1395
    9SAPS  C315 1185   3.209   2.127   8.272 -0.1827  0.0144  0.1849
    9SAPS  H15X 1186   3.105   2.093   8.259 -0.7053  2.4426 -2.4318
    9SAPS  H15Y 1187   3.240   2.161   8.171 -0.9118  0.4595  0.1128
    9SAPS  C316 1188   3.208   2.241   8.363 -0.1961 -0.6584 -0.3889
    9SAPS  H16X 1189   3.220   2.200   8.466 -2.2570 -0.6730 -0.1466
    9SAPS  H16Y 1190   3.114   2.300   8.360  0.1891 -0.0463 -0.5937
    9SAPS  C317 1191   3.331   2.334   8.349 -0.4486  0.0445  0.0931
    9SAPS  H17X 1192   3.319   2.390   8.254  0.6834  0.2052  0.0378
    9SAPS  H17Y 1193   3.406   2.252   8.341 -1.2267 -0.5587 -1.1040
    9SAPS  C318 1194   3.356   2.429   8.460 -0.3073 -1.0130  0.0035
    9SAPS  H18X 1195   3.444   2.405   8.524  1.0823  0.6422 -1.2580
    9SAPS  H18Y 1196   3.269   2.428   8.529  0.4120 -0.6066  0.9295
    9SAPS  H18Z 1197   3.357   2.536   8.432  2.3047 -0.7454  1.0018
   10SAPS     N 1198   3.344   1.266   6.361  0.0613  0.2749  0.4501
   10SAPS   HN1 1199   3.242   1.276   6.341  0.1212 -0.4189 -0.2555
   10SAPS   HN2 1200   3.363   1.194   6.434  2.7277  1.8004  1.3311
   10SAPS   HN3 1201   3.385   1.352   6.402  0.8102 -1.1181  2.7083
   10SAPS   C12 1202   3.413   1.209   6.234  0.2242  0.7539 -0.4644
   10SAPS  H12A 1203   3.346   1.140   6.185 -1.1239  1.3801  0.4753
   10SAPS   C13 1204   3.437   1.328   6.132  0.2801  0.0387 -0.4278
   10SAPS  O13A 1205   3.422   1.446   6.169 -0.8352 -0.4845  0.8149
   10SAPS  O13B 1206   3.492   1.289   6.022  0.1404  0.1100 -0.0168
   10SAPS   C11 1207   3.550   1.130   6.273  0.3588  0.3202 -0.1392
   10SAPS  H11A 1208   3.626   1.207   6.298  0.2098  0.0263  1.2484
   10SAPS  H11B 1209   3.591   1.083   6.181 -2.3865  0.3125 -1.4105
   10SAPS     P 1210   3.583   1.036   6.522  0.5774 -0.0454  0.0845
   10SAPS   O13 1211   3.513   1.150   6.596 -0.4834  0.6894  0.2937
   10SAPS   O14 1212   3.553   0.899   6.572  0.3778 -0.0543 -0.0486
   10SAPS   O12 1213   3.531   1.024   6.370  0.6480 -0.5408  0.8222
   10SAPS   O11 1214   3.736   1.057   6.519 -0.0802  0.2414 -0.1588
   10SAPS    C1 1215   3.829   1.013   6.620  0.4227  0.1489  0.0097
   10SAPS    HA 1216   3.799   0.916   6.666  1.9788  0.7173  2.3128
   10SAPS    HB 1217   3.919   0.999   6.555 -0.1933 -0.3880 -0.7377
   10SAPS    C2 1218   3.843   1.116   6.731 -0.1850  0.2123  0.2900
   10SAPS    HS 1219   3.945   1.100   6.772  0.4805  1.9588 -0.6282
   10SAPS   O21 1220   3.741   1.097   6.832  0.7803 -0.2268 -0.0842
   10SAPS   C21 1221   3.771   1.008   6.925  0.8744 -0.1305  0.1633
   10SAPS   O22 1222   3.872   0.945   6.945 -0.7905 -0.6537 -0.0054
   10SAPS   C22 1223   3.637   0.993   7.014 -0.0378  0.1316 -0.3226
   10SAPS   H2R 1224   3.667   0.917   7.089 -0.7194 -1.2004 -1.3802
   10SAPS   H2S 1225   3.611   1.085   7.071 -1.9008  0.1361 -1.1347
   10SAPS    C3 1226   3.837   1.263   6.685  0.5536  0.5228 -0.2735
   10SAPS    HX 1227   3.734   1.295   6.658  1.3458  1.2351 -2.6283
   10SAPS    HY 1228   3.894   1.269   6.590  1.7957  0.9897  0.4820
   10SAPS   O31 1229   3.893   1.363   6.775  0.5528  0.1822 -0.7113
   10SAPS   C31 1230   3.814   1.429   6.861  0.1238  0.7161  0.4891
   10SAPS   O32 1231   3.692   1.408   6.873 -0.0113  0.2464 -0.1224
   10SAPS   C32 1232   3.889   1.529   6.943  0.1321 -0.0339  0.4847
   10SAPS   H2X 1233   3.839   1.628   6.937  0.6024  0.0418 -4.7981
   10SAPS   H2Y 1234   3.996   1.534   6.911 -0.5014 -2.0051 -2.0952
   10SAPS   C23 1235   3.510   0.948   6.932  0.1009 -0.2550 -0.1536
   10SAPS   H3R 1236   3.533   0.854   6.878 -1.7700  0.4297 -2.2169
   10SAPS   H3S 1237   3.480   1.023   6.855 -0.6288  0.7567  1.0925
   10SAPS   C24 1238   3.392   0.920   7.020  0.1527  0.1215 -1.0910
   10SAPS   H4R 1239   3.416   0.834   7.086  0.3977 -0.6146 -2.1294
   10SAPS   H4S 1240   3.307   0.882   6.960 -1.2872  1.6380 -0.0372
   10SAPS   C25 1241   3.331   1.033   7.110 -0.2126  0.6365  0.0762
   10SAPS   H5R 1242   3.267   1.111   7.068 -0.7273 -0.5422 -1.3700
   10SAPS   C26 1243   3.369   1.050   7.236 -0.3046  0.1565  0.3054
   10SAPS   H6R 1244   3.332   1.140   7.287  1.7707  0.4480  1.3593
   10SAPS   C27 1245   3.462   0.963   7.318  0.1221 -0.5551 -0.1176
   10SAPS   H7R 1246   3.545   0.922   7.257  0.3357  1.7116 -1.3969
   10SAPS   H7S 1247   3.397   0.877   7.344 -2.4080  1.2884 -0.1934
   10SAPS   C28 1248   3.536   1.032   7.431  0.1446 -0.3275 -0.3047
   10SAPS   H8R 1249   3.580   1.128   7.399  1.2557 -0.4990  0.6763
   10SAPS   C29 1250   3.563   0.988   7.558  0.7100 -0.3594  0.0805
   10SAPS   H9R 1251   3.638   1.026   7.629  0.8417 -1.4157  0.5147
   10SAPS  C210 1252   3.518   0.856   7.608  0.3710  0.8580 -0.0368
   10SAPS  H10R 1253   3.507   0.787   7.522 -1.0520 -0.4408  1.1712
   10SAPS  H10S 1254   3.416   0.874   7.648  0.9756  1.7582  1.1172
   10SAPS  C211 1255   3.601   0.804   7.725 -0.0400 -0.0579  0.2212
   10SAPS  H11R 1256   3.606   0.869   7.813  2.3720  0.9410 -0.6260
   10SAPS  C212 1257   3.676   0.693   7.732 -0.4433  0.5263 -0.2803
   10SAPS  H12R 1258   3.724   0.666   7.827  1.1822 -1.6043 -1.6670
   10SAPS  C213 1259   3.709   0.592   7.629 -0.0818  0.3206  0.0353
   10SAPS  H13R 1260   3.619   0.576   7.566  0.2998  0.8160 -0.6278
   10SAPS  H13S 1261   3.726   0.490   7.670 -0.8394 -0.2577 -1.0590
   10SAPS  C214 1262   3.831   0.635   7.554  0.0734  0.1694  0.4221
   10SAPS  H14R 1263   3.920   0.627   7.617  0.1675  0.1823  0.2907
   10SAPS  C215 1264   3.848   0.667   7.422  0.0561 -0.0689  0.1378
   10SAPS  H15R 1265   3.942   0.718   7.396  0.6979 -1.6611 -0.7127
   10SAPS  C216 1266   3.747   0.678   7.314  0.8079  0.1544 -0.6714
   10SAPS  H16R 1267   3.731   0.780   7.273 -1.1775  0.0024 -0.3262
   10SAPS  H16S 1268   3.647   0.651   7.354  0.6751  1.7754  0.1201
   10SAPS  C217 1269   3.760   0.589   7.185  0.8348  0.3585  0.2027
   10SAPS  H17R 1270   3.766   0.482   7.213  0.9568  0.5883  1.0565
   10SAPS  H17S 1271   3.854   0.617   7.133  0.3345 -1.2388 -1.6258
   10SAPS  C218 1272   3.637   0.585   7.089 -0.4091 -0.9017 -0.1167
   10SAPS  H18R 1273   3.611   0.676   7.031  0.3680 -0.8926 -0.4436
   10SAPS  H18S 1274   3.540   0.564   7.140 -0.4843 -0.9970 -0.2991
   10SAPS  C219 1275   3.643   0.468   6.988 -0.3977  0.2907  0.4417
   10SAPS  H19R 1276   3.582   0.380   7.017 -0.9008  0.6516  0.4778
   10SAPS  H19S 1277   3.751   0.443   6.984 -0.8158 -1.4176 -0.5535
   10SAPS  C220 1278   3.598   0.509   6.848  0.6390 -0.1606  0.9542
   10SAPS  H20R 1279   3.489   0.491   6.836  0.5759  0.5906  0.3257
   10SAPS  H20S 1280   3.661   0.459   6.771 -1.4117 -2.7396  0.9055
   10SAPS  H20T 1281   3.613   0.619   6.841  0.7596 -0.2439 -0.1880
   10SAPS   C33 1282   3.882   1.475   7.088  0.0326  0.0406  0.0307
   10SAPS   H3X 1283   3.961   1.523   7.149 -1.1739 -0.8401  2.3640
   10SAPS   H3Y 1284   3.895   1.364   7.092 -0.5106 -0.0434 -0.3892
   10SAPS   C34 1285   3.764   1.516   7.172  0.7210  0.1748 -0.5393
   10SAPS   H4X 1286   3.675   1.477   7.117 -0.0633 -0.9581  1.4819
   10SAPS   H4Y 1287   3.757   1.624   7.195  0.9814  0.4811 -1.8832
   10SAPS   C35 1288   3.771   1.448   7.312 -0.0894 -0.5946  0.9422
   10SAPS   H5X 1289   3.861   1.497   7.354  0.3600 -0.0522 -0.6055
   10SAPS   H5Y 1290   3.793   1.339   7.304  1.7103 -0.2215  0.6546
   10SAPS   C36 1291   3.650   1.460   7.411  0.1674 -0.5284 -0.2693
   10SAPS   H6X 1292   3.587   1.372   7.385 -0.3597  0.0769 -1.0866
   10SAPS   H6Y 1293   3.590   1.551   7.390  1.3919  0.5168  0.7073
   10SAPS   C37 1294   3.705   1.440   7.551  0.0835 -0.1516  0.3707
   10SAPS   H7X 1295   3.773   1.517   7.593 -0.1468  0.3699 -0.2170
   10SAPS   H7Y 1296   3.767   1.348   7.556  0.1972  0.0416  3.6557
   10SAPS   C38 1297   3.595   1.431   7.661  0.4707 -0.5184 -0.5414
   10SAPS   H8X 1298   3.539   1.335   7.651  0.7784 -0.5164 -2.6124
   10SAPS   H8Y 1299   3.528   1.519   7.652  1.7451  0.8275  2.5469
   10SAPS   C39 1300   3.659   1.418   7.800 -0.0766  0.2981  0.2751
   10SAPS   H9X 1301   3.717   1.513   7.810  0.1282  0.0115  2.0181
   10SAPS   H9Y 1302   3.721   1.326   7.805 -2.0181 -1.0527 -0.3690
   10SAPS  C310 1303   3.558   1.419   7.909  0.6769 -0.5899  0.1102
   10SAPS  H10X 1304   3.482   1.338   7.900  0.2051 -0.0160 -1.1901
   10SAPS  H10Y 1305   3.505   1.516   7.914 -1.1876 -1.2993 -3.6421
   10SAPS  C311 1306   3.636   1.402   8.039 -0.0604  0.3585  0.0758
   10SAPS  H11X 1307   3.704   1.489   8.047 -0.8100  0.8441  1.2945
   10SAPS  H11Y 1308   3.704   1.314   8.034 -3.0311 -1.9192 -2.6833
   10SAPS  C312 1309   3.544   1.407   8.157 -0.1314  0.2868  0.1278
   10SAPS  H12X 1310   3.465   1.329   8.160  0.6600 -0.5257 -0.0710
   10SAPS  H12Y 1311   3.496   1.507   8.157  2.2650  1.4745 -0.0857
   10SAPS  C313 1312   3.619   1.407   8.286 -0.2324  0.5843 -0.3315
   10SAPS  H13X 1313   3.679   1.500   8.283 -0.9147  1.0280 -0.2290
   10SAPS  H13Y 1314   3.690   1.322   8.300 -0.3221  0.3356 -1.3326
   10SAPS  C314 1315   3.524   1.407   8.412 -0.0594  0.1178  0.2879
   10SAPS  H14X 1316   3.593   1.431   8.496 -1.8438  0.1040  1.7874
   10SAPS  H14Y 1317   3.477   1.310   8.439 -0.3230  0.1849  0.0706
   10SAPS  C315 1318   3.420   1.519   8.416 -0.2268 -0.5714 -0.1811
   10SAPS  H15X 1319   3.333   1.509   8.348  0.5322  1.2072 -1.4749
   10SAPS  H15Y 1320   3.467   1.617   8.393  1.1338 -0.8676  1.2435
   10SAPS  C316 1321   3.353   1.538   8.559 -0.1659 -0.0990  0.0443
   10SAPS  H16X 1322   3.431   1.531   8.638 -1.3832 -0.8863  1.2074
   10SAPS  H16Y 1323   3.290   1.448   8.576 -1.7899  0.8024 -1.1189
   10SAPS  C317 1324   3.251   1.655   8.567 -0.3366 -0.3478  0.2761
   10SAPS  H17X 1325   3.307   1.748   8.544 -0.0037 -0.2705  1.3511
   10SAPS  H17Y 1326   3.211   1.663   8.670  0.0541  0.4350  0.3713
   10SAPS  C318 1327   3.142   1.657   8.472  0.0973 -0.8331 -0.2801
   10SAPS  H18X 1328   3.172   1.642   8.366  0.8620 -0.7456 -0.0734
   10SAPS  H18Y 1329   3.084   1.752   8.466  0.4031 -0.5626  0.9686
   10SAPS  H18Z 1330   3.064   1.580   8.492 -2.8605  1.9621 -0.5486
   11SAPS     N 1331   5.094   4.313   5.598 -0.7279  0.1768 -0.4522
   11SAPS   HN1 1332   5.122   4.310   5.698 -2.5762 -2.8125  0.0346
   11SAPS   HN2 1333   5.175   4.311   5.533  1.2503 -1.6002  2.0198
   11SAPS   HN3 1334   5.041   4.402   5.582 -2.8863 -0.8782  0.6657
   11SAPS   C12 1335   5.005   4.196   5.562  0.3059  0.2002 -0.7316
   11SAPS  H12A 1336   4.992   4.192   5.454  0.3200 -0.2820 -0.7198
   11SAPS   C13 1337   5.070   4.054   5.592  0.2162  0.2273 -0.3803
   11SAPS  O13A 1338   5.190   4.041   5.628  0.0992 -0.0892 -0.6617
   11SAPS  O13B 1339   5.012   3.956   5.538  0.3614  0.4444 -0.2395
   11SAPS   C11 1340   4.868   4.206   5.637  0.4728  1.1384 -0.8500
   11SAPS  H11A 1341   4.814   4.109   5.624 -1.3232  1.8996  0.6704
   11SAPS  H11B 1342   4.804   4.289   5.601  0.3826  1.9788  1.2028
   11SAPS     P 1343   4.798   4.183   5.886  0.1102  0.0904  0.1807
   11SAPS   O13 1344   4.660   4.200   5.834  0.1847  0.1635  0.6023
   11SAPS   O14 1345   4.834   4.042   5.934  0.0217  0.1080 -0.2902
   11SAPS   O12 1346   4.894   4.221   5.772 -0.2596  0.0978  0.0409
   11SAPS   O11 1347   4.835   4.294   5.994 -0.4433  0.8572  0.8920
   11SAPS    C1 1348   4.961   4.322   6.056  0.0738 -0.3959 -0.4493
   11SAPS    HA 1349   5.039   4.333   5.978  1.7909 -3.7141  0.7034
   11SAPS    HB 1350   4.959   4.418   6.111  0.4020 -0.8762  0.4100
   11SAPS    C2 1351   4.997   4.217   6.170 -0.2835  0.1966 -0.1046
   11SAPS    HS 1352   4.962   4.116   6.140 -0.5565  0.7838 -1.8576
   11SAPS   O21 1353   4.953   4.256   6.300  0.1365  0.2251  0.1911
   11SAPS   C21 1354   4.827   4.253   6.318 -0.2534 -0.1170 -0.2719
   11SAPS   O22 1355   4.742   4.205   6.248  0.7137  0.1983  0.4009
   11SAPS   C22 1356   4.803   4.309   6.462  0.2111  0.6818 -0.1539
   11SAPS   H2R 1357   4.778   4.418   6.463  2.2931  1.1801  0.3853
   11SAPS   H2S 1358   4.717   4.248   6.497  0.1872  0.0177 -1.3492
   11SAPS    C3 1359   5.149   4.196   6.187 -0.4375  0.7081 -0.4303
   11SAPS    HX 1360   5.192   4.156   6.092  2.6526  2.2437  0.2528
   11SAPS    HY 1361   5.166   4.117   6.263  0.7026  0.0031 -1.4008
   11SAPS   O31 1362   5.208   4.319   6.215  0.0123  0.6216  0.5209
   11SAPS   C31 1363   5.301   4.325   6.303 -0.5292  0.2342 -0.7389
   11SAPS   O32 1364   5.363   4.227   6.348  0.9650  0.3830  0.1373
   11SAPS   C32 1365   5.311   4.474   6.352 -0.4358  0.0332  0.2869
   11SAPS   H2X 1366   5.283   4.542   6.268  4.3445  0.1957 -1.3071
   11SAPS   H2Y 1367   5.417   4.496   6.377 -0.1297 -0.6651 -0.3704
   11SAPS   C23 1368   4.920   4.269   6.549 -0.1774  0.5006  0.5133
   11SAPS   H3R 1369   4.914   4.319   6.648 -0.2807  1.1571  0.1812
   11SAPS   H3S 1370   5.018   4.306   6.511  1.0208 -2.1091  0.9775
   11SAPS   C24 1371   4.924   4.122   6.593 -1.2996  0.0976 -0.5073
   11SAPS   H4R 1372   4.820   4.084   6.602 -0.9830 -0.2275  2.5762
   11SAPS   H4S 1373   4.963   4.132   6.697  0.2260  0.4011 -1.0945
   11SAPS   C25 1374   5.014   4.022   6.513  0.0766  0.0441 -0.2057
   11SAPS   H5R 1375   4.974   3.993   6.415  0.9671  0.2410 -0.6295
   11SAPS   C26 1376   5.133   3.968   6.543  0.7985  0.6058  0.5384
   11SAPS   H6R 1377   5.186   3.892   6.484 -1.8656  0.8353 -2.3170
   11SAPS   C27 1378   5.202   3.990   6.672 -0.4969  0.6792 -0.1250
   11SAPS   H7R 1379   5.194   3.898   6.735  1.6514  1.3128  1.1215
   11SAPS   H7S 1380   5.174   4.079   6.732 -1.4134 -0.9470  1.9707
   11SAPS   C28 1381   5.347   4.006   6.640  1.0299 -0.8761 -0.7506
   11SAPS   H8R 1382   5.374   4.042   6.540 -0.7471  0.0768 -0.9012
   11SAPS   C29 1383   5.438   3.998   6.740  0.0578  0.0476 -0.2965
   11SAPS   H9R 1384   5.538   4.032   6.710 -0.3354 -0.2792 -1.9823
   11SAPS  C210 1385   5.407   3.965   6.890  0.3641 -0.5880 -0.6181
   11SAPS  H10R 1386   5.437   3.859   6.904  1.1308 -0.4352 -1.0837
   11SAPS  H10S 1387   5.300   3.960   6.918  0.6210 -2.0928  0.1644
   11SAPS  C211 1388   5.466   4.072   6.977  0.0785 -0.4696  0.1049
   11SAPS  H11R 1389   5.496   4.162   6.922  2.3999 -2.1528 -1.4333
   11SAPS  C212 1390   5.509   4.064   7.107  0.1371 -0.4932  0.4873
   11SAPS  H12R 1391   5.550   4.155   7.153 -1.2871  0.5655 -0.2876
   11SAPS  C213 1392   5.500   3.942   7.192  0.4709 -0.0438 -0.2184
   11SAPS  H13R 1393   5.446   3.857   7.145  0.7701 -2.8324  4.1215
   11SAPS  H13S 1394   5.442   3.970   7.283 -1.0967  0.3911 -1.3393
   11SAPS  C214 1395   5.634   3.891   7.229  0.2104  0.4146  0.0233
   11SAPS  H14R 1396   5.706   3.868   7.149  1.2855 -0.1062  1.1228
   11SAPS  C215 1397   5.678   3.871   7.358  0.5340  0.1851  0.2138
   11SAPS  H15R 1398   5.775   3.820   7.369  1.0123  0.9188 -0.4675
   11SAPS  C216 1399   5.593   3.901   7.482  0.3433 -0.1956  0.1859
   11SAPS  H16R 1400   5.629   3.865   7.581  1.3393  1.8940  0.6064
   11SAPS  H16S 1401   5.493   3.855   7.462  1.0725 -0.6643 -2.5825
   11SAPS  C217 1402   5.545   4.048   7.513 -0.1265 -0.0950 -0.3463
   11SAPS  H17R 1403   5.499   4.089   7.420 -0.7669 -0.2976 -0.1213
   11SAPS  H17S 1404   5.626   4.119   7.543 -0.0759 -0.3279  0.0739
   11SAPS  C218 1405   5.440   4.044   7.623  0.4457 -0.3182 -0.6871
   11SAPS  H18R 1406   5.365   3.965   7.603 -1.7675  1.4721  0.3056
   11SAPS  H18S 1407   5.385   4.140   7.619  1.2955  0.2492  0.9934
   11SAPS  C219 1408   5.498   4.018   7.761 -0.0459  0.1744 -0.5404
   11SAPS  H19R 1409   5.564   4.099   7.798  0.9556 -0.5950 -0.6286
   11SAPS  H19S 1410   5.560   3.926   7.753 -0.3016 -0.0246 -0.2659
   11SAPS  C220 1411   5.400   3.989   7.879 -0.4559 -0.0858 -0.2578
   11SAPS  H20R 1412   5.300   3.949   7.852 -2.5711  3.3945  1.9075
   11SAPS  H20S 1413   5.378   4.086   7.929 -0.2795  0.0671 -0.4781
   11SAPS  H20T 1414   5.464   3.930   7.948 -1.0209 -1.1598 -0.6434
   11SAPS   C33 1415   5.222   4.503   6.479  0.4587  0.2180  0.4850
   11SAPS   H3X 1416   5.114   4.481   6.468  0.6078 -1.0297  1.4751
   11SAPS   H3Y 1417   5.234   4.611   6.504  0.4642  0.3207  0.0534
   11SAPS   C34 1418   5.264   4.418   6.595 -0.1516 -0.5564 -1.0248
   11SAPS   H4X 1419   5.375   4.409   6.599 -0.2477 -1.4395 -0.3571
   11SAPS   H4Y 1420   5.227   4.314   6.597 -0.5724 -0.3993  0.3581
   11SAPS   C35 1421   5.224   4.477   6.733 -0.3944  0.0384  0.1085
   11SAPS   H5X 1422   5.121   4.517   6.720  0.1587  1.0292 -1.2690
   11SAPS   H5Y 1423   5.285   4.567   6.751 -0.6781  0.5364 -1.3221
   11SAPS   C36 1424   5.230   4.377   6.856  0.1863  0.0042  0.0984
   11SAPS   H6X 1425   5.301   4.294   6.835 -0.9332 -1.3696  1.6105
   11SAPS   H6Y 1426   5.124   4.345   6.862  0.4666 -1.1687 -0.9058
   11SAPS   C37 1427   5.279   4.445   6.977 -0.1258  0.2871 -0.0259
   11SAPS   H7X 1428   5.230   4.544   6.988  0.0004  0.3274  0.1929
   11SAPS   H7Y 1429   5.387   4.469   6.983 -0.0839  0.6070 -1.8480
   11SAPS   C38 1430   5.241   4.353   7.102  0.0796 -0.6911 -0.0154
   11SAPS   H8X 1431   5.297   4.259   7.086  2.1171  0.3603  0.7928
   11SAPS   H8Y 1432   5.133   4.329   7.114  0.5208 -1.6680  2.3521
   11SAPS   C39 1433   5.306   4.419   7.229 -0.1370  0.2104  0.8863
   11SAPS   H9X 1434   5.283   4.528   7.224 -0.6874  0.0129 -1.4786
   11SAPS   H9Y 1435   5.415   4.399   7.227 -0.1986 -0.0543 -0.4591
   11SAPS  C310 1436   5.245   4.358   7.357  0.6621 -0.1017 -0.1372
   11SAPS  H10X 1437   5.251   4.247   7.362  1.1457 -0.0106  1.3648
   11SAPS  H10Y 1438   5.137   4.384   7.346  0.5505 -0.8727 -0.9390
   11SAPS  C311 1439   5.291   4.417   7.491 -1.2526  0.7360  0.4084
   11SAPS  H11X 1440   5.315   4.526   7.487 -0.6714  0.7267  2.8494
   11SAPS  H11Y 1441   5.385   4.369   7.526 -1.9402 -2.7445 -2.2064
   11SAPS  C312 1442   5.188   4.392   7.601 -0.0372 -0.1628  0.0099
   11SAPS  H12X 1443   5.141   4.293   7.583  1.8924 -1.6832  2.9662
   11SAPS  H12Y 1444   5.107   4.468   7.605  2.1207  2.2241 -0.0792
   11SAPS  C313 1445   5.250   4.396   7.744  0.2347  0.2602 -0.5964
   11SAPS  H13X 1446   5.281   4.502   7.757 -0.1982  0.6915 -2.8198
   11SAPS  H13Y 1447   5.349   4.346   7.740  0.1377  0.1681 -2.0825
   11SAPS  C314 1448   5.161   4.365   7.867  0.3043 -0.3322 -0.0380
   11SAPS  H14X 1449   5.151   4.255   7.882 -1.7586 -0.0111  1.2074
   11SAPS  H14Y 1450   5.061   4.408   7.846  0.1092 -0.6427  0.2375
   11SAPS  C315 1451   5.216   4.429   7.992  0.3271 -0.7627  0.7909
   11SAPS  H15X 1452   5.238   4.535   7.964 -0.2942 -0.6032  0.8910
   11SAPS  H15Y 1453   5.311   4.375   8.013  0.2453 -0.8010  1.0677
   11SAPS  C316 1454   5.120   4.413   8.110  0.6292  0.4363  0.2202
   11SAPS  H16X 1455   5.090   4.307   8.126  0.5183  0.4545  0.1347
   11SAPS  H16Y 1456   5.027   4.466   8.080  1.9306  2.1653 -0.9026
   11SAPS  C317 1457   5.188   4.476   8.231  0.7095  0.2241 -0.4682
   11SAPS  H17X 1458   5.213   4.580   8.202  2.1035 -0.2053 -0.8321
   11SAPS  H17Y 1459   5.283   4.419   8.242  1.7225  2.2787  1.8727
   11SAPS  C318 1460   5.112   4.463   8.367 -0.5157 -0.1201 -0.0238
   11SAPS  H18X 1461   5.044   4.550   8.377 -0.9006 -0.3759 -0.3888
   11SAPS  H18Y 1462   5.186   4.479   8.448  0.8628 -2.5028 -0.7801
   11SAPS  H18Z 1463   5.072   4.360   8.372  0.4449 -0.4739  0.3539
   12SAPS     N 1464   5.497   5.228   6.132 -0.1889  0.4267 -0.4177
   12SAPS   HN1 1465   5.519   5.313   6.077 -1.2182  0.5603 -0.6353
   12SAPS   HN2 1466   5.425   5.177   6.077 -1.5421  0.6658  1.0865
   12SAPS   HN3 1467   5.443   5.267   6.212 -3.9922  0.9604 -3.1056
   12SAPS   C12 1468   5.618   5.154   6.160  0.2517  0.0438  0.7172
   12SAPS  H12A 1469   5.581   5.074   6.223 -2.0360 -0.2888 -0.9553
   12SAPS   C13 1470   5.679   5.085   6.026 -0.8655  0.0207 -0.3951
   12SAPS  O13A 1471   5.598   5.074   5.924 -0.1020 -0.3465 -0.0995
   12SAPS  O13B 1472   5.772   5.005   6.040 -0.0006 -0.3830  0.3511
   12SAPS   C11 1473   5.730   5.235   6.226  0.0203  0.7437  0.1892
   12SAPS  H11A 1474   5.795   5.160   6.276 -0.1324  2.1356  2.5667
   12SAPS  H11B 1475   5.684   5.301   6.303  2.0207  1.4879  0.7701
   12SAPS     P 1476   5.772   5.458   6.091 -0.2747 -0.3215  0.1712
   12SAPS   O13 1477   5.879   5.505   6.000  0.3596 -0.1762  0.1395
   12SAPS   O14 1478   5.637   5.449   6.038  0.1273  0.2056  0.4697
   12SAPS   O12 1479   5.813   5.319   6.140  0.8161 -0.0054  0.0468
   12SAPS   O11 1480   5.770   5.540   6.219  0.5103  0.1209  0.2820
   12SAPS    C1 1481   5.644   5.570   6.282 -1.0114  0.4022 -0.3556
   12SAPS    HA 1482   5.595   5.653   6.227 -1.3408  0.3538 -0.1339
   12SAPS    HB 1483   5.579   5.480   6.278 -0.2911 -0.1068 -0.6746
   12SAPS    C2 1484   5.672   5.618   6.427 -0.3443  0.1079  0.1774
   12SAPS    HS 1485   5.714   5.721   6.420  1.3605 -0.6038 -0.3098
   12SAPS   O21 1486   5.768   5.528   6.484 -0.0068 -0.3623  0.2472
   12SAPS   C21 1487   5.846   5.585   6.579 -0.4069  0.1323  0.3628
   12SAPS   O22 1488   5.837   5.700   6.614 -0.1888  0.3296 -0.3866
   12SAPS   C22 1489   5.942   5.482   6.641 -0.4458  0.3591  0.1919
   12SAPS   H2R 1490   5.892   5.386   6.615 -0.5169  0.9368 -1.8681
   12SAPS   H2S 1491   6.046   5.487   6.603 -0.0244  0.8633  1.3902
   12SAPS    C3 1492   5.534   5.627   6.499 -0.0480  0.3142  0.2820
   12SAPS    HX 1493   5.488   5.526   6.498 -1.8824  1.0936  1.7206
   12SAPS    HY 1494   5.466   5.692   6.440 -1.5515  1.0706  2.7536
   12SAPS   O31 1495   5.546   5.678   6.631  0.2496 -0.0552 -0.1299
   12SAPS   C31 1496   5.430   5.662   6.703 -0.4821  0.4843  0.2126
   12SAPS   O32 1497   5.331   5.604   6.659 -0.3674  0.4721 -0.0694
   12SAPS   C32 1498   5.449   5.727   6.836  0.1594  0.3266 -0.4849
   12SAPS   H2X 1499   5.413   5.830   6.816 -1.7127  0.0457  1.3109
   12SAPS   H2Y 1500   5.553   5.736   6.874  0.3226  1.0194 -1.0909
   12SAPS   C23 1501   5.965   5.480   6.793  0.2151  0.6967 -0.1241
   12SAPS   H3R 1502   6.023   5.570   6.823  0.8939  0.2848 -0.1743
   12SAPS   H3S 1503   6.034   5.400   6.831 -1.4628 -0.5838  0.2824
   12SAPS   C24 1504   5.836   5.471   6.876 -0.4263  0.6972  0.2874
   12SAPS   H4R 1505   5.752   5.529   6.833 -1.7251 -2.9149 -2.3410
   12SAPS   H4S 1506   5.858   5.521   6.972 -1.3870  1.1320  0.2748
   12SAPS   C25 1507   5.786   5.329   6.892 -0.0237  0.2934 -0.5553
   12SAPS   H5R 1508   5.708   5.295   6.822 -0.9880 -1.4702  1.3270
   12SAPS   C26 1509   5.816   5.237   6.987 -0.2167 -0.4888 -0.1396
   12SAPS   H6R 1510   5.776   5.136   6.967 -0.4802 -0.9993  2.7308
   12SAPS   C27 1511   5.911   5.260   7.106  0.5544  0.4368  0.0981
   12SAPS   H7R 1512   6.011   5.297   7.075  1.2054 -1.9786 -0.8633
   12SAPS   H7S 1513   5.933   5.165   7.159  2.8902 -0.1347 -1.7955
   12SAPS   C28 1514   5.873   5.354   7.220  0.0174 -0.0060  0.3720
   12SAPS   H8R 1515   5.794   5.429   7.199 -1.0121 -0.9146  0.9281
   12SAPS   C29 1516   5.924   5.344   7.347  0.1224 -1.0007 -0.0460
   12SAPS   H9R 1517   5.895   5.421   7.421 -0.9793 -0.6891 -0.7949
   12SAPS  C210 1518   6.023   5.251   7.402 -0.0614 -0.6763 -0.2966
   12SAPS  H10R 1519   6.045   5.169   7.329 -0.9682 -1.3527  0.1797
   12SAPS  H10S 1520   5.986   5.218   7.501  2.9738  0.2419  1.2209
   12SAPS  C211 1521   6.150   5.330   7.437 -0.0948 -0.2732  0.0552
   12SAPS  H11R 1522   6.216   5.349   7.351  2.8724  1.4813  2.6169
   12SAPS  C212 1523   6.199   5.364   7.567  0.2522  0.8824  0.6632
   12SAPS  H12R 1524   6.288   5.428   7.576  0.3105  0.5271  2.8230
   12SAPS  C213 1525   6.128   5.345   7.704 -0.8125 -0.3218  0.2655
   12SAPS  H13R 1526   6.205   5.304   7.772  1.2481  1.3567 -1.0062
   12SAPS  H13S 1527   6.042   5.274   7.711  1.4982 -3.0488  2.0976
   12SAPS  C214 1528   6.081   5.480   7.761  0.3053  0.0837 -0.6014
   12SAPS  H14R 1529   6.064   5.562   7.690 -0.3177  0.6326  0.1790
   12SAPS  C215 1530   6.079   5.507   7.890  0.4806  0.0170  0.2704
   12SAPS  H15R 1531   6.012   5.591   7.913 -1.1014 -1.6763  2.0479
   12SAPS  C216 1532   6.115   5.421   8.006 -0.6189 -0.2616  0.7026
   12SAPS  H16R 1533   6.224   5.399   8.007 -0.3283  1.1653  0.5445
   12SAPS  H16S 1534   6.056   5.327   8.002  1.2122 -1.3958 -0.1403
   12SAPS  C217 1535   6.083   5.505   8.133 -0.0229  0.0125  0.0851
   12SAPS  H17R 1536   6.092   5.615   8.117 -0.0975  0.0308  0.1757
   12SAPS  H17S 1537   6.151   5.486   8.218  0.7541  1.5518 -0.1751
   12SAPS  C218 1538   5.934   5.491   8.172  0.6599  0.0151 -0.0969
   12SAPS  H18R 1539   5.910   5.386   8.200 -0.7884  0.0936 -0.9754
   12SAPS  H18S 1540   5.873   5.531   8.087  0.9780  0.1841 -0.2484
   12SAPS  C219 1541   5.903   5.582   8.299 -0.3049  0.1367 -0.3437
   12SAPS  H19R 1542   5.972   5.666   8.275 -0.2424  0.6930  1.6619
   12SAPS  H19S 1543   5.945   5.547   8.396  0.1844 -1.4494 -1.1077
   12SAPS  C220 1544   5.771   5.653   8.320  0.0260  0.7511 -0.5295
   12SAPS  H20R 1545   5.712   5.643   8.226 -1.8766  1.1574  0.5952
   12SAPS  H20S 1546   5.776   5.758   8.354  0.6247  1.0993 -1.6431
   12SAPS  H20T 1547   5.703   5.605   8.393 -2.0487  0.8865 -2.3236
   12SAPS   C33 1548   5.350   5.671   6.950 -0.2697  0.4491 -0.2280
   12SAPS   H3X 1549   5.248   5.645   6.913 -0.1816  0.1281 -0.2487
   12SAPS   H3Y 1550   5.341   5.755   7.022 -0.2229  2.5437 -2.5877
   12SAPS   C34 1551   5.400   5.543   7.014 -0.3326 -0.2118 -0.0094
   12SAPS   H4X 1552   5.486   5.572   7.077 -0.7010 -2.5736  1.6325
   12SAPS   H4Y 1553   5.433   5.470   6.938  0.2078 -0.6694  0.6598
   12SAPS   C35 1554   5.284   5.473   7.102 -0.4849 -0.3369  0.0686
   12SAPS   H5X 1555   5.184   5.472   7.054 -1.5504 -0.4227  2.2492
   12SAPS   H5Y 1556   5.278   5.529   7.198 -1.9830 -0.2519 -0.0679
   12SAPS   C36 1557   5.332   5.331   7.145  0.7465 -0.4385  1.2391
   12SAPS   H6X 1558   5.423   5.342   7.208 -0.0591 -0.2527  2.3931
   12SAPS   H6Y 1559   5.353   5.277   7.050 -1.0692 -1.5188  1.4315
   12SAPS   C37 1560   5.245   5.242   7.233  0.2929 -0.0913  0.4092
   12SAPS   H7X 1561   5.325   5.169   7.257 -0.4605 -1.6013 -1.5354
   12SAPS   H7Y 1562   5.162   5.191   7.179 -0.5329  0.5464  1.0634
   12SAPS   C38 1563   5.185   5.311   7.356 -0.0815 -0.4707  0.9669
   12SAPS   H8X 1564   5.083   5.351   7.337 -0.1385 -0.0861  2.0409
   12SAPS   H8Y 1565   5.254   5.397   7.373 -0.4173 -0.2312  1.1263
   12SAPS   C39 1566   5.189   5.236   7.491  0.1369 -0.1381 -0.0687
   12SAPS   H9X 1567   5.292   5.203   7.514 -0.2672  0.5498  2.9128
   12SAPS   H9Y 1568   5.121   5.150   7.473  2.5061 -1.7035 -1.8676
   12SAPS  C310 1569   5.143   5.319   7.611  0.4043  0.0008  0.4282
   12SAPS  H10X 1570   5.036   5.342   7.595  0.2603  0.0444  1.4374
   12SAPS  H10Y 1571   5.210   5.408   7.617  0.5255 -0.0340 -0.3530
   12SAPS  C311 1572   5.145   5.237   7.740 -0.4073  0.0451 -0.0246
   12SAPS  H11X 1573   5.217   5.157   7.715 -3.6268 -2.0903 -2.8764
   12SAPS  H11Y 1574   5.047   5.197   7.774 -0.1232 -0.4816  0.1761
   12SAPS  C312 1575   5.184   5.313   7.867 -1.3250  0.2842  0.6139
   12SAPS  H12X 1576   5.119   5.402   7.883 -2.7642 -0.7102  0.3544
   12SAPS  H12Y 1577   5.289   5.349   7.861 -0.4878 -2.0956  0.5188
   12SAPS  C313 1578   5.167   5.223   7.990 -0.1174  0.6386 -0.2176
   12SAPS  H13X 1579   5.235   5.137   7.972 -0.8385  0.2143 -0.8935
   12SAPS  H13Y 1580   5.064   5.182   7.993  0.0347  0.3011  0.7806
   12SAPS  C314 1581   5.190   5.279   8.132  0.2150  0.0207  0.6042
   12SAPS  H14X 1582   5.156   5.385   8.138  0.3513  0.1321 -0.5213
   12SAPS  H14Y 1583   5.296   5.269   8.165  1.4731 -0.8682 -3.3703
   12SAPS  C315 1584   5.100   5.210   8.235  0.5027 -0.0152 -0.4048
   12SAPS  H15X 1585   5.115   5.102   8.213 -0.3078  0.1677 -1.9593
   12SAPS  H15Y 1586   4.991   5.221   8.217  0.4052  1.5704  1.0787
   12SAPS  C316 1587   5.129   5.271   8.375 -0.5034 -0.1428 -0.8146
   12SAPS  H16X 1588   5.099   5.378   8.366 -0.6364 -0.0127  1.0618
   12SAPS  H16Y 1589   5.240   5.266   8.384 -0.4558 -2.4126 -2.1957
   12SAPS  C317 1590   5.053   5.204   8.497  0.3233 -0.2573  0.5140
   12SAPS  H17X 1591   5.066   5.094   8.497 -0.2176 -0.3686 -2.6545
   12SAPS  H17Y 1592   4.945   5.226   8.486  0.3442 -0.4284 -0.0816
   12SAPS  C318 1593   5.078   5.273   8.627  0.2805 -0.7329 -0.2807
   12SAPS  H18X 1594   5.008   5.238   8.707 -0.9716 -0.0145 -1.0457
   12SAPS  H18Y 1595   5.070   5.384   8.623  2.4114 -0.5651 -0.4590
   12SAPS  H18Z 1596   5.182   5.246   8.655  0.0408 -2.6876 -1.1722
   13SAPS     N 1597   5.287   2.750   5.873 -0.3308  0.0321  0.4580
   13SAPS   HN1 1598   5.294   2.839   5.926  1.5469 -0.7719  1.6046
   13SAPS   HN2 1599   5.305   2.776   5.774  2.4143  0.1061  0.9386
   13SAPS   HN3 1600   5.188   2.723   5.887  0.4569 -1.8511  2.6902
   13SAPS   C12 1601   5.385   2.652   5.913 -0.6142  0.0172  0.5124
   13SAPS  H12A 1602   5.352   2.556   5.876  2.8804 -1.2539  0.5081
   13SAPS   C13 1603   5.536   2.664   5.857  0.3897 -0.2570 -0.0507
   13SAPS  O13A 1604   5.558   2.723   5.752  0.0113 -0.5594  0.3538
   13SAPS  O13B 1605   5.600   2.561   5.886 -0.5502 -0.5349 -0.4025
   13SAPS   C11 1606   5.392   2.656   6.072 -0.0159 -0.2909 -0.4171
   13SAPS  H11A 1607   5.473   2.588   6.108 -0.7541 -0.7239  0.4572
   13SAPS  H11B 1608   5.299   2.607   6.108 -0.5833 -0.3564 -1.9359
   13SAPS     P 1609   5.501   2.863   6.212 -0.3049  0.5837 -0.9380
   13SAPS   O13 1610   5.626   2.867   6.140 -0.1115 -0.5226  0.6570
   13SAPS   O14 1611   5.442   2.990   6.259 -0.1803 -0.3748  0.1984
   13SAPS   O12 1612   5.396   2.790   6.124 -0.2324  0.7953 -0.3272
   13SAPS   O11 1613   5.512   2.755   6.329  0.1050 -0.4649  0.2624
   13SAPS    C1 1614   5.389   2.751   6.406  0.2040  0.3488  0.4196
   13SAPS    HA 1615   5.354   2.853   6.434  1.5545  1.3504 -1.4562
   13SAPS    HB 1616   5.304   2.704   6.353 -1.5346  1.6624  1.9827
   13SAPS    C2 1617   5.414   2.675   6.539 -0.0981  0.4858  0.4691
   13SAPS    HS 1618   5.321   2.663   6.599 -2.0354  0.1138 -2.4846
   13SAPS   O21 1619   5.521   2.746   6.612  0.0265  0.5535  0.1651
   13SAPS   C21 1620   5.470   2.838   6.691 -0.2404  0.5440  0.1051
   13SAPS   O22 1621   5.350   2.851   6.712  0.0348  0.1550  0.2984
   13SAPS   C22 1622   5.568   2.896   6.779 -0.4693  0.4222 -0.0342
   13SAPS   H2R 1623   5.611   2.811   6.836 -2.4959  0.5545  1.7636
   13SAPS   H2S 1624   5.650   2.926   6.710 -0.9816 -0.5622 -1.0869
   13SAPS    C3 1625   5.454   2.527   6.504  0.4309 -1.0679  0.0379
   13SAPS    HX 1626   5.534   2.535   6.427 -1.2714  2.2677 -1.5078
   13SAPS    HY 1627   5.360   2.484   6.464 -0.2031  0.7328 -0.4798
   13SAPS   O31 1628   5.496   2.456   6.620  0.0999  0.1280 -0.0506
   13SAPS   C31 1629   5.554   2.333   6.601  0.2166 -0.4390  0.1571
   13SAPS   O32 1630   5.560   2.282   6.490 -0.2670 -0.0551  0.5076
   13SAPS   C32 1631   5.606   2.278   6.729 -0.6355 -0.6211  1.0687
   13SAPS   H2X 1632   5.716   2.297   6.727 -0.5152 -1.3232 -2.2263
   13SAPS   H2Y 1633   5.583   2.170   6.741 -1.8625 -0.6118 -0.8745
   13SAPS   C23 1634   5.504   3.001   6.875  0.5826  0.4129 -0.5866
   13SAPS   H3R 1635   5.409   2.965   6.920  0.6654  1.4522  0.4401
   13SAPS   H3S 1636   5.485   3.090   6.811  1.8502  1.6222  0.6795
   13SAPS   C24 1637   5.595   3.052   6.990 -0.3914  0.1182  0.7379
   13SAPS   H4R 1638   5.537   3.135   7.037 -1.7824 -1.6914  2.2859
   13SAPS   H4S 1639   5.679   3.091   6.928  1.1891 -1.6186  1.7337
   13SAPS   C25 1640   5.655   2.952   7.075  0.0911 -0.4979  0.3099
   13SAPS   H5R 1641   5.658   2.855   7.024 -0.9042  0.0064 -0.7166
   13SAPS   C26 1642   5.674   2.956   7.209  0.0024  0.0947  0.3483
   13SAPS   H6R 1643   5.724   2.870   7.254  2.3514  0.0809 -2.1534
   13SAPS   C27 1644   5.652   3.077   7.300 -0.2936  0.7937 -0.2800
   13SAPS   H7R 1645   5.593   3.156   7.247  0.9663  0.6230 -1.9848
   13SAPS   H7S 1646   5.750   3.112   7.337 -0.6352 -0.2213  1.6208
   13SAPS   C28 1647   5.569   3.033   7.415 -0.1326  0.0675  0.3734
   13SAPS   H8R 1648   5.574   2.931   7.456 -0.0212 -0.2416 -0.3940
   13SAPS   C29 1649   5.509   3.120   7.498 -0.3385  0.2315  0.2601
   13SAPS   H9R 1650   5.448   3.073   7.577  0.9588  0.0761  1.1710
   13SAPS  C210 1651   5.507   3.269   7.493  1.4967  0.0428 -0.1860
   13SAPS  H10R 1652   5.431   3.307   7.564  0.9353 -0.2940 -0.5971
   13SAPS  H10S 1653   5.458   3.298   7.397  1.0263  0.8988  0.3003
   13SAPS  C211 1654   5.626   3.356   7.534 -0.0638  0.4899 -0.1551
   13SAPS  H11R 1655   5.710   3.353   7.463 -1.1624  1.0838 -1.4935
   13SAPS  C212 1656   5.639   3.421   7.650 -0.0478 -0.2408  0.5269
   13SAPS  H12R 1657   5.735   3.466   7.681  0.8073 -2.1894  0.7618
   13SAPS  C213 1658   5.535   3.425   7.751 -0.1140 -0.3625 -0.5561
   13SAPS  H13R 1659   5.580   3.394   7.848  0.8771 -0.2841 -0.9795
   13SAPS  H13S 1660   5.452   3.351   7.753 -0.4396  0.0381  0.9933
   13SAPS  C214 1661   5.464   3.561   7.749 -0.5764 -0.3748 -0.0898
   13SAPS  H14R 1662   5.482   3.631   7.665 -2.9572 -0.1924 -0.4983
   13SAPS  C215 1663   5.381   3.611   7.844 -0.5804  0.0558  0.3628
   13SAPS  H15R 1664   5.339   3.712   7.829  1.9207  0.8964 -1.3120
   13SAPS  C216 1665   5.339   3.557   7.975  0.5162  0.2835 -0.8038
   13SAPS  H16R 1666   5.353   3.644   8.042  0.7776 -0.4515  0.1098
   13SAPS  H16S 1667   5.409   3.480   8.015 -0.7478 -0.0944  0.7361
   13SAPS  C217 1668   5.196   3.488   8.003  0.6489 -0.2182  0.4687
   13SAPS  H17R 1669   5.201   3.396   7.940 -0.1885 -0.0394  0.1367
   13SAPS  H17S 1670   5.120   3.559   7.965 -0.4812 -1.5314  0.2253
   13SAPS  C218 1671   5.185   3.452   8.157  0.2618  0.5004 -0.3462
   13SAPS  H18R 1672   5.226   3.539   8.214  0.4435 -0.0496  0.3664
   13SAPS  H18S 1673   5.236   3.357   8.183  2.1325  1.9081  1.3328
   13SAPS  C219 1674   5.036   3.427   8.179  0.4851 -0.9582  0.1081
   13SAPS  H19R 1675   4.996   3.388   8.083 -0.8499 -2.3458  1.2100
   13SAPS  H19S 1676   4.987   3.527   8.186  1.2975 -0.6584  1.6564
   13SAPS  C220 1677   5.023   3.326   8.286 -0.0141 -0.2909 -0.9442
   13SAPS  H20R 1678   5.091   3.340   8.373 -1.0207  0.3527 -0.2492
   13SAPS  H20S 1679   5.040   3.225   8.245 -0.7608 -0.9982  0.4666
   13SAPS  H20T 1680   4.923   3.325   8.334  0.2359  0.3367 -0.4023
   13SAPS   C33 1681   5.574   2.352   6.860  0.0550 -0.0644  0.1500
   13SAPS   H3X 1682   5.607   2.272   6.930 -0.5481 -0.9306 -0.5475
   13SAPS   H3Y 1683   5.467   2.372   6.878  0.5063  0.5358  2.3044
   13SAPS   C34 1684   5.660   2.478   6.882  0.3867  0.3963  0.4750
   13SAPS   H4X 1685   5.628   2.542   6.798  1.0035  0.9376  0.6540
   13SAPS   H4Y 1686   5.766   2.445   6.880 -0.3359 -2.1087  0.8338
   13SAPS   C35 1687   5.633   2.552   7.016 -0.1185  1.0658  0.1809
   13SAPS   H5X 1688   5.525   2.544   7.043 -0.2561 -1.7165 -1.0131
   13SAPS   H5Y 1689   5.658   2.658   6.992 -0.5096  0.7446 -1.8006
   13SAPS   C36 1690   5.713   2.497   7.129 -0.3448  0.9884  0.0694
   13SAPS   H6X 1691   5.822   2.504   7.106  0.3562  0.5412  3.0630
   13SAPS   H6Y 1692   5.699   2.387   7.129 -1.3059  1.1048 -1.5032
   13SAPS   C37 1693   5.687   2.551   7.271 -0.6243  0.6925  0.4211
   13SAPS   H7X 1694   5.617   2.637   7.255  3.4018  4.2618  1.1090
   13SAPS   H7Y 1695   5.775   2.596   7.321  0.2029 -0.8292  0.3542
   13SAPS   C38 1696   5.620   2.445   7.364 -0.2074  0.2085  0.2926
   13SAPS   H8X 1697   5.691   2.363   7.388 -0.7614  0.6698  3.7642
   13SAPS   H8Y 1698   5.537   2.404   7.302 -1.4910  1.9604  0.8197
   13SAPS   C39 1699   5.577   2.514   7.492  0.3786  1.4039  0.4822
   13SAPS   H9X 1700   5.534   2.614   7.469  2.1038  2.3836  1.3706
   13SAPS   H9Y 1701   5.662   2.541   7.558 -0.7662  1.2163  2.0706
   13SAPS  C310 1702   5.475   2.433   7.576  0.7798  1.0605  0.1680
   13SAPS  H10X 1703   5.525   2.334   7.585  2.2752  1.6063 -1.7633
   13SAPS  H10Y 1704   5.380   2.424   7.519  0.9961 -0.8980  0.0817
   13SAPS  C311 1705   5.458   2.500   7.713  0.5259  0.4438  0.6370
   13SAPS  H11X 1706   5.404   2.595   7.697  0.0615  0.3577  1.6200
   13SAPS  H11Y 1707   5.551   2.514   7.772  0.4647 -1.1814  1.1481
   13SAPS  C312 1708   5.382   2.408   7.806  0.0299  0.4982  0.3343
   13SAPS  H12X 1709   5.440   2.313   7.810  0.9207  1.0005 -0.1903
   13SAPS  H12Y 1710   5.280   2.380   7.774 -0.2246  0.2070  1.3794
   13SAPS  C313 1711   5.363   2.463   7.949  0.9048 -0.4528  0.0614
   13SAPS  H13X 1712   5.308   2.559   7.945 -0.1704 -1.0802 -0.6861
   13SAPS  H13Y 1713   5.460   2.481   7.999  1.7756 -2.3202 -0.8924
   13SAPS  C314 1714   5.276   2.365   8.035  0.0754  0.4063 -0.4031
   13SAPS  H14X 1715   5.328   2.269   8.056 -0.4294  0.4765  1.2241
   13SAPS  H14Y 1716   5.181   2.340   7.983 -0.9572  1.0751  1.1244
   13SAPS  C315 1717   5.245   2.434   8.162  0.3604  0.2830 -0.5566
   13SAPS  H15X 1718   5.226   2.541   8.140  3.1321  0.3951 -2.7568
   13SAPS  H15Y 1719   5.331   2.419   8.230  0.1013 -1.0895 -0.5148
   13SAPS  C316 1720   5.121   2.369   8.229  0.4998  0.6389 -0.0970
   13SAPS  H16X 1721   5.096   2.270   8.183  0.8022 -0.0904  1.2911
   13SAPS  H16Y 1722   5.028   2.429   8.221 -0.5923 -0.8512  1.2099
   13SAPS  C317 1723   5.165   2.344   8.375  0.1833  0.5118  0.1090
   13SAPS  H17X 1724   5.203   2.436   8.423 -0.0096  0.5155  0.2522
   13SAPS  H17Y 1725   5.250   2.272   8.379  1.0125  1.3055 -2.2847
   13SAPS  C318 1726   5.046   2.278   8.453 -0.8660 -0.7111  0.2565
   13SAPS  H18X 1727   5.002   2.192   8.398  1.7512 -1.0217 -1.4627
   13SAPS  H18Y 1728   4.974   2.360   8.471  0.4006  0.2647  0.9667
   13SAPS  H18Z 1729   5.081   2.233   8.549  2.5302  1.3187  0.0299
   14SAPS     N 1730   4.744   4.645   5.826 -0.6364  0.1812 -0.0400
   14SAPS   HN1 1731   4.716   4.605   5.918 -1.1317  1.8433  0.5493
   14SAPS   HN2 1732   4.787   4.737   5.848 -2.9457  0.8755  1.7584
   14SAPS   HN3 1733   4.660   4.656   5.766 -1.6136  0.8978  1.4342
   14SAPS   C12 1734   4.858   4.577   5.748 -0.5205 -0.1567 -0.2894
   14SAPS  H12A 1735   4.847   4.470   5.757  2.3921 -0.5135 -0.6780
   14SAPS   C13 1736   4.871   4.612   5.595  0.6834 -0.3321  0.3325
   14SAPS  O13A 1737   4.780   4.674   5.533 -0.9369 -0.2774 -0.7073
   14SAPS  O13B 1738   4.950   4.540   5.528 -0.0002 -0.1800 -0.0712
   14SAPS   C11 1739   4.988   4.607   5.823  0.1177  0.3356  0.0164
   14SAPS  H11A 1740   5.068   4.558   5.765 -0.5671 -0.0660 -0.6043
   14SAPS  H11B 1741   4.989   4.550   5.919 -0.5971 -0.0597 -0.2049
   14SAPS     P 1742   4.996   4.831   5.968  0.0642 -0.2850 -0.1205
   14SAPS   O13 1743   5.094   4.941   5.966  0.1186  0.7753 -0.4631
   14SAPS   O14 1744   4.849   4.860   5.978 -0.8336 -0.0455  0.0628
   14SAPS   O12 1745   5.022   4.744   5.841 -0.1353 -0.1269 -0.1791
   14SAPS   O11 1746   5.039   4.731   6.078  0.5131  0.1434  0.0789
   14SAPS    C1 1747   4.953   4.693   6.191 -0.6864  0.2724  0.7544
   14SAPS    HA 1748   4.847   4.691   6.159 -0.6729 -1.4020  0.8118
   14SAPS    HB 1749   4.992   4.592   6.217  2.3685  0.8726 -1.1623
   14SAPS    C2 1750   4.954   4.783   6.314  0.6383 -0.4263 -0.6638
   14SAPS    HS 1751   4.918   4.886   6.291  0.8139 -0.5918 -1.6745
   14SAPS   O21 1752   5.087   4.790   6.366 -0.7301 -0.3232  0.2502
   14SAPS   C21 1753   5.129   4.902   6.424  0.3071 -0.3789  0.5115
   14SAPS   O22 1754   5.063   5.004   6.448  0.3655 -0.0726 -0.5401
   14SAPS   C22 1755   5.274   4.869   6.462  0.3351  0.2946  0.3968
   14SAPS   H2R 1756   5.283   4.829   6.566  1.2927  1.4247  0.7625
   14SAPS   H2S 1757   5.309   4.783   6.401  0.9990 -0.6128  2.0088
   14SAPS    C3 1758   4.846   4.733   6.422  0.0804  0.4192  0.2938
   14SAPS    HX 1759   4.868   4.624   6.421  2.6612  0.9107 -0.4110
   14SAPS    HY 1760   4.741   4.746   6.388 -0.2257 -0.6229  0.8221
   14SAPS   O31 1761   4.864   4.790   6.555  0.0335 -0.1803  0.4724
   14SAPS   C31 1762   4.787   4.898   6.592 -0.3030  0.0462  1.0729
   14SAPS   O32 1763   4.711   4.949   6.514  0.0099 -0.2636 -0.6609
   14SAPS   C32 1764   4.807   4.926   6.743  0.2375  0.0861  1.2269
   14SAPS   H2X 1765   4.757   4.842   6.796  0.1293  0.5790  1.9181
   14SAPS   H2Y 1766   4.758   5.023   6.762 -0.6037  0.0662 -0.7086
   14SAPS   C23 1767   5.370   4.992   6.444  0.0492  0.3337 -0.2851
   14SAPS   H3R 1768   5.367   5.043   6.346 -1.7610 -0.0478 -0.4536
   14SAPS   H3S 1769   5.463   4.932   6.451  1.2703  2.1396 -0.6586
   14SAPS   C24 1770   5.363   5.090   6.565 -0.1066 -0.2187  0.0965
   14SAPS   H4R 1771   5.353   5.042   6.665  1.0016  1.4876  1.0483
   14SAPS   H4S 1772   5.265   5.142   6.551  1.2034  1.5376 -3.1912
   14SAPS   C25 1773   5.472   5.193   6.557  0.2601  0.5338 -0.0996
   14SAPS   H5R 1774   5.452   5.293   6.515  1.1815  1.3769  1.4421
   14SAPS   C26 1775   5.607   5.180   6.592  0.2685 -0.7095 -0.1458
   14SAPS   H6R 1776   5.671   5.267   6.572 -1.6405  0.7222 -0.1188
   14SAPS   C27 1777   5.682   5.053   6.639  0.7784 -0.5048  0.0826
   14SAPS   H7R 1778   5.610   4.969   6.651  1.4855 -1.2874 -1.0078
   14SAPS   H7S 1779   5.733   5.083   6.733 -0.5114  1.0175  0.3306
   14SAPS   C28 1780   5.779   4.996   6.533 -0.8411  0.0240  0.5006
   14SAPS   H8R 1781   5.731   4.942   6.451 -1.0062  1.6948 -0.5249
   14SAPS   C29 1782   5.915   5.005   6.531 -0.5555 -0.4344 -0.5867
   14SAPS   H9R 1783   5.971   4.963   6.447  2.2651  1.3637  0.3496
   14SAPS  C210 1784   5.996   5.077   6.647  0.5267  0.8822 -0.6999
   14SAPS  H10R 1785   6.042   4.998   6.709  0.4221 -0.8736 -2.7949
   14SAPS  H10S 1786   5.920   5.118   6.718 -0.0858 -0.2496 -0.6870
   14SAPS  C211 1787   6.085   5.183   6.595  0.3415 -0.1893  0.3849
   14SAPS  H11R 1788   6.069   5.228   6.496  1.3281  0.5448  0.5582
   14SAPS  C212 1789   6.199   5.224   6.657 -0.1673  0.2749 -0.9905
   14SAPS  H12R 1790   6.263   5.302   6.613  0.7837 -0.2661 -0.5699
   14SAPS  C213 1791   6.227   5.173   6.788  0.5998 -0.7012  1.0771
   14SAPS  H13R 1792   6.220   5.063   6.770 -0.3821 -0.0123 -3.1692
   14SAPS  H13S 1793   6.148   5.207   6.859  0.0678 -1.9422  1.0963
   14SAPS  C214 1794   6.369   5.201   6.831  0.0466 -0.5019  0.3137
   14SAPS  H14R 1795   6.440   5.162   6.757  0.3884  0.8749 -0.0942
   14SAPS  C215 1796   6.408   5.244   6.958 -0.4480  0.3675  0.6617
   14SAPS  H15R 1797   6.516   5.253   6.981 -0.7525  2.0550  1.5192
   14SAPS  C216 1798   6.317   5.267   7.074  0.5502  0.0829  0.2448
   14SAPS  H16R 1799   6.382   5.263   7.164  0.5116  0.9225  0.3077
   14SAPS  H16S 1800   6.239   5.189   7.084 -1.1790  1.5437 -1.5973
   14SAPS  C217 1801   6.248   5.406   7.062 -0.8759  0.1670 -0.3873
   14SAPS  H17R 1802   6.173   5.417   7.143  1.5852 -2.5040  2.3870
   14SAPS  H17S 1803   6.194   5.421   6.966  1.1209  0.9662 -1.4295
   14SAPS  C218 1804   6.340   5.530   7.073 -0.0965  0.4253 -0.1305
   14SAPS  H18R 1805   6.431   5.520   7.010 -0.4344  1.5687 -0.8219
   14SAPS  H18S 1806   6.381   5.535   7.177  3.5845  0.1940 -1.4802
   14SAPS  C219 1807   6.278   5.669   7.042 -0.5383 -0.6463 -0.0258
   14SAPS  H19R 1808   6.243   5.680   6.937 -0.5844  0.3097  0.0869
   14SAPS  H19S 1809   6.353   5.746   7.068 -1.3009 -0.0255  0.3728
   14SAPS  C220 1810   6.159   5.704   7.134 -0.4933 -0.4634 -0.0121
   14SAPS  H20R 1811   6.066   5.645   7.115 -0.2134 -0.9093  0.0064
   14SAPS  H20S 1812   6.140   5.813   7.128  3.1702  0.1231 -2.8118
   14SAPS  H20T 1813   6.203   5.686   7.234 -2.1557 -0.1476  0.7918
   14SAPS   C33 1814   4.953   4.950   6.788  0.3652  0.3391 -0.3137
   14SAPS   H3X 1815   4.940   5.026   6.868 -2.9643  3.0486 -3.2454
   14SAPS   H3Y 1816   5.006   4.997   6.702  0.7871  0.3179 -0.0641
   14SAPS   C34 1817   5.022   4.825   6.847 -0.0919 -0.4330  0.3941
   14SAPS   H4X 1818   5.038   4.749   6.768  0.6994  1.0585 -0.8848
   14SAPS   H4Y 1819   4.953   4.777   6.921 -0.9788  1.8958  1.1337
   14SAPS   C35 1820   5.160   4.871   6.898 -0.0716 -0.5966 -0.6615
   14SAPS   H5X 1821   5.201   4.949   6.830  0.4169  0.8860  1.2784
   14SAPS   H5Y 1822   5.224   4.780   6.890 -1.2942 -1.5507  0.2876
   14SAPS   C36 1823   5.144   4.927   7.042  0.3768  0.5813  1.0961
   14SAPS   H6X 1824   5.103   5.030   7.030  1.3759  1.0521  1.6127
   14SAPS   H6Y 1825   5.245   4.947   7.082  0.5531 -1.1712  1.5475
   14SAPS   C37 1826   5.075   4.841   7.150 -0.5558  0.0882 -0.2445
   14SAPS   H7X 1827   5.113   4.737   7.152 -1.2572 -0.1496  1.1392
   14SAPS   H7Y 1828   4.969   4.841   7.118 -0.7321  0.1001  0.3404
   14SAPS   C38 1829   5.096   4.901   7.287 -0.0400  0.3328  0.5155
   14SAPS   H8X 1830   5.045   4.998   7.268  1.6793  0.6052 -3.1314
   14SAPS   H8Y 1831   5.204   4.915   7.308  0.5606 -2.9761 -0.2111
   14SAPS   C39 1832   5.030   4.823   7.404  0.1053 -0.5913  0.4351
   14SAPS   H9X 1833   5.087   4.728   7.398  0.0660 -0.5681 -0.3301
   14SAPS   H9Y 1834   4.924   4.800   7.377 -0.7195  0.7630  2.3539
   14SAPS  C310 1835   5.044   4.898   7.539 -0.5581  0.3491 -0.0389
   14SAPS  H10X 1836   5.006   5.002   7.534  2.6578  1.5898 -0.1230
   14SAPS  H10Y 1837   5.151   4.908   7.568 -0.1108 -0.0323 -1.5184
   14SAPS  C311 1838   4.980   4.818   7.657  0.3192  0.7107 -0.4995
   14SAPS  H11X 1839   5.046   4.731   7.676 -0.0931  0.3632 -0.6683
   14SAPS  H11Y 1840   4.879   4.784   7.627  0.3385  0.1247  0.0881
   14SAPS  C312 1841   4.978   4.910   7.781 -0.7503  0.3473  0.2261
   14SAPS  H12X 1842   4.936   5.009   7.750 -0.9886  0.3859  0.6621
   14SAPS  H12Y 1843   5.077   4.912   7.831 -0.1308 -0.2864 -0.9641
   14SAPS  C313 1844   4.896   4.848   7.891  0.3595 -0.2414  0.5077
   14SAPS  H13X 1845   4.956   4.757   7.915 -0.0424 -0.3648  1.0471
   14SAPS  H13Y 1846   4.799   4.812   7.851  0.8652  0.2046 -1.1284
   14SAPS  C314 1847   4.880   4.922   8.022 -0.0004  0.1310 -0.0663
   14SAPS  H14X 1848   4.818   5.014   8.032 -1.8553 -1.1000 -0.0445
   14SAPS  H14Y 1849   4.980   4.958   8.055  0.0643 -0.8968  0.8778
   14SAPS  C315 1850   4.837   4.824   8.141 -0.5638 -0.0817 -0.8765
   14SAPS  H15X 1851   4.904   4.737   8.154 -1.5587 -0.6250  0.6899
   14SAPS  H15Y 1852   4.737   4.783   8.118 -1.0732  0.9129 -0.4367
   14SAPS  C316 1853   4.843   4.895   8.285  0.2529  0.2297  0.4277
   14SAPS  H16X 1854   4.783   4.989   8.288 -2.7824 -1.6970  2.6139
   14SAPS  H16Y 1855   4.942   4.936   8.314  0.7460 -2.2305  2.3827
   14SAPS  C317 1856   4.801   4.803   8.397  0.3679  0.9280 -0.1700
   14SAPS  H17X 1857   4.865   4.716   8.370 -0.2596  0.4948 -0.2785
   14SAPS  H17Y 1858   4.695   4.776   8.378  1.3413 -1.2626 -2.8660
   14SAPS  C318 1859   4.823   4.851   8.540  0.1747 -0.2800 -0.4548
   14SAPS  H18X 1860   4.815   4.763   8.606  0.0651 -0.8238 -1.1865
   14SAPS  H18Y 1861   4.759   4.932   8.582  0.1506 -1.3480  1.6036
   14SAPS  H18Z 1862   4.924   4.893   8.558  0.2709 -0.1889 -1.1701
   15SAPS     N 1863   6.218   4.552   5.907 -0.0325  0.1887 -0.0991
   15SAPS   HN1 1864   6.205   4.609   5.993  1.9930 -2.1788  1.8593
   15SAPS   HN2 1865   6.213   4.450   5.924 -0.0422  0.0421 -0.9369
   15SAPS   HN3 1866   6.317   4.563   5.876  0.5793 -0.8432  1.4798
   15SAPS   C12 1867   6.117   4.602   5.808 -0.1326 -0.1105 -0.5309
   15SAPS  H12A 1868   6.074   4.690   5.854  2.0163  1.3350 -1.1919
   15SAPS   C13 1869   6.169   4.630   5.669 -0.0732  0.1451  0.6028
   15SAPS  O13A 1870   6.291   4.608   5.646 -0.8678  0.3082 -0.1025
   15SAPS  O13B 1871   6.094   4.671   5.576 -0.0618  0.1669  1.1675
   15SAPS   C11 1872   6.017   4.491   5.790 -0.7952 -0.5523 -0.6584
   15SAPS  H11A 1873   6.071   4.402   5.751  2.3105  1.5264 -1.4018
   15SAPS  H11B 1874   5.934   4.526   5.725 -0.8802  0.2264 -0.1387
   15SAPS     P 1875   5.855   4.332   5.939 -0.1107  0.1653 -0.0470
   15SAPS   O13 1876   5.720   4.343   5.881  0.2905 -0.9000  0.4008
   15SAPS   O14 1877   5.933   4.214   5.914 -0.3138 -0.6961 -0.5617
   15SAPS   O12 1878   5.948   4.467   5.915  0.0686 -0.0271  0.6782
   15SAPS   O11 1879   5.847   4.347   6.099  0.0798 -0.3655  0.2229
   15SAPS    C1 1880   5.974   4.347   6.173  0.3036 -0.0083 -0.1066
   15SAPS    HA 1881   6.042   4.260   6.156  0.5215 -0.4051  2.4775
   15SAPS    HB 1882   6.037   4.435   6.148 -0.2848  0.4498  0.0212
   15SAPS    C2 1883   5.947   4.345   6.324 -0.4687 -0.9694 -0.0881
   15SAPS    HS 1884   5.893   4.252   6.353 -1.6849  0.1700  1.4196
   15SAPS   O21 1885   5.870   4.466   6.360 -0.6738  0.4626  0.2051
   15SAPS   C21 1886   5.789   4.463   6.459  0.4202 -0.0561 -0.0293
   15SAPS   O22 1887   5.743   4.366   6.518  0.2674 -0.2312  0.4055
   15SAPS   C22 1888   5.749   4.613   6.493 -0.9780 -0.4840 -0.0229
   15SAPS   H2R 1889   5.840   4.659   6.537 -0.3836 -2.1776  0.5401
   15SAPS   H2S 1890   5.719   4.668   6.400 -0.2262  0.8925  0.5276
   15SAPS    C3 1891   6.078   4.331   6.410  0.0362 -0.6680  0.1651
   15SAPS    HX 1892   6.137   4.423   6.386  1.0533 -1.6918 -1.3405
   15SAPS    HY 1893   6.138   4.245   6.373 -0.3495  0.0001 -2.0729
   15SAPS   O31 1894   6.039   4.317   6.547  0.0269 -0.0655 -0.0422
   15SAPS   C31 1895   6.007   4.190   6.588 -0.2336  0.4030  0.4190
   15SAPS   O32 1896   6.031   4.092   6.517  0.4151  0.1435  0.1902
   15SAPS   C32 1897   5.949   4.184   6.734  0.0243 -0.1437 -0.3039
   15SAPS   H2X 1898   6.016   4.121   6.796 -0.7554 -1.1068 -0.4286
   15SAPS   H2Y 1899   5.847   4.143   6.727  0.7058 -1.6968 -1.4134
   15SAPS   C23 1900   5.626   4.631   6.585 -0.3761 -0.0676 -0.7510
   15SAPS   H3R 1901   5.543   4.572   6.542 -0.9504 -0.4724  0.8950
   15SAPS   H3S 1902   5.611   4.741   6.581 -1.4862 -0.2272 -0.9732
   15SAPS   C24 1903   5.661   4.582   6.725 -0.1110 -0.8224  0.0168
   15SAPS   H4R 1904   5.750   4.639   6.758 -1.0915 -0.3255  1.9484
   15SAPS   H4S 1905   5.696   4.477   6.719 -1.2903 -1.1929 -0.4447
   15SAPS   C25 1906   5.546   4.602   6.822 -0.3260 -0.2123 -0.0042
   15SAPS   H5R 1907   5.472   4.521   6.822  0.2608 -0.7560 -0.7726
   15SAPS   C26 1908   5.531   4.703   6.911  0.2078 -0.1537 -1.2608
   15SAPS   H6R 1909   5.445   4.709   6.980  0.4562 -2.7414 -0.6674
   15SAPS   C27 1910   5.630   4.813   6.917  0.7861 -0.0637 -0.1406
   15SAPS   H7R 1911   5.692   4.827   6.826 -0.7597 -0.4479 -1.2551
   15SAPS   H7S 1912   5.704   4.786   6.996  1.4005 -0.5702 -0.8873
   15SAPS   C28 1913   5.555   4.940   6.957 -0.0625 -0.1226  0.8496
   15SAPS   H8R 1914   5.543   5.010   6.873 -0.8052  0.5274  1.4925
   15SAPS   C29 1915   5.513   4.981   7.079  0.4576 -0.2628  0.4079
   15SAPS   H9R 1916   5.464   5.079   7.094 -0.1904  0.1141 -3.6768
   15SAPS  C210 1917   5.541   4.905   7.205 -0.2249  0.4612 -0.0994
   15SAPS  H10R 1918   5.602   4.812   7.196 -0.5220  0.0479  1.7771
   15SAPS  H10S 1919   5.448   4.879   7.260 -0.1291  0.3108 -0.0061
   15SAPS  C211 1920   5.629   4.997   7.287  0.5505  0.8422 -0.3928
   15SAPS  H11R 1921   5.714   5.044   7.236 -0.3795  1.8178 -1.0472
   15SAPS  C212 1922   5.603   5.037   7.416  0.1151  0.2442  0.0003
   15SAPS  H12R 1923   5.668   5.111   7.465  0.7319 -0.0966 -0.2918
   15SAPS  C213 1924   5.485   5.004   7.507  0.6943  0.0611  0.5708
   15SAPS  H13R 1925   5.391   5.013   7.449  1.0902 -1.1917 -0.2769
   15SAPS  H13S 1926   5.478   5.076   7.592  0.5849  1.3071 -0.4730
   15SAPS  C214 1927   5.506   4.864   7.561  0.8887 -0.4289 -0.2665
   15SAPS  H14R 1928   5.529   4.787   7.487 -1.6616 -1.5220 -0.0006
   15SAPS  C215 1929   5.463   4.827   7.688  0.6246 -0.1774 -0.3806
   15SAPS  H15R 1930   5.475   4.722   7.719 -0.0446 -0.6295 -1.6255
   15SAPS  C216 1931   5.394   4.918   7.791  0.0782 -0.2387 -0.4340
   15SAPS  H16R 1932   5.286   4.933   7.771 -0.3581 -0.6243  1.4513
   15SAPS  H16S 1933   5.451   5.012   7.807  0.0330 -0.1886 -0.5715
   15SAPS  C217 1934   5.399   4.858   7.934  0.3768  0.5754  1.1396
   15SAPS  H17R 1935   5.382   4.748   7.937 -1.2041  0.7285 -0.8860
   15SAPS  H17S 1936   5.313   4.900   7.990 -0.4573 -0.6916  0.8336
   15SAPS  C218 1937   5.526   4.895   8.013 -0.6209  0.5112  0.1073
   15SAPS  H18R 1938   5.540   5.004   8.003 -1.4100  0.4880 -1.3647
   15SAPS  H18S 1939   5.606   4.847   7.952  1.5892 -1.3750  4.2514
   15SAPS  C219 1940   5.525   4.851   8.159 -0.1352 -0.5723 -0.7690
   15SAPS  H19R 1941   5.513   4.741   8.167  2.3498 -0.7215  1.1433
   15SAPS  H19S 1942   5.436   4.893   8.212  1.0855  0.0940  0.7748
   15SAPS  C220 1943   5.649   4.882   8.237  0.3428  0.3744  0.0830
   15SAPS  H20R 1944   5.735   4.816   8.212  0.2343 -0.8672  2.8081
   15SAPS  H20S 1945   5.631   4.853   8.343 -1.8919 -1.1457 -0.6709
   15SAPS  H20T 1946   5.685   4.986   8.224 -0.7169  0.6895 -0.4100
   15SAPS   C33 1947   5.926   4.311   6.814  0.7995 -0.0535  0.1543
   15SAPS   H3X 1948   5.866   4.378   6.748  0.8756 -2.0747 -2.0151
   15SAPS   H3Y 1949   6.019   4.353   6.859  0.0232 -1.1386  2.8369
   15SAPS   C34 1950   5.837   4.287   6.940  0.1641 -0.3132 -0.1317
   15SAPS   H4X 1951   5.865   4.189   6.982 -2.7575 -2.3706 -2.7231
   15SAPS   H4Y 1952   5.733   4.273   6.904  0.2192 -1.9278  0.3100
   15SAPS   C35 1953   5.839   4.396   7.046 -0.5974 -0.2054  0.1588
   15SAPS   H5X 1954   5.806   4.488   6.993  0.1293 -0.4041 -0.6658
   15SAPS   H5Y 1955   5.943   4.415   7.081 -0.1514  0.6588 -1.5543
   15SAPS   C36 1956   5.751   4.362   7.166  0.1989  0.3369 -0.4823
   15SAPS   H6X 1957   5.790   4.267   7.210  3.0525  2.0538  0.8188
   15SAPS   H6Y 1958   5.652   4.350   7.116  0.3199  0.0043 -0.6435
   15SAPS   C37 1959   5.743   4.472   7.276 -0.9873  0.1228  0.1850
   15SAPS   H7X 1960   5.696   4.563   7.234 -0.3550 -0.9095 -2.8568
   15SAPS   H7Y 1961   5.848   4.491   7.309 -0.6081 -1.3328 -0.1464
   15SAPS   C38 1962   5.679   4.427   7.406  0.5643  0.6883 -0.2967
   15SAPS   H8X 1963   5.688   4.318   7.426 -3.4086  0.2324 -0.5674
   15SAPS   H8Y 1964   5.569   4.436   7.398  0.5773  0.2263 -0.9757
   15SAPS   C39 1965   5.724   4.498   7.537  0.3989  0.1208 -0.1246
   15SAPS   H9X 1966   5.698   4.606   7.525 -0.2174  0.2585  2.3630
   15SAPS   H9Y 1967   5.833   4.495   7.560  0.2949 -3.0404  0.1739
   15SAPS  C310 1968   5.656   4.459   7.672 -0.1807 -0.1060  0.5571
   15SAPS  H10X 1969   5.676   4.350   7.680  2.0260  0.1157 -1.3733
   15SAPS  H10Y 1970   5.547   4.476   7.660  0.3455  0.7437 -4.0812
   15SAPS  C311 1971   5.718   4.528   7.800 -0.0017 -0.1179 -0.1946
   15SAPS  H11X 1972   5.705   4.638   7.789  3.5409  0.1462 -2.5033
   15SAPS  H11Y 1973   5.824   4.512   7.830  0.1344 -1.0101 -1.1616
   15SAPS  C312 1974   5.623   4.499   7.923  0.2100 -0.7269  0.3448
   15SAPS  H12X 1975   5.576   4.399   7.914  0.2627 -0.5648 -2.2236
   15SAPS  H12Y 1976   5.540   4.573   7.917  0.5237 -0.2783  1.5134
   15SAPS  C313 1977   5.697   4.502   8.059  0.0393 -0.2187 -0.3630
   15SAPS  H13X 1978   5.754   4.598   8.069 -0.1034 -0.3731  2.3900
   15SAPS  H13Y 1979   5.779   4.427   8.059  1.3048  1.1482  0.0806
   15SAPS  C314 1980   5.610   4.466   8.180 -0.4090  0.6915  0.4045
   15SAPS  H14X 1981   5.590   4.358   8.165 -0.4725  0.8912 -0.9317
   15SAPS  H14Y 1982   5.514   4.521   8.179 -1.0324 -0.4012 -1.3961
   15SAPS  C315 1983   5.684   4.490   8.313 -0.6984 -0.6894  0.4493
   15SAPS  H15X 1984   5.681   4.600   8.327 -0.3470  0.0695 -4.5438
   15SAPS  H15Y 1985   5.788   4.452   8.309 -0.2888  0.6327 -2.1193
   15SAPS  C316 1986   5.621   4.448   8.444  0.7800  0.0254  0.1884
   15SAPS  H16X 1987   5.644   4.340   8.456 -0.3717 -0.2343  0.1725
   15SAPS  H16Y 1988   5.511   4.463   8.440  0.9794  1.3782 -0.5220
   15SAPS  C317 1989   5.673   4.527   8.566 -0.6929 -0.7124 -0.6500
   15SAPS  H17X 1990   5.618   4.488   8.655 -0.8793 -0.6775 -0.7493
   15SAPS  H17Y 1991   5.644   4.633   8.554 -0.9039 -0.2587  3.1246
   15SAPS  C318 1992   5.824   4.513   8.589 -0.3060  0.8730 -0.1836
   15SAPS  H18X 1993   5.884   4.548   8.503 -0.6816 -2.4510 -1.8579
   15SAPS  H18Y 1994   5.850   4.405   8.581 -1.4839  0.5720 -0.1187
   15SAPS  H18Z 1995   5.858   4.566   8.681 -0.0525 -0.9659  0.8061
   16SAPS     N 1996   1.059   6.693   6.460  0.2431 -0.2994  0.3916
   16SAPS   HN1 1997   1.127   6.647   6.524  2.7491 -0.6118 -2.3437
   16SAPS   HN2 1998   1.055   6.650   6.365 -0.5418  0.6750 -0.0332
   16SAPS   HN3 1999   1.093   6.789   6.439  0.0676 -0.2605  0.2812
   16SAPS   C12 2000   0.922   6.692   6.528 -0.7096  0.0076  0.1104
   16SAPS  H12A 2001   0.914   6.722   6.631  0.2539  0.4342  0.0631
   16SAPS   C13 2002   0.818   6.772   6.454  0.1520  0.1466 -0.2855
   16SAPS  O13A 2003   0.848   6.853   6.363  0.5062 -0.4796 -0.4740
   16SAPS  O13B 2004   0.698   6.757   6.485 -0.3403 -0.6288  0.0278
   16SAPS   C11 2005   0.879   6.541   6.521 -0.0270 -0.0072  0.2618
   16SAPS  H11A 2006   0.867   6.510   6.415 -0.3445 -2.1555  0.9063
   16SAPS  H11B 2007   0.780   6.551   6.570  0.1250  0.1145  0.5448
   16SAPS     P 2008   0.916   6.303   6.621 -0.1566 -0.3154 -0.0809
   16SAPS   O13 2009   0.820   6.265   6.516  0.0379  1.0131  0.3205
   16SAPS   O14 2010   1.032   6.215   6.648 -0.3760  0.1385 -0.1680
   16SAPS   O12 2011   0.966   6.445   6.582  0.2524 -0.2052  0.4890
   16SAPS   O11 2012   0.847   6.339   6.756  0.2711 -0.5088  0.2426
   16SAPS    C1 2013   0.865   6.460   6.831  0.0589  0.7449  0.4252
   16SAPS    HA 2014   0.975   6.474   6.845  1.0911 -3.3730 -2.6427
   16SAPS    HB 2015   0.825   6.542   6.768 -0.3973  0.5688  0.4848
   16SAPS    C2 2016   0.789   6.454   6.963 -0.4146 -0.8263 -0.5238
   16SAPS    HS 2017   0.806   6.553   7.011  0.6544 -2.1987  2.0582
   16SAPS   O21 2018   0.833   6.338   7.032  0.2448  0.1249 -0.8027
   16SAPS   C21 2019   0.943   6.350   7.094 -0.4155 -0.4389  0.1017
   16SAPS   O22 2020   1.024   6.442   7.080 -0.2550 -0.3959 -0.2236
   16SAPS   C22 2021   0.966   6.218   7.169 -0.1979 -0.4374 -0.3561
   16SAPS   H2R 2022   0.890   6.143   7.140 -2.3749  1.4171  0.4256
   16SAPS   H2S 2023   1.063   6.185   7.125 -0.0289 -1.9170  1.0982
   16SAPS    C3 2024   0.638   6.456   6.938 -0.0610 -0.0076  1.0473
   16SAPS    HX 2025   0.614   6.371   6.870  0.1844  2.1769 -1.8805
   16SAPS    HY 2026   0.610   6.551   6.887 -1.2335 -1.0374 -0.3011
   16SAPS   O31 2027   0.567   6.448   7.068  0.2342  0.0235  0.4301
   16SAPS   C31 2028   0.549   6.329   7.119  0.1625  0.2739 -0.1258
   16SAPS   O32 2029   0.588   6.222   7.078 -0.4337  0.0615 -0.1350
   16SAPS   C32 2030   0.459   6.344   7.237  0.1990  0.4164 -0.2756
   16SAPS   H2X 2031   0.363   6.386   7.200  0.8887  0.4345 -2.0754
   16SAPS   H2Y 2032   0.506   6.412   7.311 -0.8594 -1.0876  1.8282
   16SAPS   C23 2033   0.958   6.237   7.329  0.9824  0.1056  0.4539
   16SAPS   H3R 2034   1.025   6.320   7.359  1.8888 -0.7942  0.9595
   16SAPS   H3S 2035   1.010   6.143   7.357  0.1845 -0.2121  0.8855
   16SAPS   C24 2036   0.822   6.255   7.382 -1.1153  0.3530 -0.2095
   16SAPS   H4R 2037   0.808   6.201   7.478  0.6842  1.0882  0.4960
   16SAPS   H4S 2038   0.751   6.207   7.311 -2.8258 -0.8167  2.2333
   16SAPS   C25 2039   0.777   6.395   7.386  0.0535  1.0116  0.1552
   16SAPS   H5R 2040   0.759   6.446   7.290 -2.7472  2.1866  1.2246
   16SAPS   C26 2041   0.754   6.467   7.500  0.5628  0.0048  0.9401
   16SAPS   H6R 2042   0.715   6.569   7.488  1.6810  0.0504 -2.9939
   16SAPS   C27 2043   0.772   6.423   7.636  0.3403  0.3782 -0.4589
   16SAPS   H7R 2044   0.808   6.510   7.697 -0.0716 -0.2601  0.7151
   16SAPS   H7S 2045   0.851   6.347   7.656 -0.5030  0.2725  2.8554
   16SAPS   C28 2046   0.657   6.356   7.703 -0.9441  0.1633 -0.7131
   16SAPS   H8R 2047   0.572   6.336   7.636 -2.2756 -1.9592  1.5337
   16SAPS   C29 2048   0.649   6.327   7.831  0.0880  0.0364  0.5299
   16SAPS   H9R 2049   0.563   6.266   7.863 -0.6710  0.3389 -0.8896
   16SAPS  C210 2050   0.758   6.349   7.925 -0.0768  0.0069 -0.3552
   16SAPS  H10R 2051   0.810   6.445   7.904  1.1289 -0.5802 -0.0543
   16SAPS  H10S 2052   0.835   6.271   7.913  2.3051  2.4797 -1.7757
   16SAPS  C211 2053   0.703   6.344   8.062  0.3968 -0.3305 -0.1276
   16SAPS  H11R 2054   0.597   6.317   8.069  0.1208 -0.0542 -2.8923
   16SAPS  C212 2055   0.775   6.351   8.176 -0.0517  0.4072 -0.4842
   16SAPS  H12R 2056   0.726   6.356   8.274  0.3624 -1.1070 -0.1906
   16SAPS  C213 2057   0.920   6.384   8.179  0.4164  0.8357 -0.5087
   16SAPS  H13R 2058   0.920   6.485   8.131 -0.5212  0.8483 -0.5016
   16SAPS  H13S 2059   0.979   6.321   8.109  3.7370  2.6816  0.5193
   16SAPS  C214 2060   0.986   6.393   8.320  0.2497  0.6391  0.2013
   16SAPS  H14R 2061   1.069   6.324   8.342  1.2017  1.7596  0.1656
   16SAPS  C215 2062   0.936   6.462   8.428  0.9692 -0.1352  0.1583
   16SAPS  H15R 2063   0.992   6.448   8.522 -2.3315 -1.8697  1.9847
   16SAPS  C216 2064   0.804   6.542   8.446 -0.6517  0.7067  0.9200
   16SAPS  H16R 2065   0.753   6.490   8.530  0.0966 -0.0966  0.8731
   16SAPS  H16S 2066   0.737   6.525   8.358  0.8133 -0.4333  0.0062
   16SAPS  C217 2067   0.849   6.689   8.466 -0.6722  0.5371 -0.6952
   16SAPS  H17R 2068   0.757   6.750   8.472 -1.5614 -0.8088 -0.5032
   16SAPS  H17S 2069   0.909   6.715   8.376  4.2368  1.8260  2.7429
   16SAPS  C218 2070   0.929   6.712   8.591  0.1780  0.2331  0.4683
   16SAPS  H18R 2071   1.032   6.678   8.571  0.6789  1.5232  0.7618
   16SAPS  H18S 2072   0.883   6.653   8.673 -0.6333 -0.0092 -0.1475
   16SAPS  C219 2073   0.936   6.862   8.626 -0.6098 -0.4065  0.5380
   16SAPS  H19R 2074   0.984   6.875   8.726  0.8383 -0.3888 -0.1381
   16SAPS  H19S 2075   0.831   6.897   8.639 -1.0963 -1.9661  0.8640
   16SAPS  C220 2076   1.011   6.949   8.523  0.4714 -0.0746  0.9018
   16SAPS  H20R 2077   1.012   7.057   8.547 -1.3500  0.3617 -0.8636
   16SAPS  H20S 2078   0.981   6.935   8.417  2.5532  2.0810 -0.0173
   16SAPS  H20T 2079   1.118   6.919   8.518  0.3279 -0.4442 -0.2802
   16SAPS   C33 2080   0.446   6.217   7.324 -0.2734 -0.9326 -0.2153
   16SAPS   H3X 2081   0.541   6.202   7.379 -1.1587 -1.5544  1.1709
   16SAPS   H3Y 2082   0.419   6.125   7.268 -0.0052 -0.8425 -0.4913
   16SAPS   C34 2083   0.337   6.250   7.427 -0.2830  0.2585 -0.4359
   16SAPS   H4X 2084   0.237   6.261   7.380 -1.5536  2.9457  2.6714
   16SAPS   H4Y 2085   0.361   6.343   7.483  2.3833 -0.3220 -0.5399
   16SAPS   C35 2086   0.312   6.137   7.532  0.1853  0.0388  1.3958
   16SAPS   H5X 2087   0.413   6.104   7.561 -0.1757 -2.4048 -0.0449
   16SAPS   H5Y 2088   0.253   6.052   7.492  2.1749 -0.8656  0.3703
   16SAPS   C36 2089   0.221   6.168   7.652 -0.6536 -0.1519  0.1748
   16SAPS   H6X 2090   0.207   6.078   7.715  0.1363  0.1545  0.7989
   16SAPS   H6Y 2091   0.120   6.195   7.617 -1.0528  0.9504  2.1380
   16SAPS   C37 2092   0.268   6.286   7.733 -0.0826  0.7149 -0.4324
   16SAPS   H7X 2093   0.249   6.382   7.681 -0.0932  0.4738 -0.8758
   16SAPS   H7Y 2094   0.378   6.271   7.726 -0.5746 -2.5097 -1.9586
   16SAPS   C38 2095   0.218   6.278   7.879  0.3882 -0.2232 -0.6574
   16SAPS   H8X 2096   0.249   6.179   7.920  1.2583  0.8940  1.4840
   16SAPS   H8Y 2097   0.108   6.292   7.890  0.5873  0.8769  0.0110
   16SAPS   C39 2098   0.287   6.381   7.975 -0.7728 -0.2548 -0.7423
   16SAPS   H9X 2099   0.256   6.485   7.951  0.9912 -0.0223 -2.0598
   16SAPS   H9Y 2100   0.398   6.374   7.971 -0.6322  1.8311 -1.2789
   16SAPS  C310 2101   0.253   6.354   8.128 -0.2481  0.4692  0.0351
   16SAPS  H10X 2102   0.319   6.430   8.176  1.9235 -1.6564  0.5292
   16SAPS  H10Y 2103   0.299   6.255   8.148  0.4790  1.2834  2.4834
   16SAPS  C311 2104   0.101   6.367   8.161  0.1961 -0.3750  0.7479
   16SAPS  H11X 2105   0.043   6.279   8.126  3.1460 -0.6693 -3.7984
   16SAPS  H11Y 2106   0.067   6.460   8.112  1.2199 -0.8110 -0.8314
   16SAPS  C312 2107   0.073   6.388   8.302  0.8299 -0.1433  0.2822
   16SAPS  H12X 2108   0.137   6.475   8.329  0.0710  0.9709 -1.4542
   16SAPS  H12Y 2109   0.103   6.298   8.361  0.8124 -1.0667 -1.1001
   16SAPS  C313 2110  -0.074   6.407   8.361  0.5997 -0.6912 -0.2063
   16SAPS  H13X 2111  -0.137   6.320   8.332 -2.0731  1.6790 -1.7401
   16SAPS  H13Y 2112  -0.110   6.505   8.325 -0.0277  0.0916  2.4451
   16SAPS  C314 2113  -0.062   6.442   8.507 -0.0173 -0.1626  0.3344
   16SAPS  H14X 2114  -0.007   6.539   8.510 -0.0684 -0.0451 -1.4602
   16SAPS  H14Y 2115  -0.004   6.367   8.565 -2.6259 -1.7617  0.9278
   16SAPS  C315 2116  -0.195   6.455   8.585  0.2947  0.9828  0.6797
   16SAPS  H15X 2117  -0.254   6.537   8.539 -0.3576 -0.4244 -1.0618
   16SAPS  H15Y 2118  -0.173   6.481   8.691  1.3219 -2.0287  1.2648
   16SAPS  C316 2119  -0.270   6.313   8.583 -0.9732  0.4294  0.0559
   16SAPS  H16X 2120  -0.213   6.256   8.660 -0.0507 -0.3111 -1.1613
   16SAPS  H16Y 2121  -0.254   6.265   8.484  0.3094  1.1948 -0.1201
   16SAPS  C317 2122  -0.414   6.305   8.633  0.0901  0.3825 -0.6540
   16SAPS  H17X 2123  -0.480   6.358   8.562 -1.3504 -1.4969 -0.7745
   16SAPS  H17Y 2124  -0.410   6.363   8.728  0.1243  2.1135 -1.7009
   16SAPS  C318 2125  -0.490   6.174   8.653 -0.5544 -0.8201 -0.2843
   16SAPS  H18X 2126  -0.425   6.105   8.710  0.9940  0.4669 -0.4627
   16SAPS  H18Y 2127  -0.504   6.125   8.555 -1.3345  0.6809 -0.9424
   16SAPS  H18Z 2128  -0.587   6.183   8.707 -1.0706  0.3171 -1.3949
   17SAPC     N 2129   5.777   2.241  10.648  0.0076  0.0375 -0.0340
   17SAPC   C12 2130   5.631   2.211  10.623 -0.2445 -0.4028  0.6130
   17SAPC  H12A 2131   5.603   2.262  10.532 -2.3035  0.4631  1.6852
   17SAPC  H12B 2132   5.577   2.248  10.709 -1.4807  0.6360 -0.6037
   17SAPC   C13 2133   5.857   2.178  10.537 -0.1905  0.8423 -0.2718
   17SAPC  H13A 2134   5.855   2.072  10.556  0.9858  0.8323 -0.1816
   17SAPC  H13B 2135   5.821   2.194  10.437  2.4441  0.5797 -1.2740
   17SAPC  H13C 2136   5.960   2.207  10.549 -0.8534  2.6883  1.2992
   17SAPC   C14 2137   5.807   2.388  10.650 -0.2980  0.2487  0.0222
   17SAPC  H14A 2138   5.908   2.420  10.671  0.0363  1.0309 -2.5459
   17SAPC  H14B 2139   5.780   2.431  10.554 -0.5371 -0.8994 -0.4374
   17SAPC  H14C 2140   5.746   2.435  10.726 -1.9773 -3.3573  1.0194
   17SAPC   C15 2141   5.821   2.176  10.777 -0.2001 -0.1972 -0.0514
   17SAPC  H15A 2142   5.766   2.216  10.861 -0.9934  0.7641 -1.0053
   17SAPC  H15B 2143   5.799   2.071  10.783 -1.2592  0.0866  1.2324
   17SAPC  H15C 2144   5.927   2.171  10.793  0.0147 -3.0128 -2.0439
   17SAPC   C11 2145   5.596   2.059  10.616  0.1845  0.4070 -0.3927
   17SAPC  H11A 2146   5.610   2.013  10.717  0.4076  0.4603 -0.3998
   17SAPC  H11B 2147   5.673   2.002  10.560  0.7806  1.1398 -0.3245
   17SAPC     P 2148   5.444   2.076  10.396 -0.3085 -0.2508  0.1017
   17SAPC   O13 2149   5.305   2.049  10.359 -0.3432 -0.7059 -0.1420
   17SAPC   O14 2150   5.481   2.216  10.387 -0.0281  0.3280  0.8050
   17SAPC   O12 2151   5.472   2.026  10.550 -0.5409  0.1224  0.4373
   17SAPC   O11 2152   5.535   1.982  10.310  0.2424  0.5127 -0.3412
   17SAPC    C1 2153   5.536   1.841  10.328  0.2613 -0.3888  1.0876
   17SAPC    HA 2154   5.635   1.819  10.375  0.7894 -1.1113 -0.3414
   17SAPC    HB 2155   5.464   1.805  10.405 -2.0272 -0.2460 -0.9435
   17SAPC    C2 2156   5.513   1.758  10.195 -0.4810 -0.1388 -0.2826
   17SAPC    HS 2157   5.495   1.651  10.222 -0.5470  0.6056  2.8235
   17SAPC   O21 2158   5.610   1.784  10.099 -0.0198  0.2281  0.1316
   17SAPC   C21 2159   5.727   1.727  10.108 -0.4115 -0.5338 -0.4597
   17SAPC   O22 2160   5.771   1.674  10.210  0.2392 -0.9508 -0.3523
   17SAPC   C22 2161   5.811   1.749   9.981 -0.5803  0.1223 -0.2472
   17SAPC   H2R 2162   5.858   1.848  10.001 -1.0582  0.4119 -0.5576
   17SAPC   H2S 2163   5.884   1.666   9.976 -0.1260  0.5443 -0.7235
   17SAPC    C3 2164   5.378   1.808  10.142  0.2181  0.0964 -0.3896
   17SAPC    HX 2165   5.382   1.919  10.132  0.4751  0.0032 -1.3103
   17SAPC    HY 2166   5.299   1.788  10.217  2.3491  0.4545  2.0377
   17SAPC   O31 2167   5.346   1.741  10.020  0.2558 -0.1436  0.1311
   17SAPC   C31 2168   5.253   1.809   9.943  0.1131 -0.1753 -0.4948
   17SAPC   O32 2169   5.186   1.898   9.987 -0.3845 -0.4682  0.3008
   17SAPC   C32 2170   5.221   1.725   9.816 -0.0608  0.2547  0.1723
   17SAPC   H2X 2171   5.112   1.705   9.818 -0.3750  1.5907 -1.8797
   17SAPC   H2Y 2172   5.272   1.626   9.822 -0.6182 -0.0629 -0.2154
   17SAPC   C23 2173   5.734   1.770   9.848 -0.2483  0.3321  1.3091
   17SAPC   H3R 2174   5.689   1.871   9.845  0.8297  0.8339  1.7126
   17SAPC   H3S 2175   5.652   1.695   9.837 -0.8119  1.3370 -1.6755
   17SAPC   C24 2176   5.838   1.762   9.733 -0.0419  0.3977 -0.0825
   17SAPC   H4R 2177   5.870   1.657   9.717  0.9338  0.6165  0.3874
   17SAPC   H4S 2178   5.924   1.829   9.757  0.1034  0.0407  0.4043
   17SAPC   C25 2179   5.790   1.809   9.598 -0.1876 -0.2630  0.0024
   17SAPC   H5R 2180   5.732   1.902   9.602 -0.9744 -0.6099 -2.6774
   17SAPC   C26 2181   5.812   1.751   9.481 -0.6236 -0.5820 -0.7729
   17SAPC   H6R 2182   5.793   1.805   9.387 -0.3250 -0.4454 -0.7552
   17SAPC   C27 2183   5.887   1.628   9.442 -0.1167 -0.3218  0.6312
   17SAPC   H7R 2184   5.911   1.572   9.535 -1.3220  0.5363  1.4803
   17SAPC   H7S 2185   5.981   1.665   9.396  0.5730 -1.6479  0.9637
   17SAPC   C28 2186   5.793   1.544   9.362  0.0885  0.0029  0.7024
   17SAPC   H8R 2187   5.727   1.468   9.407  0.3262 -2.0113 -2.2219
   17SAPC   C29 2188   5.810   1.516   9.227 -0.4279  0.1928 -0.2298
   17SAPC   H9R 2189   5.731   1.457   9.180 -0.5151  1.6995 -2.0461
   17SAPC  C210 2190   5.919   1.563   9.126 -0.1495 -0.1543  0.1738
   17SAPC  H10R 2191   5.955   1.486   9.055  2.4139 -0.0406  1.3226
   17SAPC  H10S 2192   6.006   1.609   9.176  1.7791 -3.0020 -0.4598
   17SAPC  C211 2193   5.840   1.673   9.050 -0.8914 -0.0585  0.3769
   17SAPC  H11R 2194   5.845   1.777   9.088  1.3791  0.1439 -0.4078
   17SAPC  C212 2195   5.764   1.664   8.937  1.0475  0.4727 -0.3469
   17SAPC  H12R 2196   5.714   1.755   8.899 -0.3408 -0.8309 -1.7026
   17SAPC  C213 2197   5.746   1.538   8.859 -0.4863  0.3770 -0.4065
   17SAPC  H13R 2198   5.640   1.539   8.827 -0.7668  0.3293  0.5261
   17SAPC  H13S 2199   5.757   1.447   8.921 -3.4755 -1.0185 -1.8319
   17SAPC  C214 2200   5.859   1.540   8.755  0.1366  0.3468  0.1265
   17SAPC  H14R 2201   5.956   1.530   8.805  0.1168 -1.6648 -0.2206
   17SAPC  C215 2202   5.854   1.558   8.620 -0.7289 -0.2010  0.3169
   17SAPC  H15R 2203   5.952   1.566   8.569 -1.1059 -1.6300 -0.6417
   17SAPC  C216 2204   5.733   1.590   8.535  0.1651 -0.4116  0.2466
   17SAPC  H16R 2205   5.635   1.563   8.580 -1.1463 -0.6383 -2.6153
   17SAPC  H16S 2206   5.737   1.529   8.441  1.2118  1.3841 -0.9054
   17SAPC  C217 2207   5.742   1.743   8.497 -0.3236 -0.0727  0.7309
   17SAPC  H17R 2208   5.823   1.745   8.421 -0.0952 -0.9637  0.9398
   17SAPC  H17S 2209   5.761   1.804   8.588  2.1771 -0.2405  0.3519
   17SAPC  C218 2210   5.607   1.793   8.433 -0.3478 -0.2253 -0.5881
   17SAPC  H18R 2211   5.548   1.830   8.519 -0.4773  1.0178 -1.1939
   17SAPC  H18S 2212   5.552   1.713   8.379  1.4922 -1.1092 -1.1891
   17SAPC  C219 2213   5.616   1.907   8.327  0.2174  0.0723 -0.0258
   17SAPC  H19R 2214   5.682   1.980   8.378  1.5099  1.2631 -3.2799
   17SAPC  H19S 2215   5.512   1.937   8.302 -0.3421 -0.3068  1.7734
   17SAPC  C220 2216   5.696   1.863   8.205  0.3781 -0.6988  0.0617
   17SAPC  H20R 2217   5.639   1.809   8.127  0.9219  0.1546 -0.9499
   17SAPC  H20S 2218   5.786   1.806   8.234 -0.3824 -1.4352  0.9792
   17SAPC  H20T 2219   5.733   1.956   8.155 -1.3053  0.2321  0.5092
   17SAPC   C33 2220   5.259   1.794   9.680 -0.2593 -0.1393  0.3609
   17SAPC   H3X 2221   5.243   1.904   9.685 -0.3745 -0.1632  0.5087
   17SAPC   H3Y 2222   5.192   1.751   9.603  0.1608 -1.4961  0.7310
   17SAPC   C34 2223   5.397   1.771   9.630 -0.2979  0.7659  0.5331
   17SAPC   H4X 2224   5.409   1.660   9.633 -2.1432  0.5449  0.4484
   17SAPC   H4Y 2225   5.476   1.817   9.693 -0.1741 -1.6327  2.2419
   17SAPC   C35 2226   5.414   1.818   9.485 -0.8158 -0.3319  0.1199
   17SAPC   H5X 2227   5.517   1.791   9.452 -0.7285  2.0029 -1.6552
   17SAPC   H5Y 2228   5.403   1.929   9.484  0.8900 -0.1343  0.1294
   17SAPC   C36 2229   5.319   1.757   9.385  0.2444 -0.2602 -0.2791
   17SAPC   H6X 2230   5.216   1.796   9.383 -0.5379 -2.2398 -0.1268
   17SAPC   H6Y 2231   5.310   1.648   9.406 -2.3830  0.1076  0.6306
   17SAPC   C37 2232   5.377   1.762   9.245 -0.3242  0.1293  0.0514
   17SAPC   H7X 2233   5.467   1.698   9.244 -0.0589  0.3911  2.5526
   17SAPC   H7Y 2234   5.413   1.860   9.207  0.1306  0.0461  0.2672
   17SAPC   C38 2235   5.281   1.714   9.138  0.8976  0.0428  0.3312
   17SAPC   H8X 2236   5.204   1.793   9.127 -1.4596 -2.2391  0.2242
   17SAPC   H8Y 2237   5.220   1.629   9.174  0.3626  0.5179  0.5536
   17SAPC   C39 2238   5.339   1.687   8.995 -0.0646  0.8409 -0.2705
   17SAPC   H9X 2239   5.423   1.615   8.990 -0.6873  0.2353 -2.6864
   17SAPC   H9Y 2240   5.372   1.784   8.952  0.7583  1.1146  0.9830
   17SAPC  C310 2241   5.237   1.623   8.889  0.6378 -1.0230  0.2746
   17SAPC  H10X 2242   5.160   1.692   8.850 -0.3953 -2.7031 -0.7581
   17SAPC  H10Y 2243   5.196   1.529   8.933  5.1563 -1.8813  2.9206
   17SAPC  C311 2244   5.318   1.570   8.769 -0.2429 -0.2399  0.3459
   17SAPC  H11X 2245   5.398   1.502   8.803  1.6765  1.9893  0.4028
   17SAPC  H11Y 2246   5.369   1.651   8.713 -4.1625  1.0212 -1.5798
   17SAPC  C312 2247   5.230   1.480   8.685 -0.4564  0.2343 -0.4545
   17SAPC  H12X 2248   5.145   1.541   8.647 -0.1919 -0.5499 -2.3728
   17SAPC  H12Y 2249   5.190   1.397   8.747 -0.2944 -0.2047 -0.9353
   17SAPC  C313 2250   5.314   1.413   8.571  0.7596 -0.1610  0.6647
   17SAPC  H13X 2251   5.384   1.354   8.632  0.9194  0.8079  1.4373
   17SAPC  H13Y 2252   5.364   1.496   8.516  1.3567 -0.2266  1.1074
   17SAPC  C314 2253   5.231   1.335   8.468 -0.1443 -0.4671 -0.1458
   17SAPC  H14X 2254   5.163   1.403   8.412 -1.8222 -0.0661  2.3201
   17SAPC  H14Y 2255   5.167   1.269   8.531  2.5431 -1.5493  1.5572
   17SAPC  C315 2256   5.314   1.243   8.376 -0.2774 -0.0623  0.5280
   17SAPC  H15X 2257   5.400   1.203   8.434  2.1548  0.2357 -2.6765
   17SAPC  H15Y 2258   5.357   1.305   8.294  1.7468  0.4354  1.9261
   17SAPC  C316 2259   5.249   1.114   8.324 -0.3354  0.2815  0.1085
   17SAPC  H16X 2260   5.168   1.147   8.255  0.1488  1.9232  0.2949
   17SAPC  H16Y 2261   5.206   1.063   8.413  5.9617 -0.9298  2.6585
   17SAPC  C317 2262   5.342   1.009   8.262  0.2796  0.0379 -0.3142
   17SAPC  H17X 2263   5.392   1.038   8.167 -3.4980 -0.0056 -2.4140
   17SAPC  H17Y 2264   5.274   0.923   8.245  0.7814 -0.9184  2.2539
   17SAPC  C318 2265   5.457   0.959   8.358 -0.4311 -0.2379  0.4999
   17SAPC  H18X 2266   5.504   0.868   8.316  0.2103  0.3005  0.0469
   17SAPC  H18Y 2267   5.533   1.041   8.359  0.4057 -1.0071  0.6432
   17SAPC  H18Z 2268   5.422   0.938   8.461 -1.3256  0.4385  0.3445
   18SAPC     N 2269   5.003   1.071  10.632  0.2713  0.2794 -0.1111
   18SAPC   C12 2270   4.970   1.113  10.488  0.1648  0.4663  0.6008
   18SAPC  H12A 2271   4.883   1.177  10.489  0.0236  0.3515 -1.6230
   18SAPC  H12B 2272   4.938   1.027  10.432 -0.3497  0.3967  0.9944
   18SAPC   C13 2273   5.135   1.013  10.642 -0.0668 -0.0892 -1.4053
   18SAPC  H13A 2274   5.134   0.924  10.581  1.6473 -0.6544 -0.6312
   18SAPC  H13B 2275   5.210   1.078  10.602  0.3807 -0.6620 -1.5081
   18SAPC  H13C 2276   5.168   0.972  10.737 -1.0892  1.0963 -0.5160
   18SAPC   C14 2277   4.997   1.183  10.723 -0.3638  0.4054  0.3973
   18SAPC  H14A 2278   5.046   1.272  10.686 -2.0524  0.4435 -1.8332
   18SAPC  H14B 2279   4.893   1.207  10.741  0.5827  3.6089  1.9714
   18SAPC  H14C 2280   5.039   1.153  10.818  1.0467 -1.3027 -0.7493
   18SAPC   C15 2281   4.912   0.968  10.698 -0.0851 -0.3157  0.1385
   18SAPC  H15A 2282   4.952   0.943  10.795  2.2224  1.2248 -0.3510
   18SAPC  H15B 2283   4.819   1.023  10.706  0.1749  0.4980 -1.9745
   18SAPC  H15C 2284   4.911   0.887  10.627  1.5865  0.0834 -0.3730
   18SAPC   C11 2285   5.087   1.183  10.409  0.1750 -0.0345  0.9837
   18SAPC  H11A 2286   5.057   1.210  10.306  0.7231 -0.2885  0.7543
   18SAPC  H11B 2287   5.160   1.100  10.399 -1.7340 -1.6893  0.4650
   18SAPC     P 2288   5.279   1.328  10.510 -0.5069  0.1827  0.0470
   18SAPC   O13 2289   5.304   1.472  10.525 -0.2134 -0.2902  0.1842
   18SAPC   O14 2290   5.322   1.237  10.619 -0.4845  0.3419  0.1967
   18SAPC   O12 2291   5.133   1.303  10.477  0.2369 -0.1425  0.6465
   18SAPC   O11 2292   5.355   1.276  10.385  0.1761 -0.4911  0.4818
   18SAPC    C1 2293   5.322   1.321  10.252 -0.4410 -0.1017  0.0800
   18SAPC    HA 2294   5.213   1.331  10.233 -0.2929 -0.4654 -1.0306
   18SAPC    HB 2295   5.365   1.423  10.244  0.4331 -0.4782 -0.0434
   18SAPC    C2 2296   5.394   1.239  10.134 -0.3559  0.1730 -0.9675
   18SAPC    HS 2297   5.500   1.220  10.159 -0.2344 -0.0800 -1.6592
   18SAPC   O21 2298   5.378   1.316  10.014 -0.0044  0.3654 -0.8787
   18SAPC   C21 2299   5.481   1.407   9.996 -0.2779 -0.6031 -0.1609
   18SAPC   O22 2300   5.583   1.423  10.061 -0.9245  0.1524 -0.1382
   18SAPC   C22 2301   5.465   1.477   9.864  0.3035 -0.5463  0.1636
   18SAPC   H2R 2302   5.366   1.455   9.817 -1.2723  0.6171  2.8206
   18SAPC   H2S 2303   5.464   1.587   9.880  1.2703 -0.4047 -0.7023
   18SAPC    C3 2304   5.326   1.097  10.107  0.1233 -0.4324  0.0450
   18SAPC    HX 2305   5.216   1.109  10.098  0.3036  1.3699  0.0624
   18SAPC    HY 2306   5.331   1.034  10.199  0.1198  0.1281  0.4375
   18SAPC   O31 2307   5.372   1.033   9.981  0.6673  0.2694 -0.6390
   18SAPC   C31 2308   5.464   0.944   9.990 -0.4599  0.1002 -0.4177
   18SAPC   O32 2309   5.534   0.928  10.090 -0.2159 -0.1076  0.0061
   18SAPC   C32 2310   5.482   0.875   9.851 -0.3431 -0.5325 -0.0910
   18SAPC   H2X 2311   5.487   0.951   9.769 -0.4917 -1.7695 -1.2705
   18SAPC   H2Y 2312   5.392   0.810   9.849 -0.4528 -0.3476 -1.8053
   18SAPC   C23 2313   5.582   1.449   9.764  0.5370  0.4759  0.5265
   18SAPC   H3R 2314   5.682   1.480   9.802  0.3010  1.0873  0.6593
   18SAPC   H3S 2315   5.556   1.501   9.669  0.2161 -1.6812 -0.6161
   18SAPC   C24 2316   5.587   1.305   9.720 -0.1797 -0.2503 -0.3779
   18SAPC   H4R 2317   5.622   1.254   9.812 -0.1749 -0.6391 -0.5910
   18SAPC   H4S 2318   5.667   1.288   9.645  0.9644 -1.4324  1.0741
   18SAPC   C25 2319   5.460   1.246   9.670  0.6698 -0.0313 -0.6865
   18SAPC   H5R 2320   5.385   1.216   9.745 -0.4494 -0.0187 -1.7850
   18SAPC   C26 2321   5.427   1.214   9.540 -0.5257  0.0073 -0.4077
   18SAPC   H6R 2322   5.329   1.167   9.522 -0.4027  0.1087 -1.3408
   18SAPC   C27 2323   5.514   1.224   9.418  0.3809  0.3149  0.4794
   18SAPC   H7R 2324   5.491   1.136   9.354  0.8911  1.1713 -0.9003
   18SAPC   H7S 2325   5.619   1.227   9.455 -0.0302 -0.0259  1.6975
   18SAPC   C28 2326   5.467   1.356   9.354  0.6054  0.2186 -0.4688
   18SAPC   H8R 2327   5.453   1.435   9.429 -1.4140 -1.9969  1.5597
   18SAPC   C29 2328   5.459   1.372   9.218  0.2836 -0.4429 -0.0091
   18SAPC   H9R 2329   5.468   1.476   9.185  0.2137 -0.2948  0.4378
   18SAPC  C210 2330   5.489   1.258   9.121  1.0592 -0.0898  0.0694
   18SAPC  H10R 2331   5.431   1.167   9.151 -0.3458  1.4099  2.1011
   18SAPC  H10S 2332   5.597   1.237   9.109  0.5732 -0.9104 -3.2094
   18SAPC  C211 2333   5.445   1.287   8.978  0.2615  0.3337  0.5142
   18SAPC  H11R 2334   5.445   1.396   8.965  0.3154  0.5692  2.2802
   18SAPC  C212 2335   5.428   1.193   8.879  0.2554  0.3503 -0.6682
   18SAPC  H12R 2336   5.390   1.229   8.783  1.0610  0.3043 -1.0026
   18SAPC  C213 2337   5.440   1.043   8.897  0.3700  0.4453 -0.1577
   18SAPC  H13R 2338   5.408   0.994   8.802 -1.0348  2.1712 -0.6013
   18SAPC  H13S 2339   5.370   1.014   8.978 -1.5918 -0.7345 -2.2331
   18SAPC  C214 2340   5.577   0.987   8.936  0.8321 -0.6191  1.1675
   18SAPC  H14R 2341   5.601   0.985   9.043 -0.4914 -0.6842  1.4669
   18SAPC  C215 2342   5.675   0.944   8.848  0.5017  0.5188  0.3742
   18SAPC  H15R 2343   5.772   0.924   8.895 -0.1038  0.5493  1.6690
   18SAPC  C216 2344   5.676   0.946   8.697  0.2895  0.1567  1.2178
   18SAPC  H16R 2345   5.577   0.918   8.656  1.1642 -0.7315 -0.3326
   18SAPC  H16S 2346   5.764   0.892   8.657 -0.8771  0.1962 -1.5664
   18SAPC  C217 2347   5.695   1.089   8.629  0.0307 -0.2555 -0.2775
   18SAPC  H17R 2348   5.614   1.160   8.657  0.0375 -1.1319  2.1013
   18SAPC  H17S 2349   5.691   1.072   8.519  2.1032 -0.8158 -0.2825
   18SAPC  C218 2350   5.830   1.163   8.658  0.3511  1.2505 -0.0942
   18SAPC  H18R 2351   5.831   1.202   8.762 -0.3628  1.5713 -0.2020
   18SAPC  H18S 2352   5.837   1.249   8.589 -1.3388  0.9225 -0.7131
   18SAPC  C219 2353   5.950   1.060   8.651 -0.3378 -0.0960 -0.0832
   18SAPC  H19R 2354   5.937   1.004   8.556  1.9581  0.9077 -1.0121
   18SAPC  H19S 2355   5.927   0.987   8.731 -0.7209 -2.0333 -1.9134
   18SAPC  C220 2356   6.083   1.136   8.661 -0.0537 -0.5620 -0.0811
   18SAPC  H20R 2357   6.090   1.211   8.580  2.1561 -0.6635 -0.0243
   18SAPC  H20S 2358   6.173   1.072   8.647  1.3585  1.1618  1.0305
   18SAPC  H20T 2359   6.091   1.181   8.762  1.1457 -0.5871 -0.1567
   18SAPC   C33 2360   5.612   0.782   9.846 -0.5063  0.1210 -0.3008
   18SAPC   H3X 2361   5.612   0.741   9.742  1.4168 -1.0404  0.1314
   18SAPC   H3Y 2362   5.605   0.697   9.917  0.5861  0.6836  0.4854
   18SAPC   C34 2363   5.737   0.863   9.859  0.3675 -0.3829 -0.5544
   18SAPC   H4X 2364   5.810   0.789   9.899  0.3115 -2.0874 -3.4446
   18SAPC   H4Y 2365   5.720   0.946   9.931  1.1512  0.2726 -1.1160
   18SAPC   C35 2366   5.778   0.925   9.729  0.0819  0.5917 -0.3424
   18SAPC   H5X 2367   5.836   1.020   9.741  1.4488 -0.2082 -0.4790
   18SAPC   H5Y 2368   5.690   0.950   9.667  0.7447  0.2720 -1.4270
   18SAPC   C36 2369   5.861   0.821   9.655  0.5192  0.9998 -0.2606
   18SAPC   H6X 2370   5.810   0.723   9.638 -0.9202  1.6685  0.1359
   18SAPC   H6Y 2371   5.950   0.798   9.718  1.0289 -0.3273 -1.4541
   18SAPC   C37 2372   5.894   0.869   9.513  0.1005  0.2416 -0.0237
   18SAPC   H7X 2373   5.978   0.801   9.487 -0.9452 -1.5975  1.3213
   18SAPC   H7Y 2374   5.934   0.972   9.502  0.7087  0.0744  0.6326
   18SAPC   C38 2375   5.777   0.863   9.416 -0.4003 -0.2943  0.1944
   18SAPC   H8X 2376   5.679   0.864   9.468 -0.6513  1.3249 -0.2722
   18SAPC   H8Y 2377   5.759   0.766   9.366 -2.3799  0.9213 -1.5312
   18SAPC   C39 2378   5.776   0.970   9.309 -0.2630 -0.4151 -0.5298
   18SAPC   H9X 2379   5.779   1.068   9.361  0.4188  0.1179 -1.5526
   18SAPC   H9Y 2380   5.680   0.962   9.254 -0.8843  0.4380  0.4267
   18SAPC  C310 2381   5.889   0.960   9.205 -0.3582  0.3667 -0.0083
   18SAPC  H10X 2382   5.993   0.968   9.241 -0.3691 -1.8974  0.6127
   18SAPC  H10Y 2383   5.870   1.042   9.133  1.7945  0.4790 -0.4551
   18SAPC  C311 2384   5.890   0.834   9.118  0.4849 -0.3503 -0.5277
   18SAPC  H11X 2385   5.789   0.816   9.075 -0.6581 -0.0342  1.9429
   18SAPC  H11Y 2386   5.920   0.743   9.174 -1.6293  0.7848  2.5709
   18SAPC  C312 2387   6.000   0.844   9.010  0.1241  0.2904 -0.0031
   18SAPC  H12X 2388   6.095   0.837   9.066  2.0181 -1.2026 -3.2956
   18SAPC  H12Y 2389   5.989   0.936   8.949  0.0509 -0.4119 -1.0674
   18SAPC  C313 2390   5.999   0.727   8.921 -0.3954 -0.3989  0.6555
   18SAPC  H13X 2391   5.916   0.740   8.849  1.8990  0.1864 -1.9479
   18SAPC  H13Y 2392   5.978   0.630   8.972 -2.9407 -0.1775  0.1221
   18SAPC  C314 2393   6.128   0.710   8.839 -1.2416  0.0687 -0.3203
   18SAPC  H14X 2394   6.137   0.810   8.791  0.6171 -0.4872 -1.1606
   18SAPC  H14Y 2395   6.112   0.645   8.751  0.0913 -1.9821  0.9059
   18SAPC  C315 2396   6.252   0.680   8.915  0.3192 -0.1584  0.2944
   18SAPC  H15X 2397   6.236   0.598   8.988 -0.8069 -0.3392 -0.1454
   18SAPC  H15Y 2398   6.280   0.764   8.982 -0.5744  2.5678 -2.6368
   18SAPC  C316 2399   6.374   0.661   8.828 -0.2578 -0.2336 -0.0036
   18SAPC  H16X 2400   6.462   0.718   8.863  0.1792 -0.9627  0.0988
   18SAPC  H16Y 2401   6.364   0.703   8.726 -1.2013  3.5838  1.5777
   18SAPC  C317 2402   6.412   0.509   8.811 -0.4128 -1.1552 -0.1574
   18SAPC  H17X 2403   6.341   0.469   8.735 -0.9236 -1.2680  0.3775
   18SAPC  H17Y 2404   6.395   0.446   8.901 -3.2141 -1.8658 -1.1430
   18SAPC  C318 2405   6.556   0.501   8.750  0.5373  0.5553 -1.2942
   18SAPC  H18X 2406   6.584   0.394   8.737  1.2492  0.4204  1.0593
   18SAPC  H18Y 2407   6.640   0.544   8.808 -0.1189 -0.1922  0.2370
   18SAPC  H18Z 2408   6.555   0.542   8.647  0.8840 -1.1748 -2.0071
   19SAPC     N 2409   5.111   3.036  10.366 -0.0987  0.1212 -0.0426
   19SAPC   C12 2410   5.153   3.120  10.483 -0.0646  0.3877  0.1372
   19SAPC  H12A 2411   5.216   3.063  10.551  0.1772  0.4396 -0.0417
   19SAPC  H12B 2412   5.069   3.137  10.548  0.0595 -2.6540  1.1935
   19SAPC   C13 2413   5.016   3.107  10.282  0.1439  0.3458  0.8716
   19SAPC  H13A 2414   4.958   3.033  10.229  1.4424  1.3158 -1.9991
   19SAPC  H13B 2415   4.947   3.167  10.339 -0.2987 -0.6749  1.4174
   19SAPC  H13C 2416   5.064   3.177  10.215  0.8786 -0.6217  0.3736
   19SAPC   C14 2417   5.236   3.005  10.294 -0.2067 -0.3397  0.4203
   19SAPC  H14A 2418   5.290   2.920  10.332  1.8824  0.4302 -0.6824
   19SAPC  H14B 2419   5.225   2.970  10.192  1.8666 -0.1098  0.0845
   19SAPC  H14C 2420   5.304   3.089  10.297 -0.9206  0.3250 -1.1628
   19SAPC   C15 2421   5.048   2.908  10.426 -0.2292  0.3442 -0.2303
   19SAPC  H15A 2422   4.968   2.927  10.496  0.5615 -1.6447  1.2475
   19SAPC  H15B 2423   5.003   2.860  10.340  1.4591 -0.6698 -0.5646
   19SAPC  H15C 2424   5.120   2.846  10.476 -0.5626  0.7599  0.7797
   19SAPC   C11 2425   5.223   3.254  10.451  0.3315 -0.5690 -0.8888
   19SAPC  H11A 2426   5.207   3.320  10.539  0.0433  2.5288 -3.1830
   19SAPC  H11B 2427   5.170   3.316  10.376  0.0106 -0.2241 -0.3874
   19SAPC     P 2428   5.472   3.212  10.523 -0.4862 -0.4487  0.1057
   19SAPC   O13 2429   5.423   3.235  10.659 -0.0477  0.4460  0.0887
   19SAPC   O14 2430   5.535   3.079  10.513  0.4005  0.8983  0.1518
   19SAPC   O12 2431   5.364   3.239  10.417  0.1669  0.3873 -0.0639
   19SAPC   O11 2432   5.582   3.331  10.491  0.0712 -0.2898 -0.6271
   19SAPC    C1 2433   5.549   3.438  10.404 -0.9894 -0.3717  0.8248
   19SAPC    HA 2434   5.448   3.479  10.423 -0.4131  1.9876 -0.8889
   19SAPC    HB 2435   5.614   3.522  10.437  0.0131 -0.3700 -1.0721
   19SAPC    C2 2436   5.592   3.429  10.253  0.7424 -0.4742 -0.2846
   19SAPC    HS 2437   5.594   3.532  10.213  0.5404 -0.1802  0.4499
   19SAPC   O21 2438   5.498   3.352  10.178 -0.6654 -0.2309 -0.6532
   19SAPC   C21 2439   5.388   3.409  10.143 -0.1794  0.8524  0.2953
   19SAPC   O22 2440   5.363   3.526  10.160 -0.0643 -0.8085 -0.0585
   19SAPC   C22 2441   5.293   3.314  10.076  0.3809 -0.2255  0.3634
   19SAPC   H2R 2442   5.344   3.216  10.063  0.7919 -0.0138  0.3835
   19SAPC   H2S 2443   5.207   3.308  10.146 -0.2580  1.3921 -0.2700
   19SAPC    C3 2444   5.738   3.367  10.239  0.0787  0.2254 -0.0566
   19SAPC    HX 2445   5.738   3.261  10.271 -2.7308  0.3933  0.6798
   19SAPC    HY 2446   5.795   3.432  10.309  0.6024 -0.0569 -0.2233
   19SAPC   O31 2447   5.781   3.377  10.102  0.4115  0.2848 -0.5450
   19SAPC   C31 2448   5.814   3.502  10.053  0.3957  0.0340 -0.4236
   19SAPC   O32 2449   5.805   3.609  10.114 -0.0747  0.2465  0.3155
   19SAPC   C32 2450   5.868   3.486   9.910 -0.5213  0.6926  0.5155
   19SAPC   H2X 2451   5.778   3.459   9.851 -2.5134  3.0688  2.3104
   19SAPC   H2Y 2452   5.945   3.407   9.922 -0.7379  0.2815 -0.7339
   19SAPC   C23 2453   5.246   3.363   9.935 -0.2900 -0.0631  0.4087
   19SAPC   H3R 2454   5.206   3.464   9.962 -1.2353  0.0386 -1.2691
   19SAPC   H3S 2455   5.154   3.308   9.905 -2.3211  2.6507  1.4162
   19SAPC   C24 2456   5.350   3.365   9.821 -0.1621 -0.4517  0.2204
   19SAPC   H4R 2457   5.288   3.313   9.745 -1.4096  1.1651  0.1219
   19SAPC   H4S 2458   5.432   3.294   9.847  0.3249 -0.3735 -1.0557
   19SAPC   C25 2459   5.402   3.493   9.776  0.0873 -0.4686 -0.0137
   19SAPC   H5R 2460   5.422   3.573   9.849  0.8578 -0.0645 -0.6624
   19SAPC   C26 2461   5.425   3.522   9.650  0.4940  0.1477 -0.0406
   19SAPC   H6R 2462   5.455   3.626   9.630 -1.6590  0.4573 -1.7172
   19SAPC   C27 2463   5.408   3.430   9.529 -0.3173 -0.2210 -0.2481
   19SAPC   H7R 2464   5.320   3.464   9.470 -1.7861 -3.2166  0.0838
   19SAPC   H7S 2465   5.379   3.328   9.563  0.6711 -0.6889 -0.8167
   19SAPC   C28 2466   5.530   3.427   9.441 -0.4096 -0.2063  0.1787
   19SAPC   H8R 2467   5.626   3.398   9.485  0.1043  1.3734  0.1479
   19SAPC   C29 2468   5.524   3.453   9.307 -0.3961 -0.2677  0.5102
   19SAPC   H9R 2469   5.620   3.464   9.255 -0.1703  0.3930  1.0655
   19SAPC  C210 2470   5.413   3.488   9.209 -0.3756 -0.3015 -0.5684
   19SAPC  H10R 2471   5.460   3.529   9.117 -0.4536 -0.7068 -0.7906
   19SAPC  H10S 2472   5.352   3.571   9.250 -0.1207 -0.8459  0.9187
   19SAPC  C211 2473   5.340   3.367   9.169  1.0164 -0.2131  0.8043
   19SAPC  H11R 2474   5.307   3.304   9.253 -0.7899 -0.2903  0.0546
   19SAPC  C212 2475   5.326   3.315   9.042 -0.5044 -0.5583  0.2562
   19SAPC  H12R 2476   5.263   3.225   9.029 -2.0671  0.5046  0.3501
   19SAPC  C213 2477   5.388   3.385   8.920  0.6358 -0.6353  0.4368
   19SAPC  H13R 2478   5.481   3.445   8.933  1.7203 -2.3233  0.5840
   19SAPC  H13S 2479   5.309   3.449   8.875 -0.6317 -3.4438 -1.4566
   19SAPC  C214 2480   5.417   3.291   8.806 -0.7322 -1.3528  0.0323
   19SAPC  H14R 2481   5.354   3.306   8.717 -2.2896 -0.4340  1.2737
   19SAPC  C215 2482   5.523   3.209   8.797 -0.4449  0.8698  0.1138
   19SAPC  H15R 2483   5.526   3.150   8.704  3.1482  2.8375 -1.1381
   19SAPC  C216 2484   5.640   3.202   8.890 -0.3378 -0.3338 -0.0812
   19SAPC  H16R 2485   5.644   3.103   8.940 -0.2499 -0.1316  0.3099
   19SAPC  H16S 2486   5.619   3.279   8.968  0.0381  0.1318 -0.4321
   19SAPC  C217 2487   5.768   3.226   8.818 -0.3813  0.1798 -0.1573
   19SAPC  H17R 2488   5.848   3.227   8.895 -0.4228  1.1689 -0.1146
   19SAPC  H17S 2489   5.772   3.329   8.775 -0.2244  0.9362  1.6188
   19SAPC  C218 2490   5.797   3.110   8.714 -0.1654  0.1751  0.7975
   19SAPC  H18R 2491   5.728   3.125   8.628 -2.8275  0.9605  3.0020
   19SAPC  H18S 2492   5.777   3.006   8.747 -2.1940  0.0106 -0.8324
   19SAPC  C219 2493   5.939   3.123   8.665 -0.0603 -0.1838 -0.1602
   19SAPC  H19R 2494   6.007   3.102   8.750 -3.3749 -2.1113  2.1465
   19SAPC  H19S 2495   5.959   3.227   8.631  1.9190 -0.2230  0.8342
   19SAPC  C220 2496   5.969   3.031   8.551 -0.8778  0.7972  0.3083
   19SAPC  H20R 2497   5.911   3.062   8.461 -0.3616  0.1746 -0.2536
   19SAPC  H20S 2498   5.938   2.928   8.580  3.3982 -0.1744  1.7048
   19SAPC  H20T 2499   6.077   3.037   8.527 -0.9101  2.3050  0.4926
   19SAPC   C33 2500   5.935   3.609   9.849  0.0043  0.3022  0.3708
   19SAPC   H3X 2501   5.987   3.657   9.935  0.9247 -1.2398  0.7090
   19SAPC   H3Y 2502   5.865   3.689   9.819 -0.7608  0.5187  2.6395
   19SAPC   C34 2503   6.014   3.574   9.730  0.4739 -0.4272 -0.3248
   19SAPC   H4X 2504   6.067   3.477   9.741  1.2062 -0.0326 -0.3300
   19SAPC   H4Y 2505   6.085   3.657   9.708 -0.3719  0.5308  0.5194
   19SAPC   C35 2506   5.927   3.572   9.603  0.9595 -0.0713 -0.3797
   19SAPC   H5X 2507   5.883   3.673   9.593 -2.1427 -1.4435 -1.0457
   19SAPC   H5Y 2508   5.858   3.487   9.615 -0.1685  1.0554  1.2086
   19SAPC   C36 2509   6.010   3.535   9.480  0.1120 -0.0885  0.6735
   19SAPC   H6X 2510   6.077   3.451   9.509  0.0334 -0.6026 -0.5838
   19SAPC   H6Y 2511   6.075   3.622   9.457  0.5026  0.0164  2.1607
   19SAPC   C37 2512   5.937   3.519   9.348  0.2091  0.6669 -0.3037
   19SAPC   H7X 2513   5.868   3.604   9.328  1.0677  1.7470  1.2307
   19SAPC   H7Y 2514   5.875   3.427   9.352  0.4833  0.4910 -0.0728
   19SAPC   C38 2515   6.042   3.506   9.238 -0.0968 -0.0562  0.5521
   19SAPC   H8X 2516   6.098   3.410   9.227  0.1607  0.0206  1.1590
   19SAPC   H8Y 2517   6.126   3.578   9.245  1.6284 -1.9429 -0.2816
   19SAPC   C39 2518   5.976   3.519   9.106 -0.2057  0.1488  0.7057
   19SAPC   H9X 2519   5.950   3.627   9.103  0.8315  0.3547 -1.8850
   19SAPC   H9Y 2520   5.885   3.457   9.094  0.2380  0.0081 -2.4618
   19SAPC  C310 2521   6.066   3.483   8.988 -0.0797 -0.5404 -0.3507
   19SAPC  H10X 2522   6.087   3.374   8.986 -1.1982 -0.7640 -0.0932
   19SAPC  H10Y 2523   6.158   3.542   9.005 -1.9862  2.1030  1.1788
   19SAPC  C311 2524   6.010   3.549   8.866 -0.5466  0.1064 -0.4030
   19SAPC  H11X 2525   6.003   3.659   8.878  1.9226  0.1037  1.4776
   19SAPC  H11Y 2526   5.909   3.504   8.866  0.1083 -1.4002 -0.8097
   19SAPC  C312 2527   6.089   3.504   8.739 -0.4365  0.1133 -0.5815
   19SAPC  H12X 2528   6.085   3.393   8.733 -1.4284  0.1826 -1.3013
   19SAPC  H12Y 2529   6.193   3.543   8.741 -0.7656  1.0341 -1.4863
   19SAPC  C313 2530   6.009   3.545   8.611 -0.0056  0.6146  0.8319
   19SAPC  H13X 2531   5.969   3.649   8.617 -2.2539 -0.2451  0.9050
   19SAPC  H13Y 2532   5.917   3.488   8.589  0.7457 -1.5300  3.1285
   19SAPC  C314 2533   6.104   3.538   8.485 -0.0059 -0.3863 -0.7302
   19SAPC  H14X 2534   6.096   3.429   8.468 -0.8375 -0.3149 -0.8178
   19SAPC  H14Y 2535   6.204   3.562   8.529 -0.4192  0.1658 -0.0777
   19SAPC  C315 2536   6.071   3.622   8.356  0.0969  0.1625 -0.2142
   19SAPC  H15X 2537   6.076   3.730   8.384  0.0441 -0.2542  1.4373
   19SAPC  H15Y 2538   5.973   3.596   8.312  0.5181 -2.3323  0.2550
   19SAPC  C316 2539   6.174   3.594   8.243 -0.0441 -0.3239 -0.2299
   19SAPC  H16X 2540   6.180   3.484   8.228  0.4853 -0.5252  1.3319
   19SAPC  H16Y 2541   6.279   3.617   8.270 -0.2546 -1.1757  1.3344
   19SAPC  C317 2542   6.140   3.669   8.113 -0.4230 -0.0229  0.1144
   19SAPC  H17X 2543   6.133   3.777   8.141 -0.6308  0.2818 -1.0898
   19SAPC  H17Y 2544   6.036   3.650   8.078 -0.0207 -1.5386 -0.2742
   19SAPC  C318 2545   6.251   3.653   8.009  0.3569  0.5284  0.2519
   19SAPC  H18X 2546   6.357   3.668   8.042 -0.0512  0.1120  1.8084
   19SAPC  H18Y 2547   6.229   3.723   7.926  3.1842  0.8928 -0.2505
   19SAPC  H18Z 2548   6.263   3.547   7.977  2.1105  0.5885  0.6151
   20SAPC     N 2549   4.709   6.096  10.908 -0.1163  0.1620  0.3819
   20SAPC   C12 2550   4.577   6.131  10.847 -0.0247 -0.2924 -0.3586
   20SAPC  H12A 2551   4.578   6.235  10.816 -0.5224 -0.1957 -0.0529
   20SAPC  H12B 2552   4.503   6.135  10.926  0.7928  3.0483  0.3425
   20SAPC   C13 2553   4.710   5.975  10.990 -0.8505  0.3621 -0.0049
   20SAPC  H13A 2554   4.640   5.972  11.072 -0.2510 -0.3916  0.4780
   20SAPC  H13B 2555   4.671   5.896  10.928 -2.3226  0.2868  0.9745
   20SAPC  H13C 2556   4.807   5.946  11.027 -0.8400  0.3034 -0.0784
   20SAPC   C14 2557   4.807   6.090  10.793  0.2809 -0.0877 -0.0457
   20SAPC  H14A 2558   4.910   6.106  10.822  1.1554 -2.3965 -1.7366
   20SAPC  H14B 2559   4.789   5.990  10.756  0.8232  0.4839 -1.8932
   20SAPC  H14C 2560   4.787   6.169  10.722 -0.1714  0.0236  0.2046
   20SAPC   C15 2561   4.767   6.212  10.985 -0.2516 -0.3295 -0.2392
   20SAPC  H15A 2562   4.858   6.175  11.029 -0.3852 -0.8014 -0.3540
   20SAPC  H15B 2563   4.780   6.297  10.920 -1.4310 -0.5337 -0.7599
   20SAPC  H15C 2564   4.699   6.226  11.069  0.8011 -1.1305  0.7643
   20SAPC   C11 2565   4.522   6.039  10.738 -0.4758  0.3257 -0.0797
   20SAPC  H11A 2566   4.594   6.039  10.652  0.6835  3.0564  0.8332
   20SAPC  H11B 2567   4.427   6.081  10.700 -1.6890 -1.6384  0.6823
   20SAPC     P 2568   4.575   5.781  10.720 -0.2877 -0.2894  0.1779
   20SAPC   O13 2569   4.720   5.799  10.722  0.4882  0.2716 -0.0360
   20SAPC   O14 2570   4.518   5.659  10.781 -0.1542  0.1000 -0.0686
   20SAPC   O12 2571   4.504   5.907  10.787 -0.0032 -0.0340  0.4744
   20SAPC   O11 2572   4.517   5.795  10.573  0.3191 -0.1278 -0.2546
   20SAPC    C1 2573   4.538   5.694  10.472  0.3954 -0.0133  0.5558
   20SAPC    HA 2574   4.620   5.625  10.499  1.1101  1.1992  1.6052
   20SAPC    HB 2575   4.443   5.636  10.471  0.8718 -0.7715 -1.2169
   20SAPC    C2 2576   4.573   5.747  10.332 -0.5616 -0.4989 -0.1361
   20SAPC    HS 2577   4.674   5.793  10.334 -0.6892 -0.2077 -0.4098
   20SAPC   O21 2578   4.471   5.845  10.312  0.1542 -0.7846 -0.2311
   20SAPC   C21 2579   4.503   5.967  10.349  0.5553  0.1723  0.4999
   20SAPC   O22 2580   4.613   6.005  10.388 -0.6534 -0.4025  0.1227
   20SAPC   C22 2581   4.386   6.066  10.333  0.0893 -1.1138 -0.3339
   20SAPC   H2R 2582   4.301   6.051  10.404  0.2315 -0.6353 -0.0665
   20SAPC   H2S 2583   4.416   6.168  10.363 -0.7152 -0.7753 -0.6714
   20SAPC    C3 2584   4.576   5.640  10.221  0.4382  0.5686  0.5604
   20SAPC    HX 2585   4.482   5.581  10.214  0.9414 -0.1302 -0.5000
   20SAPC    HY 2586   4.660   5.572  10.247  0.8640  0.4756 -1.0265
   20SAPC   O31 2587   4.601   5.711  10.093  0.2938  0.2124  0.5958
   20SAPC   C31 2588   4.616   5.618   9.988  0.6515  0.4037 -0.8391
   20SAPC   O32 2589   4.607   5.501  10.010 -0.1497  0.0886  0.0147
   20SAPC   C32 2590   4.662   5.687   9.858  0.5644  0.4612 -0.7133
   20SAPC   H2X 2591   4.751   5.750   9.883 -1.0831  2.2660  0.7936
   20SAPC   H2Y 2592   4.575   5.750   9.829 -0.2476 -0.8891 -1.2306
   20SAPC   C23 2593   4.320   6.060  10.190  0.0606  0.2434  0.2223
   20SAPC   H3R 2594   4.216   6.098  10.199 -1.9195 -4.2241 -2.0014
   20SAPC   H3S 2595   4.317   5.956  10.151 -1.0288  0.1298  0.6047
   20SAPC   C24 2596   4.388   6.146  10.084  0.1082  0.1246  0.1365
   20SAPC   H4R 2597   4.419   6.246  10.121 -0.4825  0.4182 -0.1588
   20SAPC   H4S 2598   4.303   6.153  10.013 -2.5210 -1.9621  2.9228
   20SAPC   C25 2599   4.507   6.072  10.026 -0.1130  0.2532  0.0535
   20SAPC   H5R 2600   4.595   6.063  10.090 -0.9997  1.1688  1.4344
   20SAPC   C26 2601   4.518   6.031   9.896  0.1907  0.1250  0.3481
   20SAPC   H6R 2602   4.619   6.005   9.860  0.1842 -0.8223  0.9857
   20SAPC   C27 2603   4.424   6.038   9.779 -0.4322 -0.5001  0.2866
   20SAPC   H7R 2604   4.473   6.015   9.682 -0.5073 -2.2265  0.6334
   20SAPC   H7S 2605   4.384   6.141   9.784 -0.9103 -0.5159 -2.2350
   20SAPC   C28 2606   4.311   5.946   9.807 -0.2864  0.1032  0.6350
   20SAPC   H8R 2607   4.294   5.905   9.907  0.0664 -3.3529 -0.6481
   20SAPC   C29 2608   4.220   5.895   9.716 -0.1572 -0.1417 -0.7789
   20SAPC   H9R 2609   4.133   5.838   9.750 -0.3799  1.8179  2.1182
   20SAPC  C210 2610   4.221   5.934   9.568 -0.0907  0.0480  0.3480
   20SAPC  H10R 2611   4.215   6.045   9.566 -0.3163  0.1219  3.1628
   20SAPC  H10S 2612   4.123   5.899   9.529 -1.2241  1.2740  2.0131
   20SAPC  C211 2613   4.336   5.889   9.482 -0.0393 -0.2956  0.2243
   20SAPC  H11R 2614   4.423   5.853   9.538 -1.7694 -0.7643  2.7205
   20SAPC  C212 2615   4.345   5.886   9.346 -0.7552  0.7781 -0.0803
   20SAPC  H12R 2616   4.445   5.870   9.302 -0.9549 -0.9874  0.0577
   20SAPC  C213 2617   4.235   5.927   9.257 -0.8252  0.4485  0.3127
   20SAPC  H13R 2618   4.135   5.931   9.306 -2.3313 -0.4673 -2.6066
   20SAPC  H13S 2619   4.214   5.845   9.186  1.6814 -0.9468  1.1115
   20SAPC  C214 2620   4.265   6.055   9.181 -0.4927 -0.1645  0.4231
   20SAPC  H14R 2621   4.325   6.137   9.224  2.9912 -1.8221 -1.0632
   20SAPC  C215 2622   4.212   6.083   9.058 -0.0445  0.2783  0.4342
   20SAPC  H15R 2623   4.241   6.176   9.006 -0.4378 -2.1939 -4.5851
   20SAPC  C216 2624   4.125   5.992   8.979 -0.0694 -0.2245 -0.4149
   20SAPC  H16R 2625   4.051   6.029   8.904  0.3765 -0.8803 -1.1785
   20SAPC  H16S 2626   4.059   5.945   9.055 -0.6628 -0.3665 -1.0131
   20SAPC  C217 2627   4.205   5.879   8.907  0.0698  0.8447  0.9686
   20SAPC  H17R 2628   4.275   5.834   8.981  0.2486 -1.4647 -0.5447
   20SAPC  H17S 2629   4.265   5.920   8.823 -0.7070 -2.0423 -1.0946
   20SAPC  C218 2630   4.113   5.764   8.851 -0.2597 -0.3936 -0.1587
   20SAPC  H18R 2631   4.184   5.701   8.793  1.8970  1.7863  0.0506
   20SAPC  H18S 2632   4.043   5.797   8.771 -0.4059 -2.0954 -0.7640
   20SAPC  C219 2633   4.043   5.671   8.944 -0.1068  0.5623  0.6381
   20SAPC  H19R 2634   3.975   5.737   9.002 -2.0386 -1.3317  0.5917
   20SAPC  H19S 2635   4.115   5.616   9.009  0.3917 -1.4149 -1.4925
   20SAPC  C220 2636   3.949   5.571   8.871  0.2040  0.2723 -0.1602
   20SAPC  H20R 2637   3.873   5.529   8.940 -1.5422  0.2350 -2.0710
   20SAPC  H20S 2638   4.008   5.483   8.837  1.7229  0.4568  1.8864
   20SAPC  H20T 2639   3.893   5.629   8.794  0.8319  0.2529 -0.6361
   20SAPC   C33 2640   4.690   5.585   9.745 -0.0218  0.0299 -0.0809
   20SAPC   H3X 2641   4.612   5.505   9.747  0.1272 -0.1139 -0.0564
   20SAPC   H3Y 2642   4.778   5.524   9.774 -1.1045 -1.3619  0.3701
   20SAPC   C34 2643   4.693   5.646   9.605  0.5253  0.7380 -0.1100
   20SAPC   H4X 2644   4.765   5.730   9.608  1.4979 -0.0976  0.4024
   20SAPC   H4Y 2645   4.591   5.685   9.589  0.5411  1.0880  0.6390
   20SAPC   C35 2646   4.730   5.546   9.500  0.1268 -0.8596  0.1351
   20SAPC   H5X 2647   4.829   5.500   9.519  0.1285 -1.3415 -1.0316
   20SAPC   H5Y 2648   4.745   5.607   9.408  0.0412 -0.8590  0.1213
   20SAPC   C36 2649   4.635   5.426   9.487 -0.0654 -0.9386 -0.8965
   20SAPC   H6X 2650   4.531   5.463   9.473 -0.8178 -1.8516  2.0917
   20SAPC   H6Y 2651   4.624   5.362   9.577 -2.0134  0.1901 -0.2919
   20SAPC   C37 2652   4.662   5.332   9.369 -0.4880 -0.9258  0.2452
   20SAPC   H7X 2653   4.597   5.242   9.369  0.3123 -1.5926 -3.4161
   20SAPC   H7Y 2654   4.770   5.304   9.376 -0.1381  0.1522 -0.5945
   20SAPC   C38 2655   4.638   5.393   9.226  0.2187  0.1947  0.4935
   20SAPC   H8X 2656   4.714   5.349   9.157  1.3116  1.1677  1.0536
   20SAPC   H8Y 2657   4.654   5.503   9.232  1.3553  0.1816 -1.5193
   20SAPC   C39 2658   4.503   5.350   9.165 -0.4072  0.0532  0.1793
   20SAPC   H9X 2659   4.419   5.371   9.234 -0.6259 -0.9234  0.2024
   20SAPC   H9Y 2660   4.504   5.240   9.157  1.1384  0.0526  0.1612
   20SAPC  C310 2661   4.479   5.400   9.024 -0.0874  0.5125  0.8586
   20SAPC  H10X 2662   4.395   5.337   8.988  2.3526 -1.2401 -1.9467
   20SAPC  H10Y 2663   4.564   5.363   8.962 -0.0109  1.4597  0.4025
   20SAPC  C311 2664   4.477   5.549   9.009  0.7781  0.3902 -0.3254
   20SAPC  H11X 2665   4.572   5.598   9.039  2.1675 -2.0492 -0.6143
   20SAPC  H11Y 2666   4.409   5.594   9.084  0.5926 -0.9799  0.3431
   20SAPC  C312 2667   4.440   5.589   8.867  0.4833 -0.6532  0.9254
   20SAPC  H12X 2668   4.433   5.700   8.868 -0.9069 -0.7310  0.4820
   20SAPC  H12Y 2669   4.344   5.538   8.844 -0.3435  1.1699  0.1802
   20SAPC  C313 2670   4.535   5.557   8.751 -0.1883  0.4017  0.2539
   20SAPC  H13X 2671   4.554   5.448   8.752  0.2844  0.4848  0.4283
   20SAPC  H13Y 2672   4.633   5.606   8.769 -0.6123  1.1626  0.5030
   20SAPC  C314 2673   4.484   5.606   8.615 -0.5419 -1.1028 -0.5868
   20SAPC  H14X 2674   4.496   5.716   8.605 -1.0270 -0.5708  3.6117
   20SAPC  H14Y 2675   4.378   5.574   8.606 -0.5660 -0.9756 -0.7631
   20SAPC  C315 2676   4.561   5.539   8.494  1.2970  0.3696 -0.5828
   20SAPC  H15X 2677   4.530   5.576   8.394 -1.6535  2.1872  0.9584
   20SAPC  H15Y 2678   4.539   5.430   8.504  1.0745  0.5316  0.8041
   20SAPC  C316 2679   4.715   5.569   8.484  0.3929  0.6145 -0.1676
   20SAPC  H16X 2680   4.761   5.503   8.408  0.0827 -1.2976  1.2639
   20SAPC  H16Y 2681   4.769   5.562   8.581  1.4017  0.2209 -0.7646
   20SAPC  C317 2682   4.731   5.720   8.442 -0.3092  0.0661 -0.2739
   20SAPC  H17X 2683   4.707   5.803   8.512 -0.0109  0.4290 -0.5986
   20SAPC  H17Y 2684   4.681   5.742   8.345  0.4577 -1.1544 -0.9612
   20SAPC  C318 2685   4.883   5.753   8.420 -0.2488  0.8794 -0.0242
   20SAPC  H18X 2686   4.941   5.693   8.347  1.5847  2.9670 -0.3603
   20SAPC  H18Y 2687   4.938   5.753   8.517  0.3479  0.6427 -0.3609
   20SAPC  H18Z 2688   4.880   5.853   8.371 -0.6605  1.3997  1.0426
   21SAPC     N 2689   5.034   5.266  11.111  0.5026 -0.1056 -0.0366
   21SAPC   C12 2690   5.148   5.269  11.009  0.0304 -0.0035  0.1670
   21SAPC  H12A 2691   5.241   5.249  11.059  1.5608  1.2723 -2.0971
   21SAPC  H12B 2692   5.155   5.373  10.983  1.0465  0.1284  0.9391
   21SAPC   C13 2693   4.918   5.350  11.070  0.2385  0.2177 -0.4217
   21SAPC  H13A 2694   4.876   5.324  10.974  1.6015 -0.6321 -0.7912
   21SAPC  H13B 2695   4.833   5.336  11.135 -0.4914 -1.0849 -1.6184
   21SAPC  H13C 2696   4.930   5.457  11.076  0.9097  0.1694 -0.8949
   21SAPC   C14 2697   4.999   5.122  11.134 -0.2289  0.2341 -0.0386
   21SAPC  H14A 2698   4.986   5.071  11.040 -2.7968 -1.2615  1.0584
   21SAPC  H14B 2699   5.084   5.072  11.177  1.1840  2.3949 -0.2627
   21SAPC  H14C 2700   4.922   5.103  11.208  0.4035  0.1412  0.6037
   21SAPC   C15 2701   5.077   5.322  11.245  0.3504 -0.6256 -0.3267
   21SAPC  H15A 2702   5.003   5.307  11.323  0.0735  4.2491  0.4858
   21SAPC  H15B 2703   5.175   5.285  11.269  0.3053 -0.4603  0.1272
   21SAPC  H15C 2704   5.086   5.429  11.233  3.7929 -0.8683 -0.1996
   21SAPC   C11 2705   5.135   5.171  10.896  1.1490 -0.0932  0.2527
   21SAPC  H11A 2706   5.049   5.196  10.830 -0.1420 -0.2444  1.8575
   21SAPC  H11B 2707   5.121   5.066  10.927  1.1713  0.2863  1.5753
   21SAPC     P 2708   5.287   5.295  10.723  0.2079  0.3679  0.0002
   21SAPC   O13 2709   5.294   5.421  10.799 -0.4148  0.0627  0.5700
   21SAPC   O14 2710   5.395   5.254  10.630  0.6434 -0.1653  0.2613
   21SAPC   O12 2711   5.262   5.175  10.827  0.5204 -0.1324 -0.4261
   21SAPC   O11 2712   5.152   5.291  10.638  0.8323  0.8302 -0.4437
   21SAPC    C1 2713   5.076   5.411  10.611  0.3251  0.4033  0.6148
   21SAPC    HA 2714   4.991   5.418  10.682  1.8891  0.3585  2.5098
   21SAPC    HB 2715   5.131   5.506  10.625  0.5479 -0.0896  3.3483
   21SAPC    C2 2716   5.018   5.404  10.465  0.1030 -0.0775 -0.4046
   21SAPC    HS 2717   4.952   5.492  10.451 -1.7452 -1.4083 -0.2614
   21SAPC   O21 2718   4.942   5.287  10.430  0.4451  0.3205 -0.3080
   21SAPC   C21 2719   4.831   5.266  10.504  0.5969 -0.0367 -0.0705
   21SAPC   O22 2720   4.790   5.340  10.589 -0.3950 -0.2131  0.1362
   21SAPC   C22 2721   4.760   5.137  10.459 -0.5817 -0.1798 -0.0718
   21SAPC   H2R 2722   4.834   5.058  10.432 -0.2416 -0.3705  1.3862
   21SAPC   H2S 2723   4.702   5.095  10.545  0.1775  0.2906  0.6763
   21SAPC    C3 2724   5.134   5.417  10.361 -0.5129  0.0345  0.1274
   21SAPC    HX 2725   5.179   5.318  10.341  0.1249  0.3616 -0.0820
   21SAPC    HY 2726   5.207   5.481  10.415 -1.0101  0.1368  0.6722
   21SAPC   O31 2727   5.072   5.465  10.244  0.0234  0.0983 -0.0353
   21SAPC   C31 2728   5.158   5.537  10.163 -1.0481 -0.0434 -0.0706
   21SAPC   O32 2729   5.279   5.553  10.187  0.5466  0.2043 -0.0539
   21SAPC   C32 2730   5.078   5.590  10.046 -0.2794 -0.5198  0.2094
   21SAPC   H2X 2731   5.027   5.687  10.065 -0.2588 -0.6812  1.0839
   21SAPC   H2Y 2732   4.989   5.525  10.040 -0.7068  0.0861 -0.0668
   21SAPC   C23 2733   4.657   5.169  10.350 -0.0534  0.1252 -0.6269
   21SAPC   H3R 2734   4.577   5.234  10.393  1.9329  1.3548  1.3498
   21SAPC   H3S 2735   4.602   5.075  10.328 -0.0547 -0.2850  1.0298
   21SAPC   C24 2736   4.711   5.222  10.207  0.1682  0.5739 -0.1324
   21SAPC   H4R 2737   4.783   5.305  10.224  0.7166  0.0158  0.3207
   21SAPC   H4S 2738   4.626   5.268  10.152 -0.6809 -1.0956 -0.2621
   21SAPC   C25 2739   4.765   5.106  10.137  0.3773  0.4123  0.4004
   21SAPC   H5R 2740   4.722   5.011  10.170  0.8448 -0.0556 -0.3261
   21SAPC   C26 2741   4.875   5.089  10.061  0.0788 -0.2466 -0.1005
   21SAPC   H6R 2742   4.900   4.994  10.012 -2.5073 -1.4518  0.8638
   21SAPC   C27 2743   4.969   5.202  10.023 -0.3108  0.1941 -0.7455
   21SAPC   H7R 2744   5.059   5.147   9.988 -2.1696 -2.6489 -1.2597
   21SAPC   H7S 2745   4.999   5.261  10.112  0.0183 -1.2842  0.1472
   21SAPC   C28 2746   4.910   5.279   9.911 -0.3468  0.5363  0.0596
   21SAPC   H8R 2747   4.801   5.293   9.913 -0.3584  0.3680  0.6978
   21SAPC   C29 2748   4.977   5.304   9.798 -0.1621  0.0277  0.2693
   21SAPC   H9R 2749   4.916   5.346   9.718  0.6267  0.4860 -0.0976
   21SAPC  C210 2750   5.120   5.271   9.757  0.4785  0.1281 -0.2539
   21SAPC  H10R 2751   5.180   5.245   9.847  2.2204 -2.2896 -2.0289
   21SAPC  H10S 2752   5.172   5.360   9.716  0.5722 -0.0827 -0.5980
   21SAPC  C211 2753   5.143   5.156   9.667 -0.0067  0.6062 -0.0653
   21SAPC  H11R 2754   5.136   5.062   9.725  1.2239  1.1465  0.9916
   21SAPC  C212 2755   5.197   5.166   9.547  0.0456  0.3404  0.6392
   21SAPC  H12R 2756   5.193   5.077   9.482  0.1448 -1.0057  2.4302
   21SAPC  C213 2757   5.227   5.289   9.469  0.5015  0.1295 -0.5376
   21SAPC  H13R 2758   5.310   5.265   9.398  0.5658 -1.3419  0.0208
   21SAPC  H13S 2759   5.274   5.370   9.529 -1.0483  0.3045  0.4705
   21SAPC  C214 2760   5.101   5.345   9.397  0.2369  0.1008  0.0376
   21SAPC  H14R 2761   5.019   5.359   9.469 -0.1106  1.0023 -0.5307
   21SAPC  C215 2762   5.081   5.378   9.272 -0.2166 -0.4068 -0.0609
   21SAPC  H15R 2763   4.978   5.395   9.238 -0.2251  0.9474  0.6166
   21SAPC  C216 2764   5.197   5.375   9.174 -0.2742 -0.1166  0.2237
   21SAPC  H16R 2765   5.236   5.272   9.157 -1.0582 -0.4407  0.3265
   21SAPC  H16S 2766   5.279   5.439   9.211 -1.2234  0.9062  0.5837
   21SAPC  C217 2767   5.142   5.424   9.039 -0.0909 -0.3199  0.0470
   21SAPC  H17R 2768   5.052   5.363   9.014  1.3660 -3.6692  2.5584
   21SAPC  H17S 2769   5.209   5.404   8.953  0.1618 -0.7409  0.3415
   21SAPC  C218 2770   5.113   5.574   9.041 -0.0031 -0.1413  0.3700
   21SAPC  H18R 2771   5.211   5.620   9.065  0.9140 -1.4401 -0.7713
   21SAPC  H18S 2772   5.042   5.607   9.119  0.8627  1.0278  0.6837
   21SAPC  C219 2773   5.062   5.637   8.900 -0.1231  0.2881 -0.2322
   21SAPC  H19R 2774   5.137   5.626   8.819 -0.6805  0.7201 -0.8114
   21SAPC  H19S 2775   5.058   5.746   8.920 -1.0338 -0.4023  3.8976
   21SAPC  C220 2776   4.920   5.594   8.860 -0.3271 -0.8006 -0.6850
   21SAPC  H20R 2777   4.903   5.540   8.765  1.9996  0.1521 -1.6876
   21SAPC  H20S 2778   4.864   5.690   8.854  1.7172  0.4788 -0.0300
   21SAPC  H20T 2779   4.882   5.530   8.942  0.9484 -0.9003 -0.1553
   21SAPC   C33 2780   5.168   5.615   9.917 -0.1305 -0.5897 -0.1144
   21SAPC   H3X 2781   5.211   5.518   9.884  1.4351 -1.1974  3.4843
   21SAPC   H3Y 2782   5.264   5.667   9.939 -0.2710 -1.3715  2.5232
   21SAPC   C34 2783   5.095   5.682   9.803 -0.0375 -1.0993  0.2147
   21SAPC   H4X 2784   5.068   5.787   9.830  4.1751  0.4062 -0.9585
   21SAPC   H4Y 2785   5.004   5.624   9.781 -1.2622  0.8042  0.1715
   21SAPC   C35 2786   5.181   5.691   9.680  1.0620 -0.2089  0.8629
   21SAPC   H5X 2787   5.236   5.596   9.662 -0.9819 -1.1503 -0.6934
   21SAPC   H5Y 2788   5.255   5.774   9.687  0.8540 -0.0369  1.0204
   21SAPC   C36 2789   5.103   5.722   9.549 -0.0232  0.4338  0.3169
   21SAPC   H6X 2790   5.037   5.804   9.583  0.9822  1.2982  0.1987
   21SAPC   H6Y 2791   5.043   5.634   9.515  1.0217 -0.1768  0.0267
   21SAPC   C37 2792   5.201   5.762   9.445 -0.5076 -0.5000 -0.2615
   21SAPC   H7X 2793   5.245   5.674   9.393  1.8301  0.1952  0.5073
   21SAPC   H7Y 2794   5.287   5.821   9.482 -1.8591  1.4080 -0.0520
   21SAPC   C38 2795   5.129   5.852   9.336 -0.8881 -0.8896 -0.3464
   21SAPC   H8X 2796   5.080   5.932   9.397  1.6447 -0.5098  1.2763
   21SAPC   H8Y 2797   5.050   5.786   9.295  0.3141 -1.8997 -1.0817
   21SAPC   C39 2798   5.230   5.908   9.243  0.4755  0.9775  0.0795
   21SAPC   H9X 2799   5.291   5.823   9.205 -2.7613 -1.0744 -0.7202
   21SAPC   H9Y 2800   5.291   5.986   9.293  1.2725  1.0485 -0.9599
   21SAPC  C310 2801   5.167   5.981   9.127 -0.0583  0.2317  0.2579
   21SAPC  H10X 2802   5.093   6.046   9.177 -0.6968 -1.6963  1.8499
   21SAPC  H10Y 2803   5.111   5.910   9.063 -0.8451  1.6354 -0.6358
   21SAPC  C311 2804   5.258   6.085   9.052  0.5414  0.3521 -0.2942
   21SAPC  H11X 2805   5.345   6.034   9.006 -0.3413 -0.9011 -0.5932
   21SAPC  H11Y 2806   5.303   6.148   9.132 -0.7669  0.7266  0.1719
   21SAPC  C312 2807   5.178   6.172   8.958  0.2392  0.3986 -0.0654
   21SAPC  H12X 2808   5.231   6.262   8.920 -0.0784  0.9603  0.8355
   21SAPC  H12Y 2809   5.095   6.221   9.012  1.4324  1.0551  1.2064
   21SAPC  C313 2810   5.123   6.080   8.853 -0.3860 -0.2655 -0.1245
   21SAPC  H13X 2811   5.056   5.999   8.888 -0.7383  0.1035  0.0452
   21SAPC  H13Y 2812   5.212   6.023   8.817  0.4702  3.0406 -3.5661
   21SAPC  C314 2813   5.060   6.158   8.730  0.2369 -0.0208 -0.6341
   21SAPC  H14X 2814   5.122   6.249   8.711 -0.0087  0.6468  1.6122
   21SAPC  H14Y 2815   4.958   6.197   8.751  1.3446  1.4278  2.3500
   21SAPC  C315 2816   5.039   6.063   8.611 -0.1260 -0.4209  0.0386
   21SAPC  H15X 2817   5.003   5.966   8.652  0.1463 -0.4565  0.1919
   21SAPC  H15Y 2818   5.140   6.048   8.567  0.2898 -1.9319  1.4217
   21SAPC  C316 2819   4.928   6.125   8.519  0.3779 -0.1006  0.7466
   21SAPC  H16X 2820   4.833   6.140   8.574 -1.1041 -1.1172 -1.4856
   21SAPC  H16Y 2821   4.907   6.047   8.444  0.6775 -0.9936  1.5780
   21SAPC  C317 2822   4.975   6.255   8.452  0.6303 -0.2997 -0.3027
   21SAPC  H17X 2823   4.952   6.335   8.525  1.8355 -1.4280  1.3478
   21SAPC  H17Y 2824   4.906   6.281   8.369  0.7422 -0.2197 -0.3709
   21SAPC  C318 2825   5.121   6.262   8.415  0.3986 -0.2082 -0.1094
   21SAPC  H18X 2826   5.150   6.365   8.381 -1.2593 -0.0418 -1.0805
   21SAPC  H18Y 2827   5.150   6.189   8.336  1.1918  1.5606 -1.4956
   21SAPC  H18Z 2828   5.189   6.242   8.500 -0.0153  3.9112  1.3104
   22SAPC     N 2829   4.369   3.244  10.848  0.8520 -0.2164 -0.0482
   22SAPC   C12 2830   4.488   3.247  10.745 -0.0401  0.7442 -0.5123
   22SAPC  H12A 2831   4.580   3.207  10.787 -2.0938 -1.5092  2.0805
   22SAPC  H12B 2832   4.515   3.348  10.720  0.5486  1.1844  1.7739
   22SAPC   C13 2833   4.243   3.261  10.771 -0.6254 -1.1753 -0.8063
   22SAPC  H13A 2834   4.247   3.196  10.685 -2.7451 -1.4815 -0.6815
   22SAPC  H13B 2835   4.163   3.231  10.836 -0.0839  0.2684  0.5717
   22SAPC  H13C 2836   4.231   3.366  10.747  1.9172 -1.2151 -2.5473
   22SAPC   C14 2837   4.367   3.112  10.919 -0.6691 -0.1606 -0.4768
   22SAPC  H14A 2838   4.288   3.097  10.992  0.5410  0.7915  1.0463
   22SAPC  H14B 2839   4.380   3.035  10.844  3.0154 -0.0214 -0.0672
   22SAPC  H14C 2840   4.446   3.111  10.992 -0.1408  3.1257 -0.9450
   22SAPC   C15 2841   4.370   3.350  10.951  0.5384 -0.0964  0.5495
   22SAPC  H15A 2842   4.337   3.438  10.898  2.3610 -0.9556 -2.1497
   22SAPC  H15B 2843   4.304   3.320  11.031  0.5304 -0.7238  0.3130
   22SAPC  H15C 2844   4.466   3.354  11.000  1.1022  0.1438 -0.5436
   22SAPC   C11 2845   4.467   3.173  10.611  0.1080 -0.0990 -0.0262
   22SAPC  H11A 2846   4.564   3.192  10.560  0.8582 -0.5674  1.2064
   22SAPC  H11B 2847   4.380   3.218  10.559  0.7736 -0.2026 -1.2492
   22SAPC     P 2848   4.402   2.928  10.532  0.0149  0.0160  0.0204
   22SAPC   O13 2849   4.488   2.813  10.569 -0.2901  0.2858 -0.1149
   22SAPC   O14 2850   4.255   2.903  10.530  0.0445 -0.1185 -0.0701
   22SAPC   O12 2851   4.440   3.038  10.636  0.2067  0.0453  0.7973
   22SAPC   O11 2852   4.462   2.970  10.397  0.0701  0.1577  0.0716
   22SAPC    C1 2853   4.382   3.032  10.300  0.2964 -0.6634 -0.4207
   22SAPC    HA 2854   4.301   2.962  10.270 -1.5073  1.5918 -0.9017
   22SAPC    HB 2855   4.341   3.125  10.343  1.0183 -0.8185  0.6384
   22SAPC    C2 2856   4.461   3.086  10.179  0.1312  0.5746  0.5450
   22SAPC    HS 2857   4.393   3.160  10.131 -1.0061 -0.8081 -0.0255
   22SAPC   O21 2858   4.504   2.972  10.093 -0.0947 -0.3359 -0.2437
   22SAPC   C21 2859   4.402   2.924  10.017 -0.5351  0.1867 -0.2096
   22SAPC   O22 2860   4.297   2.974  10.006  0.0753 -1.0992  0.2179
   22SAPC   C22 2861   4.443   2.802   9.932 -0.3109  0.0533 -0.8251
   22SAPC   H2R 2862   4.549   2.777   9.956 -0.6102 -0.2713  0.1890
   22SAPC   H2S 2863   4.377   2.720   9.966  1.3967 -0.6541  0.8761
   22SAPC    C3 2864   4.575   3.162  10.231 -0.7117 -0.6900  0.5008
   22SAPC    HX 2865   4.655   3.099  10.275  0.0613 -0.0325  0.0476
   22SAPC    HY 2866   4.529   3.222  10.311 -0.4925  1.4074 -0.9029
   22SAPC   O31 2867   4.617   3.254  10.129  0.1709 -0.5393  0.7602
   22SAPC   C31 2868   4.710   3.211  10.046  0.4046  0.2618 -0.2009
   22SAPC   O32 2869   4.766   3.105  10.051 -0.5400  0.0982  0.3885
   22SAPC   C32 2870   4.731   3.313   9.937 -0.1295  0.0793  0.3662
   22SAPC   H2X 2871   4.764   3.411   9.979 -1.9876  1.0125 -0.2806
   22SAPC   H2Y 2872   4.636   3.337   9.884  0.3610  0.3482 -0.3879
   22SAPC   C23 2873   4.433   2.823   9.789  0.3250  0.1916  0.8512
   22SAPC   H3R 2874   4.341   2.884   9.775  0.1133 -0.4945 -0.7744
   22SAPC   H3S 2875   4.425   2.722   9.744  1.3400  1.3677 -2.0424
   22SAPC   C24 2876   4.549   2.896   9.715 -0.4968  0.7743 -0.5321
   22SAPC   H4R 2877   4.568   3.000   9.752 -0.8457  0.8026 -0.4291
   22SAPC   H4S 2878   4.512   2.917   9.613  0.7071  0.1456 -1.1024
   22SAPC   C25 2879   4.665   2.799   9.719  0.8423 -0.4182 -0.5541
   22SAPC   H5R 2880   4.737   2.826   9.798 -1.3402  1.1148  0.9722
   22SAPC   C26 2881   4.701   2.712   9.617  0.2150 -0.6070 -0.5875
   22SAPC   H6R 2882   4.784   2.641   9.634  0.2396 -0.1761  1.2659
   22SAPC   C27 2883   4.619   2.693   9.493 -0.2403 -0.2175  0.4152
   22SAPC   H7R 2884   4.619   2.789   9.437 -1.1919 -0.4321  0.0463
   22SAPC   H7S 2885   4.512   2.678   9.519 -0.0239  1.0166  2.0733
   22SAPC   C28 2886   4.661   2.580   9.409 -0.9063 -0.2779  0.5795
   22SAPC   H8R 2887   4.697   2.495   9.469  3.3559  0.1106 -1.1893
   22SAPC   C29 2888   4.674   2.574   9.277 -0.1174  0.2050 -0.6486
   22SAPC   H9R 2889   4.689   2.475   9.230  1.0911 -0.0367  0.2081
   22SAPC  C210 2890   4.630   2.681   9.175  0.4970 -0.0957 -0.2035
   22SAPC  H10R 2891   4.550   2.742   9.223  0.7669 -1.2770  1.7969
   22SAPC  H10S 2892   4.589   2.624   9.089  1.5456 -0.6866 -0.3233
   22SAPC  C211 2893   4.761   2.744   9.118 -0.1155 -0.5319 -0.0416
   22SAPC  H11R 2894   4.818   2.678   9.052 -0.3962 -0.2928 -0.5211
   22SAPC  C212 2895   4.792   2.873   9.120  0.0243  0.4437 -0.1828
   22SAPC  H12R 2896   4.884   2.910   9.073 -1.9339  1.4468 -3.4094
   22SAPC  C213 2897   4.712   2.987   9.184  0.9806  0.5531 -0.5658
   22SAPC  H13R 2898   4.615   2.948   9.222  1.6870  0.4949  1.1876
   22SAPC  H13S 2899   4.685   3.064   9.108  3.0929  0.6433 -1.2618
   22SAPC  C214 2900   4.782   3.061   9.292  0.3707  0.3305 -0.3831
   22SAPC  H14R 2901   4.892   3.049   9.299  0.3134 -0.0483 -0.1347
   22SAPC  C215 2902   4.717   3.137   9.380  0.0450  0.3424 -0.8332
   22SAPC  H15R 2903   4.770   3.184   9.465  0.0144  0.9848 -1.1667
   22SAPC  C216 2904   4.567   3.150   9.398 -0.3337  0.1754  1.2914
   22SAPC  H16R 2905   4.515   3.052   9.402  0.3870 -0.4197 -2.3174
   22SAPC  H16S 2906   4.520   3.196   9.309 -2.0038 -0.4863  1.8108
   22SAPC  C217 2907   4.532   3.228   9.531 -0.2834  0.0716  0.7570
   22SAPC  H17R 2908   4.586   3.325   9.522  1.7650 -0.9109  2.2167
   22SAPC  H17S 2909   4.577   3.169   9.613 -1.4664  0.2237  1.5282
   22SAPC  C218 2910   4.386   3.239   9.563 -0.8825  0.1703 -0.3063
   22SAPC  H18R 2911   4.336   3.139   9.570  1.2951 -1.1096 -2.1484
   22SAPC  H18S 2912   4.324   3.279   9.480 -2.7113 -0.6566  0.6297
   22SAPC  C219 2913   4.370   3.339   9.677 -0.3781  1.2234  0.4560
   22SAPC  H19R 2914   4.265   3.376   9.670 -0.6561  0.6976  1.6825
   22SAPC  H19S 2915   4.451   3.411   9.653  2.9415 -1.7593  2.2508
   22SAPC  C220 2916   4.371   3.268   9.812  0.3202 -0.2564 -0.8415
   22SAPC  H20R 2917   4.275   3.211   9.817 -1.1790  2.3701  1.6366
   22SAPC  H20S 2918   4.374   3.338   9.898 -1.6947 -0.5240 -0.5240
   22SAPC  H20T 2919   4.451   3.193   9.825 -0.5447 -1.0070  0.3269
   22SAPC   C33 2920   4.834   3.259   9.830  0.0469 -0.2032  0.2610
   22SAPC   H3X 2921   4.796   3.168   9.778 -0.8438  2.0649 -3.2337
   22SAPC   H3Y 2922   4.922   3.230   9.891  1.7663  1.4843 -1.3267
   22SAPC   C34 2923   4.878   3.361   9.723  0.3413 -0.3941 -0.2281
   22SAPC   H4X 2924   4.923   3.448   9.775  0.4534 -1.6072  1.7782
   22SAPC   H4Y 2925   4.785   3.394   9.672 -0.3855 -0.3201  1.1277
   22SAPC   C35 2926   4.982   3.301   9.629 -0.3952  0.0647  0.4153
   22SAPC   H5X 2927   4.948   3.205   9.585  0.9652 -0.3082  0.1548
   22SAPC   H5Y 2928   5.070   3.279   9.692 -0.7666  1.2029  1.3545
   22SAPC   C36 2929   5.028   3.385   9.507  0.8727  0.3466  0.6008
   22SAPC   H6X 2930   5.078   3.319   9.433  0.3533  0.4270  0.1674
   22SAPC   H6Y 2931   5.100   3.466   9.533 -1.1822  2.2021  0.6727
   22SAPC   C37 2932   4.916   3.458   9.429 -0.4053  0.2296 -0.0365
   22SAPC   H7X 2933   4.894   3.547   9.493  0.0718 -0.5666  1.2503
   22SAPC   H7Y 2934   4.826   3.394   9.435  0.2161 -0.6746 -0.3259
   22SAPC   C38 2935   4.951   3.487   9.290 -0.0787  0.4610 -0.6404
   22SAPC   H8X 2936   5.003   3.401   9.244 -2.5797 -0.6673 -1.4821
   22SAPC   H8Y 2937   5.016   3.577   9.283  2.2207 -0.9757  1.3866
   22SAPC   C39 2938   4.823   3.501   9.200 -0.6407 -0.6393  0.5195
   22SAPC   H9X 2939   4.768   3.591   9.238 -0.6686 -0.9704  1.2725
   22SAPC   H9Y 2940   4.746   3.423   9.218 -1.1488 -0.0272  1.0400
   22SAPC  C310 2941   4.843   3.502   9.053  0.3050 -0.2551 -0.2632
   22SAPC  H10X 2942   4.891   3.599   9.027 -2.9920  1.8311  1.0825
   22SAPC  H10Y 2943   4.743   3.504   9.005  0.1494 -1.0203  0.0226
   22SAPC  C311 2944   4.925   3.388   8.994 -0.1847 -0.5234 -0.3437
   22SAPC  H11X 2945   4.864   3.295   8.991 -1.4165  0.2279  0.5912
   22SAPC  H11Y 2946   5.017   3.367   9.053 -0.3927 -0.2435  0.0818
   22SAPC  C312 2947   4.971   3.422   8.855 -0.0381  0.4445  0.1958
   22SAPC  H12X 2948   5.040   3.507   8.838 -0.4984  1.3756  2.7452
   22SAPC  H12Y 2949   4.879   3.444   8.796 -0.0727  0.8668  0.4081
   22SAPC  C313 2950   5.032   3.301   8.784  0.3650  0.2052  0.1280
   22SAPC  H13X 2951   5.136   3.286   8.819  0.2485  1.2952  0.9600
   22SAPC  H13Y 2952   5.032   3.326   8.675  0.6278 -2.3323 -0.4877
   22SAPC  C314 2953   4.950   3.172   8.792 -0.5307  0.4142 -0.0670
   22SAPC  H14X 2954   4.844   3.205   8.792 -0.1944  1.5595  1.1331
   22SAPC  H14Y 2955   4.985   3.116   8.882 -0.1738 -2.3064 -1.8452
   22SAPC  C315 2956   4.986   3.084   8.680 -0.3904  0.0861 -0.8646
   22SAPC  H15X 2957   5.095   3.082   8.662 -0.2751 -0.7007 -0.1410
   22SAPC  H15Y 2958   4.929   3.105   8.587 -3.2109 -0.7348  0.6160
   22SAPC  C316 2959   4.953   2.936   8.715  0.6794  0.0694  0.3370
   22SAPC  H16X 2960   4.850   2.925   8.755  0.0496  1.8548 -0.7525
   22SAPC  H16Y 2961   5.027   2.905   8.793  2.4771  3.2312 -0.0409
   22SAPC  C317 2962   4.964   2.834   8.605  0.3979  0.3762  0.3073
   22SAPC  H17X 2963   5.064   2.854   8.560  0.6098 -1.4592 -0.0709
   22SAPC  H17Y 2964   4.887   2.851   8.526 -1.2428  1.6061  2.1305
   22SAPC  C318 2965   4.950   2.685   8.654  0.1715 -0.8998  0.7324
   22SAPC  H18X 2966   5.042   2.650   8.704  2.1779  0.9993 -1.4980
   22SAPC  H18Y 2967   4.935   2.626   8.561  0.9382 -1.4377  0.9421
   22SAPC  H18Z 2968   4.854   2.669   8.708 -0.5524 -1.3186 -0.6684
   23SAPC     N 2969   5.925   4.456  10.975  0.5643 -0.5972 -0.2787
   23SAPC   C12 2970   5.964   4.602  10.969  0.3607  0.4677  0.6123
   23SAPC  H12A 2971   6.071   4.607  10.963  0.1896  1.2527 -2.9948
   23SAPC  H12B 2972   5.951   4.656  11.062  0.8094  0.6857  0.5472
   23SAPC   C13 2973   5.776   4.455  11.006  0.3444 -1.4654  0.2531
   23SAPC  H13A 2974   5.740   4.354  10.993  1.4572 -1.8104 -0.2074
   23SAPC  H13B 2975   5.747   4.494  11.102  0.9830 -2.1655  0.7345
   23SAPC  H13C 2976   5.727   4.512  10.928  1.8705 -1.5428 -0.7983
   23SAPC   C14 2977   5.947   4.389  10.835 -0.1539 -0.6139 -0.6185
   23SAPC  H14A 2978   5.881   4.433  10.762 -1.6249 -3.2792 -0.9214
   23SAPC  H14B 2979   6.046   4.422  10.804 -0.6798  1.1203 -0.5186
   23SAPC  H14C 2980   5.939   4.282  10.844 -0.0212 -0.5941 -0.2309
   23SAPC   C15 2981   6.017   4.379  11.070  0.2480 -0.2265  0.5887
   23SAPC  H15A 2982   5.997   4.405  11.173 -2.2823 -0.3716  0.1868
   23SAPC  H15B 2983   5.993   4.273  11.062  1.1910 -0.3446 -0.8351
   23SAPC  H15C 2984   6.122   4.399  11.058  0.0801 -0.6516 -1.7857
   23SAPC   C11 2985   5.909   4.693  10.855  0.3698 -0.7115  0.1579
   23SAPC  H11A 2986   5.962   4.664  10.761 -1.9357 -0.8592 -1.1375
   23SAPC  H11B 2987   5.943   4.798  10.871 -2.0671  0.1567 -0.1092
   23SAPC     P 2988   5.709   4.684  10.698  0.2612  0.1208 -0.2033
   23SAPC   O13 2989   5.748   4.554  10.641 -0.7642 -0.0816 -0.5175
   23SAPC   O14 2990   5.560   4.692  10.720  0.3722 -0.5758  0.8961
   23SAPC   O12 2991   5.772   4.699  10.843  0.0033  0.0989 -0.3413
   23SAPC   O11 2992   5.775   4.800  10.606  0.6308 -0.3370  0.4789
   23SAPC    C1 2993   5.769   4.933  10.659  0.1709 -0.6804 -0.1204
   23SAPC    HA 2994   5.675   4.981  10.624 -0.9622 -3.6666 -1.3032
   23SAPC    HB 2995   5.776   4.938  10.770  0.6160  0.4747 -0.1865
   23SAPC    C2 2996   5.884   5.017  10.609  0.3416  0.0141  0.1483
   23SAPC    HS 2997   5.867   5.125  10.627 -2.7186 -0.3329 -0.3807
   23SAPC   O21 2998   5.886   4.986  10.467  0.2909  0.7511  0.1364
   23SAPC   C21 2999   5.798   5.059  10.398 -0.0895 -0.0762 -0.0698
   23SAPC   O22 3000   5.742   5.154  10.439  0.3662  0.1301  0.4885
   23SAPC   C22 3001   5.792   5.004  10.257  0.2353  0.5474  0.1264
   23SAPC   H2R 3002   5.899   4.991  10.230 -0.2396 -1.3481 -0.9536
   23SAPC   H2S 3003   5.737   4.908  10.246  2.5129 -0.6776 -0.9390
   23SAPC    C3 3004   6.025   4.986  10.671  0.5533  0.2419  1.0383
   23SAPC    HX 3005   6.022   4.876  10.657  1.2049  0.6895 -3.2737
   23SAPC    HY 3006   6.033   5.014  10.779  1.6247 -0.0676  1.0364
   23SAPC   O31 3007   6.132   5.041  10.591  0.5989  0.0032 -0.9545
   23SAPC   C31 3008   6.246   4.963  10.593 -0.5130 -0.4075  0.2951
   23SAPC   O32 3009   6.250   4.857  10.655 -0.5120 -0.0222 -0.2370
   23SAPC   C32 3010   6.367   5.025  10.538  0.0209 -0.2616 -0.3746
   23SAPC   H2X 3011   6.443   5.018  10.618 -0.1837 -0.3158 -0.1847
   23SAPC   H2Y 3012   6.354   5.132  10.509  2.4339 -0.5093 -2.5597
   23SAPC   C23 3013   5.718   5.106  10.169 -0.6727 -0.0448  0.6794
   23SAPC   H3R 3014   5.765   5.204  10.190  0.5885 -0.9070  2.0164
   23SAPC   H3S 3015   5.611   5.102  10.198 -0.3070 -1.0970  1.9254
   23SAPC   C24 3016   5.739   5.074  10.026  0.3559  0.5542 -1.0255
   23SAPC   H4R 3017   5.684   5.148   9.964 -0.5820  1.5943  1.0001
   23SAPC   H4S 3018   5.698   4.972  10.012  2.2953 -0.2688 -0.9206
   23SAPC   C25 3019   5.879   5.070   9.976  0.6058  0.1865  0.0182
   23SAPC   H5R 3020   5.954   5.004  10.022  1.9830  0.1923 -2.1439
   23SAPC   C26 3021   5.928   5.139   9.872  0.2397 -0.0540  0.2411
   23SAPC   H6R 3022   6.036   5.126   9.860 -0.0812 -2.6127 -0.2664
   23SAPC   C27 3023   5.863   5.244   9.785  0.2343  0.0036  0.0631
   23SAPC   H7R 3024   5.808   5.308   9.857  0.9673 -0.3025  0.9140
   23SAPC   H7S 3025   5.784   5.193   9.726 -1.1544 -0.2768  2.1338
   23SAPC   C28 3026   5.963   5.318   9.699  0.1631 -0.0989  0.4768
   23SAPC   H8R 3027   5.974   5.426   9.719 -0.6537 -0.0184  0.5133
   23SAPC   C29 3028   6.025   5.260   9.595 -0.0378  0.0056 -0.5884
   23SAPC   H9R 3029   6.085   5.324   9.529 -1.2245  2.1555  0.3516
   23SAPC  C210 3030   6.010   5.121   9.550  0.3792 -0.5974  0.7907
   23SAPC  H10R 3031   5.966   5.059   9.631 -0.5065 -1.5081 -0.3705
   23SAPC  H10S 3032   6.109   5.085   9.514  1.8015 -0.1128  4.0895
   23SAPC  C211 3033   5.915   5.120   9.433  0.0780  0.2421 -1.0281
   23SAPC  H11R 3034   5.808   5.128   9.457  0.3284  1.7412 -0.3697
   23SAPC  C212 3035   5.947   5.115   9.303  0.2976 -1.0380 -0.1824
   23SAPC  H12R 3036   5.865   5.119   9.230  0.0265 -0.0611  0.1629
   23SAPC  C213 3037   6.082   5.101   9.239 -0.1687  1.2838  0.5049
   23SAPC  H13R 3038   6.069   5.033   9.152  3.4081  0.9631  0.1397
   23SAPC  H13S 3039   6.157   5.056   9.307 -0.1380 -0.1173 -0.4394
   23SAPC  C214 3040   6.121   5.242   9.209 -0.4346 -0.1818 -0.4184
   23SAPC  H14R 3041   6.148   5.306   9.294 -0.9198 -2.9921  1.9262
   23SAPC  C215 3042   6.141   5.282   9.083  0.2808  0.8076  0.8012
   23SAPC  H15R 3043   6.160   5.389   9.064 -0.8538  1.1971  1.8426
   23SAPC  C216 3044   6.129   5.210   8.952 -0.0482  0.0747 -0.0504
   23SAPC  H16R 3045   6.041   5.142   8.956  0.3423 -0.4257  0.2262
   23SAPC  H16S 3046   6.206   5.130   8.943 -0.6713 -1.0391  3.6711
   23SAPC  C217 3047   6.126   5.289   8.818  0.2443  0.9249  0.0657
   23SAPC  H17R 3048   6.217   5.353   8.825  2.6047 -2.4140  1.2404
   23SAPC  H17S 3049   6.046   5.366   8.821  1.5526  2.2433  2.1687
   23SAPC  C218 3050   6.121   5.189   8.698  0.0219 -0.2991  0.5225
   23SAPC  H18R 3051   6.040   5.114   8.707  0.4924 -0.6904  1.6885
   23SAPC  H18S 3052   6.212   5.125   8.688  0.0385  0.2063 -3.0990
   23SAPC  C219 3053   6.092   5.265   8.572 -0.3050  0.7025 -0.6819
   23SAPC  H19R 3054   6.167   5.344   8.552  0.9823 -0.7380 -1.6968
   23SAPC  H19S 3055   5.996   5.319   8.589 -0.7573  0.0200 -1.0432
   23SAPC  C220 3056   6.078   5.168   8.452  0.2847 -0.2361  0.1111
   23SAPC  H20R 3057   6.169   5.105   8.457  0.8888  0.6914  1.0970
   23SAPC  H20S 3058   6.057   5.239   8.369 -0.4955  0.9600  1.3153
   23SAPC  H20T 3059   5.983   5.110   8.458  1.0681 -1.7273 -1.6615
   23SAPC   C33 3060   6.408   4.942  10.419 -0.8952  0.0240  0.0181
   23SAPC   H3X 3061   6.342   4.935  10.330 -0.2989 -0.7378 -0.3752
   23SAPC   H3Y 3062   6.440   4.840  10.451 -0.8127 -0.3256 -1.1192
   23SAPC   C34 3063   6.536   5.003  10.350 -0.2844  0.2455  0.1213
   23SAPC   H4X 3064   6.617   5.010  10.426  1.0978  0.1489 -1.3376
   23SAPC   H4Y 3065   6.502   5.105  10.322 -2.2928 -0.3275  0.3783
   23SAPC   C35 3066   6.586   4.932  10.220  1.1367 -0.1890 -0.1037
   23SAPC   H5X 3067   6.583   4.822  10.237 -1.7469  0.0878  1.5289
   23SAPC   H5Y 3068   6.691   4.968  10.207  0.0838  2.9634 -0.2918
   23SAPC   C36 3069   6.495   4.968  10.096  0.5123 -0.6078  0.0078
   23SAPC   H6X 3070   6.491   5.078  10.079 -0.8824 -1.0440 -2.7408
   23SAPC   H6Y 3071   6.394   4.935  10.127  0.2152  0.4043  0.1602
   23SAPC   C37 3072   6.520   4.911   9.958  0.7612  0.3055  0.3847
   23SAPC   H7X 3073   6.438   4.937   9.888  1.1863  0.8770  0.0913
   23SAPC   H7Y 3074   6.511   4.803   9.979 -1.8647  0.4523  0.1247
   23SAPC   C38 3075   6.664   4.932   9.913  0.2312  0.1448  0.3087
   23SAPC   H8X 3076   6.732   4.879   9.983 -1.3826  1.1205  2.6950
   23SAPC   H8Y 3077   6.693   5.039   9.921 -1.1992  0.4834  1.2058
   23SAPC   C39 3078   6.690   4.868   9.776 -0.9936  0.4497  0.0350
   23SAPC   H9X 3079   6.638   4.770   9.773 -1.0830  0.4314  1.6545
   23SAPC   H9Y 3080   6.799   4.858   9.762 -0.8159 -1.7049  2.4060
   23SAPC  C310 3081   6.636   4.939   9.650  0.0140  0.0672  0.1531
   23SAPC  H10X 3082   6.696   5.030   9.630 -0.0115 -0.2313 -1.2937
   23SAPC  H10Y 3083   6.533   4.976   9.672  0.0199  0.6227 -0.7381
   23SAPC  C311 3084   6.667   4.854   9.526  0.5525 -0.2450 -0.0269
   23SAPC  H11X 3085   6.639   4.747   9.531  0.3635 -0.1769  0.4015
   23SAPC  H11Y 3086   6.778   4.858   9.514  0.3405 -1.7305 -2.7463
   23SAPC  C312 3087   6.603   4.906   9.399  0.3489 -0.0565  0.7695
   23SAPC  H12X 3088   6.613   5.017   9.393 -2.5686  0.0885 -3.2708
   23SAPC  H12Y 3089   6.497   4.882   9.422  0.6673 -1.8357  0.4486
   23SAPC  C313 3090   6.645   4.844   9.274  0.2680 -0.3008 -0.1072
   23SAPC  H13X 3091   6.622   4.735   9.264 -0.4520 -0.2761  1.1273
   23SAPC  H13Y 3092   6.753   4.867   9.263  0.3821  0.1846  1.9585
   23SAPC  C314 3093   6.576   4.900   9.147 -0.9159 -0.1322 -0.3771
   23SAPC  H14X 3094   6.589   5.010   9.143  1.0413 -0.3101  0.7133
   23SAPC  H14Y 3095   6.466   4.880   9.151 -0.7768 -0.7717  0.3577
   23SAPC  C315 3096   6.632   4.846   9.019 -0.7753  0.1433  0.3946
   23SAPC  H15X 3097   6.623   4.736   9.013 -0.1089 -0.0400  2.5247
   23SAPC  H15Y 3098   6.740   4.867   9.011 -1.0448  0.9760 -1.2715
   23SAPC  C316 3099   6.584   4.911   8.896  0.3335  0.7291 -0.3632
   23SAPC  H16X 3100   6.611   5.018   8.893 -1.9540  1.2790 -2.8359
   23SAPC  H16Y 3101   6.474   4.903   8.902  0.4144  0.4366  1.0593
   23SAPC  C317 3102   6.633   4.859   8.758 -0.4179 -0.5839 -0.2181
   23SAPC  H17X 3103   6.598   4.754   8.744 -0.2565 -0.3009 -3.0188
   23SAPC  H17Y 3104   6.743   4.853   8.778 -0.6605 -0.4112  1.2656
   23SAPC  C318 3105   6.578   4.941   8.638  0.0966  0.5702  0.3813
   23SAPC  H18X 3106   6.468   4.928   8.628  0.2843 -1.4123  0.5650
   23SAPC  H18Y 3107   6.614   4.897   8.542  0.0326 -2.3109  1.6083
   23SAPC  H18Z 3108   6.608   5.046   8.657 -2.8664  2.0939 -2.7920
   24SAPC     N 3109   0.838   4.963  11.309 -0.0924 -0.0598 -0.4809
   24SAPC   C12 3110   0.929   4.928  11.199  0.3770 -1.0462 -0.4260
   24SAPC  H12A 3111   0.969   4.830  11.220  1.4360 -0.7049 -0.8408
   24SAPC  H12B 3112   1.007   5.003  11.207  0.3119 -1.1469  1.4253
   24SAPC   C13 3113   0.798   5.103  11.295 -0.2149 -0.4354  0.0725
   24SAPC  H13A 3114   0.732   5.131  11.376  0.4504 -2.3574  1.3136
   24SAPC  H13B 3115   0.884   5.168  11.307 -1.5043  1.8298 -2.2243
   24SAPC  H13C 3116   0.753   5.126  11.199  0.5108  2.3965  0.3443
   24SAPC   C14 3117   0.726   4.870  11.315  0.0743  0.0229  0.0811
   24SAPC  H14A 3118   0.666   4.887  11.403 -1.9633 -1.5345 -0.9513
   24SAPC  H14B 3119   0.660   4.873  11.229  1.3144  1.2830 -0.8543
   24SAPC  H14C 3120   0.754   4.766  11.328 -0.0696  0.0085  0.2702
   24SAPC   C15 3121   0.906   4.946  11.445  0.2972 -0.3050  0.3891
   24SAPC  H15A 3122   0.851   4.980  11.531  3.4436 -1.7557  3.1219
   24SAPC  H15B 3123   0.920   4.840  11.463  1.2601 -0.7763 -2.8393
   24SAPC  H15C 3124   1.006   4.987  11.444  0.6558 -1.1013  2.3034
   24SAPC   C11 3125   0.865   4.922  11.059 -0.3552 -0.2866  0.4552
   24SAPC  H11A 3126   0.788   4.842  11.055 -1.5796  0.8885  0.1140
   24SAPC  H11B 3127   0.941   4.877  10.992 -0.4136 -0.4905  0.5232
   24SAPC     P 3128   0.925   5.145  10.955 -0.1655  0.6032  0.1099
   24SAPC   O13 3129   0.869   5.269  10.899 -0.4328 -0.1615 -0.1189
   24SAPC   O14 3130   1.020   5.164  11.069  0.2367 -0.0007 -0.5908
   24SAPC   O12 3131   0.808   5.044  10.999 -0.0570 -0.1784 -0.0704
   24SAPC   O11 3132   0.989   5.054  10.835 -0.0395 -0.3501 -0.4913
   24SAPC    C1 3133   0.924   5.019  10.712 -0.1575 -0.6980  0.6028
   24SAPC    HA 3134   0.893   4.913  10.723 -0.4305 -0.8610 -1.4890
   24SAPC    HB 3135   0.833   5.081  10.695  1.0050  0.2052 -2.7002
   24SAPC    C2 3136   1.007   5.051  10.582  0.7952 -0.2572 -0.2228
   24SAPC    HS 3137   1.046   4.950  10.555 -0.2448 -1.0238  1.0825
   24SAPC   O21 3138   1.098   5.155  10.613 -0.3044  0.3366 -0.3350
   24SAPC   C21 3139   1.227   5.123  10.623 -0.8016  0.3650 -0.7220
   24SAPC   O22 3140   1.279   5.017  10.592  0.3894 -0.4195 -0.0512
   24SAPC   C22 3141   1.294   5.251  10.668 -1.1124  0.7865 -0.7161
   24SAPC   H2R 3142   1.237   5.347  10.674 -0.2765  1.3045 -0.9173
   24SAPC   H2S 3143   1.335   5.221  10.767 -1.2325  1.5127 -0.4402
   24SAPC    C3 3144   0.909   5.105  10.467  0.1780  0.2214 -0.1983
   24SAPC    HX 3145   0.875   5.207  10.494  1.0153  0.0739  1.4846
   24SAPC    HY 3146   0.820   5.038  10.473  0.5181 -0.2409 -0.2293
   24SAPC   O31 3147   0.971   5.104  10.339 -0.3571  0.3866 -0.1681
   24SAPC   C31 3148   1.014   5.215  10.286 -0.0248  0.4860 -0.0315
   24SAPC   O32 3149   1.018   5.324  10.337  0.5333  0.1503 -0.0732
   24SAPC   C32 3150   1.041   5.186  10.134 -0.8188 -0.8183  0.0480
   24SAPC   H2X 3151   0.942   5.184  10.084 -1.5293 -0.3695  1.4247
   24SAPC   H2Y 3152   1.091   5.088  10.118  0.0378 -0.1595 -1.4595
   24SAPC   C23 3153   1.418   5.289  10.575  0.5638  0.0671 -0.1578
   24SAPC   H3R 3154   1.491   5.206  10.561 -1.0454 -1.4439  0.1332
   24SAPC   H3S 3155   1.471   5.377  10.617  0.3671  0.3623 -0.5262
   24SAPC   C24 3156   1.358   5.332  10.435  0.9734  0.2641  0.1457
   24SAPC   H4R 3157   1.278   5.408  10.443 -0.4314 -1.1421 -0.3551
   24SAPC   H4S 3158   1.308   5.251  10.377  2.1691  0.0270 -0.5719
   24SAPC   C25 3159   1.460   5.398  10.341  0.0030  0.0785  0.1545
   24SAPC   H5R 3160   1.462   5.508  10.350  0.4635  0.3373 -2.6929
   24SAPC   C26 3161   1.538   5.339  10.245 -0.4255 -0.4875  0.2064
   24SAPC   H6R 3162   1.603   5.407  10.187  1.6646 -0.5605  2.3930
   24SAPC   C27 3163   1.554   5.197  10.208 -0.0155 -0.0653  0.0648
   24SAPC   H7R 3164   1.516   5.132  10.290  4.1533 -3.1420 -0.3068
   24SAPC   H7S 3165   1.661   5.172  10.195 -0.5465 -2.5752  0.2935
   24SAPC   C28 3166   1.490   5.156  10.081 -0.5063 -0.3161 -0.3174
   24SAPC   H8R 3167   1.397   5.097  10.093 -0.2011 -0.8842 -0.7280
   24SAPC   C29 3168   1.537   5.183   9.962  0.1141 -0.3992  0.5678
   24SAPC   H9R 3169   1.478   5.146   9.877  2.2402  1.1792 -1.6715
   24SAPC  C210 3170   1.663   5.253   9.930  0.1145 -0.0128 -0.8200
   24SAPC  H10R 3171   1.736   5.251  10.015 -0.0265 -2.0186 -0.7223
   24SAPC  H10S 3172   1.635   5.360   9.921  2.1984  0.4758 -1.8290
   24SAPC  C211 3173   1.745   5.194   9.815  0.6461  0.0509  0.0533
   24SAPC  H11R 3174   1.826   5.128   9.851  0.1641 -0.9336 -0.6311
   24SAPC  C212 3175   1.715   5.198   9.682 -0.4560  0.5841 -0.1856
   24SAPC  H12R 3176   1.776   5.130   9.621 -0.4583  1.3625 -1.0746
   24SAPC  C213 3177   1.596   5.265   9.613 -0.4114  0.0179  0.6502
   24SAPC  H13R 3178   1.593   5.374   9.634  1.5010  0.0384  0.9331
   24SAPC  H13S 3179   1.501   5.222   9.652 -2.1031 -0.1457 -3.4448
   24SAPC  C214 3180   1.614   5.271   9.463  0.1490 -0.2686 -0.9576
   24SAPC  H14R 3181   1.703   5.323   9.424  0.6368  0.5602  1.1793
   24SAPC  C215 3182   1.524   5.225   9.373  0.0866 -0.0344 -0.8486
   24SAPC  H15R 3183   1.559   5.228   9.269 -0.4039 -1.2584 -1.0585
   24SAPC  C216 3184   1.389   5.161   9.400  0.2368  0.3156 -0.3946
   24SAPC  H16R 3185   1.304   5.233   9.400  1.0089  1.2390 -0.1789
   24SAPC  H16S 3186   1.385   5.125   9.505  3.3166  0.8254 -0.0419
   24SAPC  C217 3187   1.375   5.049   9.293  0.5290  0.2316  0.7178
   24SAPC  H17R 3188   1.283   4.994   9.318  1.2259 -0.5383  1.6426
   24SAPC  H17S 3189   1.453   4.971   9.303 -0.3312 -0.7439 -0.0863
   24SAPC  C218 3190   1.346   5.092   9.146  0.5939 -0.8262  0.5106
   24SAPC  H18R 3191   1.427   5.159   9.110  0.9631 -1.0066  0.9971
   24SAPC  H18S 3192   1.254   5.154   9.135  0.6197 -1.1948 -1.9400
   24SAPC  C219 3193   1.333   4.979   9.047 -0.3763  0.2577 -0.2985
   24SAPC  H19R 3194   1.409   4.900   9.066 -0.4541  0.4222  0.7314
   24SAPC  H19S 3195   1.340   5.019   8.944 -0.0694  2.0251  0.3851
   24SAPC  C220 3196   1.188   4.928   9.050 -0.7397  0.5993 -0.3541
   24SAPC  H20R 3197   1.162   4.885   9.149  0.4615 -0.4734 -0.4984
   24SAPC  H20S 3198   1.175   4.846   8.975 -1.9553  1.1178 -0.7226
   24SAPC  H20T 3199   1.108   5.004   9.034  0.4647  1.6734 -1.3574
   24SAPC   C33 3200   1.121   5.305  10.067  0.2647  0.0572 -0.7647
   24SAPC   H3X 3201   1.221   5.309  10.116 -0.3205  1.2811  0.3784
   24SAPC   H3Y 3202   1.073   5.399  10.101  2.2892  0.6624  0.5465
   24SAPC   C34 3203   1.126   5.303   9.915 -0.0997  0.1419  0.7863
   24SAPC   H4X 3204   1.025   5.329   9.876 -0.2795 -1.8956 -0.1798
   24SAPC   H4Y 3205   1.150   5.203   9.872  1.2117  2.4622 -4.2695
   24SAPC   C35 3206   1.212   5.413   9.847  0.0679 -0.0183 -0.1535
   24SAPC   H5X 3207   1.321   5.392   9.858 -0.3617 -1.3857  1.6344
   24SAPC   H5Y 3208   1.199   5.504   9.909  0.0860  1.0411 -1.6753
   24SAPC   C36 3209   1.174   5.427   9.700 -0.3780 -0.0415 -0.1733
   24SAPC   H6X 3210   1.071   5.468   9.694 -0.6891 -1.0302 -1.9116
   24SAPC   H6Y 3211   1.183   5.330   9.646  0.1898  1.0430 -2.0854
   24SAPC   C37 3212   1.275   5.513   9.622 -0.1319 -0.1674 -0.6537
   24SAPC   H7X 3213   1.376   5.469   9.635  0.8192  1.6832 -1.4764
   24SAPC   H7Y 3214   1.260   5.611   9.672  2.2623 -0.6079  1.0026
   24SAPC   C38 3215   1.240   5.510   9.474  0.0428 -0.2448  0.4530
   24SAPC   H8X 3216   1.242   5.415   9.417 -3.2608  0.4596 -0.9577
   24SAPC   H8Y 3217   1.318   5.557   9.410  1.0202 -3.6734 -0.9842
   24SAPC   C39 3218   1.099   5.579   9.449 -0.0262  0.0000 -0.0259
   24SAPC   H9X 3219   1.106   5.675   9.504 -0.5992  0.7663 -1.2513
   24SAPC   H9Y 3220   1.017   5.526   9.500  0.8631 -1.8556 -0.4716
   24SAPC  C310 3221   1.078   5.599   9.295 -0.3032  0.0813  0.1302
   24SAPC  H10X 3222   1.176   5.633   9.254 -0.6558  0.7452 -0.1747
   24SAPC  H10Y 3223   0.997   5.672   9.273 -3.1416 -1.9585  3.3941
   24SAPC  C311 3224   1.041   5.471   9.221 -0.0825  0.2404 -0.7981
   24SAPC  H11X 3225   0.930   5.463   9.223 -0.2548  2.4425 -0.3250
   24SAPC  H11Y 3226   1.081   5.383   9.275  0.7285  0.4042 -1.1218
   24SAPC  C312 3227   1.079   5.461   9.074  0.2228 -0.4953  0.0583
   24SAPC  H12X 3228   1.043   5.367   9.027  0.0028  1.2452 -3.4706
   24SAPC  H12Y 3229   1.190   5.452   9.074  0.1079 -2.1680 -0.3752
   24SAPC  C313 3230   1.035   5.583   8.981  0.1759  0.1254 -0.2557
   24SAPC  H13X 3231   1.093   5.576   8.887  2.5061 -1.5820  1.2823
   24SAPC  H13Y 3232   1.078   5.672   9.032 -0.4444  0.7599 -0.8195
   24SAPC  C314 3233   0.884   5.589   8.966 -0.2323  0.6359  0.4320
   24SAPC  H14X 3234   0.834   5.548   9.056 -0.3095 -0.5707 -0.1529
   24SAPC  H14Y 3235   0.861   5.523   8.879  1.3329 -1.1853  1.3643
   24SAPC  C315 3236   0.827   5.728   8.925  0.2261 -0.3877 -0.4720
   24SAPC  H15X 3237   0.716   5.718   8.914 -0.1255  2.2385  0.3724
   24SAPC  H15Y 3238   0.874   5.764   8.831  0.1094 -1.2531 -0.8682
   24SAPC  C316 3239   0.849   5.848   9.024 -0.1367 -0.4884  0.3688
   24SAPC  H16X 3240   0.828   5.948   8.979  2.3501 -0.0889  0.0551
   24SAPC  H16Y 3241   0.952   5.851   9.066 -0.1750  2.3203  0.3744
   24SAPC  C317 3242   0.757   5.837   9.147 -0.7313  0.9669  0.4052
   24SAPC  H17X 3243   0.786   5.757   9.217 -1.5538 -0.7796 -1.2005
   24SAPC  H17Y 3244   0.657   5.810   9.106  0.5531 -0.3399 -2.0073
   24SAPC  C318 3245   0.740   5.965   9.232  0.2858 -0.2078 -0.8878
   24SAPC  H18X 3246   0.703   6.048   9.168  0.9549 -0.3147 -1.4087
   24SAPC  H18Y 3247   0.837   5.987   9.282 -0.4195 -0.1753  0.4939
   24SAPC  H18Z 3248   0.659   5.945   9.305 -2.3623  1.6611 -3.1970
   25SAPC     N 3249   3.994   3.645   6.194  0.4353  0.1241  0.2142
   25SAPC   C12 3250   4.102   3.619   6.299  0.0070 -0.4832 -0.4778
   25SAPC  H12A 3251   4.063   3.656   6.393 -1.1725 -1.4879 -0.5494
   25SAPC  H12B 3252   4.192   3.671   6.270  0.5785 -1.8610 -1.2352
   25SAPC   C13 3253   3.967   3.792   6.187  0.2734  0.3957  0.1516
   25SAPC  H13A 3254   4.064   3.839   6.190 -0.4056  1.8232  0.0592
   25SAPC  H13B 3255   3.909   3.806   6.096 -1.9131  0.3270  1.4962
   25SAPC  H13C 3256   3.901   3.828   6.265 -1.3951 -0.7126 -0.7044
   25SAPC   C14 3257   4.031   3.589   6.061 -0.4446 -0.2992  0.5846
   25SAPC  H14A 3258   3.952   3.595   5.988 -0.3858 -1.1533  0.4468
   25SAPC  H14B 3259   4.113   3.649   6.025 -2.3675  0.3546 -2.8730
   25SAPC  H14C 3260   4.070   3.488   6.064 -0.0727 -0.1441  1.1928
   25SAPC   C15 3261   3.866   3.577   6.237  0.0978 -0.2756  0.4271
   25SAPC  H15A 3262   3.792   3.610   6.166  0.9994  0.0014 -0.4066
   25SAPC  H15B 3263   3.879   3.470   6.224  0.6990 -0.2770  0.9777
   25SAPC  H15C 3264   3.827   3.597   6.336  0.8284  3.0056  0.1105
   25SAPC   C11 3265   4.137   3.474   6.335 -0.2347  0.3849 -0.4354
   25SAPC  H11A 3266   4.059   3.419   6.392  1.4815 -2.3421 -0.6576
   25SAPC  H11B 3267   4.210   3.477   6.419 -0.6610  3.7463 -0.1065
   25SAPC     P 3268   4.326   3.408   6.170  0.1748 -0.1590  0.4298
   25SAPC   O13 3269   4.374   3.280   6.118 -0.6568 -0.3694  0.4372
   25SAPC   O14 3270   4.328   3.518   6.061  0.0173 -0.2782 -0.3562
   25SAPC   O12 3271   4.173   3.393   6.224 -0.5001 -0.1552 -0.3058
   25SAPC   O11 3272   4.409   3.456   6.292 -0.2678  0.8282  0.3355
   25SAPC    C1 3273   4.524   3.390   6.349 -0.2329  0.0415  0.5037
   25SAPC    HA 3274   4.491   3.335   6.440 -1.7092  1.7962  1.0571
   25SAPC    HB 3275   4.554   3.317   6.272 -1.0862 -1.4834  1.5924
   25SAPC    C2 3276   4.641   3.480   6.394 -0.1073 -0.3137 -0.6395
   25SAPC    HS 3277   4.722   3.414   6.431  0.5698 -0.7168 -2.7828
   25SAPC   O21 3278   4.615   3.583   6.494 -0.1027 -0.1604  0.2491
   25SAPC   C21 3279   4.547   3.548   6.603  0.4120 -0.2405 -0.0905
   25SAPC   O22 3280   4.540   3.431   6.647  0.3509 -1.0932  0.0324
   25SAPC   C22 3281   4.469   3.667   6.661 -0.5111 -0.3973  0.6395
   25SAPC   H2R 3282   4.537   3.755   6.660  1.1002 -1.5861  2.2339
   25SAPC   H2S 3283   4.379   3.678   6.598 -1.5707  0.7933  2.3220
   25SAPC    C3 3284   4.712   3.553   6.279  0.8901 -0.3740  0.1222
   25SAPC    HX 3285   4.641   3.631   6.243  0.5443 -0.2081  1.1633
   25SAPC    HY 3286   4.737   3.476   6.204 -1.4326 -0.6255 -0.4411
   25SAPC   O31 3287   4.825   3.628   6.318  0.1966 -0.1174  0.5978
   25SAPC   C31 3288   4.932   3.549   6.342  0.1646 -0.8158  0.2868
   25SAPC   O32 3289   4.936   3.431   6.329  0.3605  0.3885  0.3884
   25SAPC   C32 3290   5.042   3.637   6.403  0.4400  0.0726  0.5473
   25SAPC   H2X 3291   5.005   3.738   6.430 -1.5407 -0.6867  0.7561
   25SAPC   H2Y 3292   5.118   3.649   6.322 -0.7356  2.2608 -0.2711
   25SAPC   C23 3293   4.410   3.633   6.800 -0.0312 -0.2466 -0.1456
   25SAPC   H3R 3294   4.393   3.721   6.866 -0.8119  0.6671 -1.5386
   25SAPC   H3S 3295   4.482   3.567   6.853  2.3460  2.0791 -0.4250
   25SAPC   C24 3296   4.280   3.557   6.792 -0.3601  0.3939 -0.5351
   25SAPC   H4R 3297   4.259   3.501   6.885 -2.1466  0.0555 -1.1261
   25SAPC   H4S 3298   4.286   3.477   6.715  1.0147  1.7496 -1.8815
   25SAPC   C25 3299   4.154   3.641   6.759  0.4140 -0.2430  0.4123
   25SAPC   H5R 3300   4.142   3.656   6.651  1.7476  1.9762  0.5719
   25SAPC   C26 3301   4.064   3.691   6.850  0.0180 -0.3657 -0.3470
   25SAPC   H6R 3302   3.978   3.749   6.812 -0.9358 -0.7252  1.2348
   25SAPC   C27 3303   4.071   3.679   6.997  0.2096  0.0603 -0.0851
   25SAPC   H7R 3304   4.161   3.734   7.031  0.3308  0.2014 -0.6239
   25SAPC   H7S 3305   4.078   3.571   7.021 -2.1127 -0.2578 -0.6750
   25SAPC   C28 3306   3.951   3.737   7.070 -0.5040  0.5110  1.0328
   25SAPC   H8R 3307   3.876   3.794   7.012 -0.6649  0.2461  0.9804
   25SAPC   C29 3308   3.927   3.734   7.203 -0.1729 -0.0334 -0.1188
   25SAPC   H9R 3309   3.843   3.796   7.238  0.9835  1.3815  0.1834
   25SAPC  C210 3310   4.025   3.673   7.300 -0.6043  0.0358  0.0051
   25SAPC  H10R 3311   4.119   3.731   7.290 -1.0885  0.5121 -2.2152
   25SAPC  H10S 3312   4.045   3.568   7.268 -3.0654 -0.3242 -0.4452
   25SAPC  C211 3313   3.973   3.675   7.450 -0.2641  0.0676  0.0809
   25SAPC  H11R 3314   3.878   3.620   7.454  0.3315 -0.9123  1.1712
   25SAPC  C212 3315   4.023   3.742   7.562  0.3336  0.8401 -0.1552
   25SAPC  H12R 3316   3.983   3.732   7.664 -0.6210  0.8977 -0.5163
   25SAPC  C213 3317   4.140   3.836   7.553  0.6231  0.0873 -0.1484
   25SAPC  H13R 3318   4.131   3.889   7.456  0.6535  2.2403  1.0031
   25SAPC  H13S 3319   4.236   3.781   7.541 -0.7333 -2.0904 -1.2909
   25SAPC  C214 3320   4.134   3.937   7.665 -0.4981 -0.2108  0.2365
   25SAPC  H14R 3321   4.086   4.028   7.627  0.1013  0.5115  1.1961
   25SAPC  C215 3322   4.173   3.921   7.790 -0.1009  0.0669  0.4671
   25SAPC  H15R 3323   4.152   4.000   7.864  1.4355 -0.3652  1.3841
   25SAPC  C216 3324   4.225   3.793   7.846  0.3031 -0.4417  0.1125
   25SAPC  H16R 3325   4.318   3.810   7.903  0.3919  1.8402 -0.6737
   25SAPC  H16S 3326   4.255   3.723   7.766 -1.5847 -0.0151 -1.0078
   25SAPC  C217 3327   4.121   3.727   7.940 -0.6067 -0.3712 -0.0096
   25SAPC  H17R 3328   4.159   3.626   7.964  1.1462  0.3198  0.1869
   25SAPC  H17S 3329   4.025   3.717   7.885 -0.6777  3.4731 -0.7199
   25SAPC  C218 3330   4.079   3.792   8.077 -0.6388  0.2105 -0.1094
   25SAPC  H18R 3331   3.999   3.732   8.126  0.4153 -1.2586 -0.1749
   25SAPC  H18S 3332   4.028   3.890   8.067 -1.1871 -0.2208 -1.7084
   25SAPC  C219 3333   4.186   3.804   8.182  0.2601  0.8838  0.2395
   25SAPC  H19R 3334   4.279   3.857   8.154  0.4161  0.0546 -0.8210
   25SAPC  H19S 3335   4.226   3.704   8.210  0.9845  1.0875 -0.0663
   25SAPC  C220 3336   4.129   3.877   8.300  0.1469  0.3312  0.2086
   25SAPC  H20R 3337   4.105   3.982   8.274 -0.0712  0.7589  2.1229
   25SAPC  H20S 3338   4.211   3.873   8.375 -0.6962  3.7176  1.3818
   25SAPC  H20T 3339   4.037   3.829   8.339 -0.1867  0.6657 -0.1727
   25SAPC   C33 3340   5.111   3.558   6.522 -0.6327 -0.1773  0.3741
   25SAPC   H3X 3341   5.195   3.618   6.565 -0.9036  2.4977 -2.6301
   25SAPC   H3Y 3342   5.132   3.452   6.495 -0.1101  0.4386 -1.7520
   25SAPC   C34 3343   5.014   3.540   6.640 -0.0929 -0.2402  0.5389
   25SAPC   H4X 3344   5.066   3.483   6.720 -1.6709  0.0699  1.8220
   25SAPC   H4Y 3345   4.924   3.484   6.607 -0.2560  0.2018  0.2340
   25SAPC   C35 3346   4.979   3.676   6.695  0.4272 -0.9849  0.0507
   25SAPC   H5X 3347   4.934   3.746   6.622  0.2370 -0.1229  0.9890
   25SAPC   H5Y 3348   5.066   3.730   6.735  0.4303 -1.3330  0.5209
   25SAPC   C36 3349   4.888   3.666   6.815  0.1152  0.5071 -1.1364
   25SAPC   H6X 3350   4.953   3.644   6.903 -0.8666 -1.5087 -0.8823
   25SAPC   H6Y 3351   4.816   3.582   6.811 -0.3783  0.8011  1.1079
   25SAPC   C37 3352   4.805   3.798   6.837  0.0227 -0.2646  0.0230
   25SAPC   H7X 3353   4.731   3.774   6.917 -0.8221 -2.5923 -1.3825
   25SAPC   H7Y 3354   4.762   3.834   6.741 -0.2289  0.1544  0.2934
   25SAPC   C38 3355   4.893   3.912   6.895 -0.1271  0.3632 -0.4741
   25SAPC   H8X 3356   4.833   4.005   6.885  2.9034  2.2684 -1.7395
   25SAPC   H8Y 3357   4.986   3.934   6.839  0.4039  1.0354  0.6427
   25SAPC   C39 3358   4.929   3.893   7.041  0.4445 -0.7252 -0.4891
   25SAPC   H9X 3359   4.994   3.806   7.063  1.3244 -0.2164 -1.0461
   25SAPC   H9Y 3360   4.839   3.883   7.105  0.8984 -2.4023 -0.0850
   25SAPC  C310 3361   5.008   4.022   7.089 -0.3724  0.1572  0.1363
   25SAPC  H10X 3362   4.958   4.117   7.063 -2.4420 -1.0097 -0.2792
   25SAPC  H10Y 3363   5.111   4.010   7.049 -0.2955 -1.5494  0.7949
   25SAPC  C311 3364   5.025   4.033   7.239  0.0509  0.8788 -1.3580
   25SAPC  H11X 3365   4.927   4.044   7.290 -0.3634 -0.5807 -1.7989
   25SAPC  H11Y 3366   5.084   4.124   7.260  0.2545  0.5505 -0.4455
   25SAPC  C312 3367   5.091   3.911   7.308  0.5618  0.3904  0.2526
   25SAPC  H12X 3368   5.172   3.883   7.237  0.6067  0.2558  0.3582
   25SAPC  H12Y 3369   5.025   3.822   7.305  0.4450  0.4860 -0.0880
   25SAPC  C313 3370   5.135   3.943   7.450 -0.3174 -0.5383  0.1334
   25SAPC  H13X 3371   5.215   4.021   7.449  0.1179 -0.9746  0.6504
   25SAPC  H13Y 3372   5.175   3.851   7.497 -0.7039 -1.1693 -0.7658
   25SAPC  C314 3373   5.029   4.011   7.541 -0.2395 -0.3656  0.6321
   25SAPC  H14X 3374   4.945   3.938   7.531 -1.0728  0.7949 -0.8484
   25SAPC  H14Y 3375   4.960   4.089   7.504 -1.6032 -1.2133  1.3364
   25SAPC  C315 3376   5.076   4.037   7.680  0.3577  0.2274 -0.3026
   25SAPC  H15X 3377   5.002   4.116   7.706  0.3109 -0.2569  1.1273
   25SAPC  H15Y 3378   5.174   4.087   7.695 -0.0678  0.0381  3.8613
   25SAPC  C316 3379   5.053   3.920   7.768 -0.2098  0.3937  0.2072
   25SAPC  H16X 3380   5.133   3.844   7.752 -1.5124 -1.0716  0.5354
   25SAPC  H16Y 3381   4.960   3.861   7.753  1.3534 -1.8662 -0.8270
   25SAPC  C317 3382   5.054   3.958   7.918  0.4162 -0.3855 -0.5732
   25SAPC  H17X 3383   4.961   4.007   7.953  0.9414 -1.0064  1.7785
   25SAPC  H17Y 3384   5.126   4.043   7.920  0.0135  0.0066 -2.0217
   25SAPC  C318 3385   5.098   3.847   8.006  0.1830 -0.5901 -0.3408
   25SAPC  H18X 3386   5.014   3.774   8.010  0.0933 -0.3625  2.5133
   25SAPC  H18Y 3387   5.119   3.882   8.109  0.4838 -1.2624 -0.1680
   25SAPC  H18Z 3388   5.189   3.800   7.962  0.2732  0.6019 -1.4728
   26SAPC     N 3389   3.627   5.676   6.175  0.4841  0.3000  0.0354
   26SAPC   C12 3390   3.744   5.597   6.240  0.0694 -0.2278 -0.5331
   26SAPC  H12A 3391   3.739   5.499   6.196  0.8519 -0.3733 -0.3076
   26SAPC  H12B 3392   3.737   5.579   6.346 -1.3134  2.7407 -0.0715
   26SAPC   C13 3393   3.497   5.610   6.217 -0.9509 -0.5825 -0.4909
   26SAPC  H13A 3394   3.497   5.506   6.189 -1.5596 -1.5344  2.8324
   26SAPC  H13B 3395   3.474   5.615   6.323 -0.9802 -3.4641 -0.3229
   26SAPC  H13C 3396   3.412   5.660   6.174 -2.2027 -0.3569  2.1241
   26SAPC   C14 3397   3.632   5.820   6.210 -0.6629 -0.3210  0.2812
   26SAPC  H14A 3398   3.733   5.856   6.196 -0.2701 -1.1868  0.8371
   26SAPC  H14B 3399   3.567   5.887   6.156 -0.1845 -0.1752 -0.1200
   26SAPC  H14C 3400   3.605   5.820   6.314 -0.9552 -1.7563  0.2099
   26SAPC   C15 3401   3.651   5.671   6.023  0.1599 -0.0041 -0.1221
   26SAPC  H15A 3402   3.579   5.733   5.972  0.0351 -0.3653 -0.3907
   26SAPC  H15B 3403   3.748   5.714   6.000  0.5004  0.9883  2.9743
   26SAPC  H15C 3404   3.648   5.567   5.991 -0.3576 -0.0001 -0.0804
   26SAPC   C11 3405   3.898   5.637   6.220  0.2808  0.2650 -0.5429
   26SAPC  H11A 3406   3.923   5.629   6.113 -2.4286 -1.1551 -1.1090
   26SAPC  H11B 3407   3.964   5.568   6.276 -0.8027 -2.3849 -2.4310
   26SAPC     P 3408   4.026   5.814   6.369  0.4229 -0.1006  0.1742
   26SAPC   O13 3409   4.155   5.772   6.320 -0.6660 -0.1486 -0.2774
   26SAPC   O14 3410   4.001   5.958   6.399 -0.4198 -0.2925  0.5859
   26SAPC   O12 3411   3.921   5.766   6.269 -0.2359  0.2270 -0.3214
   26SAPC   O11 3412   3.983   5.729   6.497  0.6935  0.0992  0.0285
   26SAPC    C1 3413   4.059   5.734   6.622 -0.6094 -0.0124 -0.8108
   26SAPC    HA 3414   4.120   5.641   6.627 -0.0905  0.3462 -0.3422
   26SAPC    HB 3415   4.127   5.821   6.628 -2.0242  1.0278  0.8348
   26SAPC    C2 3416   3.967   5.741   6.754 -0.0881  0.4380  0.6786
   26SAPC    HS 3417   4.028   5.775   6.840  1.8300 -2.3573  0.4909
   26SAPC   O21 3418   3.908   5.611   6.779 -0.1683 -0.0346 -0.5497
   26SAPC   C21 3419   3.999   5.533   6.836 -0.0799  0.0495  0.2644
   26SAPC   O22 3420   4.104   5.570   6.881 -0.6661  0.4355  0.0367
   26SAPC   C22 3421   3.955   5.392   6.845 -0.8810 -0.3235 -0.1805
   26SAPC   H2R 3422   3.988   5.334   6.756  0.7353  0.1549  0.1058
   26SAPC   H2S 3423   4.000   5.341   6.932 -2.0061  0.2085  0.7244
   26SAPC    C3 3424   3.862   5.849   6.731  0.7071  0.3979 -0.1089
   26SAPC    HX 3425   3.781   5.811   6.666  0.7571  0.6608 -0.3233
   26SAPC    HY 3426   3.903   5.931   6.668  0.4758  0.4831 -0.1497
   26SAPC   O31 3427   3.795   5.900   6.847  0.0575  0.0839 -0.2004
   26SAPC   C31 3428   3.840   6.007   6.913  1.1818 -0.1988  0.0290
   26SAPC   O32 3429   3.935   6.077   6.874 -0.6670 -0.1305 -0.3096
   26SAPC   C32 3430   3.747   6.039   7.030 -1.0621 -0.8018 -0.3073
   26SAPC   H2X 3431   3.654   6.082   6.986  0.2591  1.1884 -1.2172
   26SAPC   H2Y 3432   3.793   6.114   7.097 -1.6044 -2.8642  2.5000
   26SAPC   C23 3433   3.799   5.385   6.870  0.0090 -0.3323  0.1040
   26SAPC   H3R 3434   3.753   5.433   6.780 -0.4840  0.1453  0.6063
   26SAPC   H3S 3435   3.771   5.455   6.951  2.1484  2.5122 -1.4783
   26SAPC   C24 3436   3.749   5.242   6.894  0.4601 -0.3792  0.2544
   26SAPC   H4R 3437   3.787   5.170   6.818  1.1847 -1.1468  1.3254
   26SAPC   H4S 3438   3.640   5.248   6.872  0.4583  1.4967  0.7377
   26SAPC   C25 3439   3.775   5.204   7.036 -0.5463 -0.1950 -0.4468
   26SAPC   H5R 3440   3.727   5.267   7.112  2.7819  1.5307  0.3372
   26SAPC   C26 3441   3.869   5.112   7.071  0.6264  0.3398 -0.8315
   26SAPC   H6R 3442   3.882   5.088   7.178  1.2025 -0.4482 -1.0724
   26SAPC   C27 3443   3.953   5.023   6.978 -0.4505  0.0239 -0.4071
   26SAPC   H7R 3444   3.918   5.026   6.873 -1.4088 -4.0934 -0.2692
   26SAPC   H7S 3445   3.948   4.914   6.999  3.0490 -0.3114 -1.0871
   26SAPC   C28 3446   4.105   5.038   6.975  0.5379 -0.1855  0.1475
   26SAPC   H8R 3447   4.135   5.102   6.891  0.3486  0.9857  0.9544
   26SAPC   C29 3448   4.199   5.001   7.068 -1.2361  0.4802  0.2621
   26SAPC   H9R 3449   4.305   4.994   7.037 -1.1230 -1.1608  0.9689
   26SAPC  C210 3450   4.171   4.944   7.204  0.0388 -0.5398  0.6842
   26SAPC  H10R 3451   4.217   4.843   7.198 -0.3561 -0.7356  0.9697
   26SAPC  H10S 3452   4.065   4.927   7.232  0.0894 -0.0986  1.1545
   26SAPC  C211 3453   4.244   5.005   7.326  0.2807 -0.4819  0.5593
   26SAPC  H11R 3454   4.311   5.090   7.309 -0.6948  0.2979  0.5463
   26SAPC  C212 3455   4.232   4.959   7.451 -0.5666 -0.0391 -0.2262
   26SAPC  H12R 3456   4.301   5.001   7.525 -1.5794 -0.3495  0.9072
   26SAPC  C213 3457   4.142   4.845   7.492 -0.5805  0.0872  0.1489
   26SAPC  H13R 3458   4.206   4.770   7.543  0.4358 -1.4503 -3.2488
   26SAPC  H13S 3459   4.090   4.786   7.414 -0.5378  0.2594 -0.0101
   26SAPC  C214 3460   4.040   4.893   7.588 -0.6487 -0.4167  0.0665
   26SAPC  H14R 3461   3.965   4.961   7.546 -0.1469  1.2239  1.7297
   26SAPC  C215 3462   4.047   4.874   7.725 -0.2672 -0.8864  0.3440
   26SAPC  H15R 3463   3.967   4.922   7.784 -0.3604  1.3013 -1.5156
   26SAPC  C216 3464   4.140   4.791   7.804 -0.3131  0.2317  0.4254
   26SAPC  H16R 3465   4.242   4.793   7.759 -0.3587 -1.3982  0.2193
   26SAPC  H16S 3466   4.102   4.688   7.815  0.1916 -0.1571 -1.3114
   26SAPC  C217 3467   4.154   4.843   7.948 -0.1240 -0.0780  0.3039
   26SAPC  H17R 3468   4.053   4.857   7.993 -0.5688  0.7489 -0.9149
   26SAPC  H17S 3469   4.192   4.947   7.947  2.3825 -0.9611  0.2764
   26SAPC  C218 3470   4.243   4.752   8.029  0.0274  0.4023 -0.5209
   26SAPC  H18R 3471   4.319   4.720   7.954 -0.9140  0.9038 -1.7087
   26SAPC  H18S 3472   4.189   4.662   8.064  2.2994  0.1116  2.3477
   26SAPC  C219 3473   4.294   4.829   8.149  0.1863 -0.9297  0.0325
   26SAPC  H19R 3474   4.214   4.887   8.201 -0.4626  0.1485 -2.1000
   26SAPC  H19S 3475   4.363   4.903   8.104 -1.1972  0.2438 -0.1967
   26SAPC  C220 3476   4.363   4.738   8.257  0.0875 -0.3518  0.7155
   26SAPC  H20R 3477   4.292   4.657   8.286 -3.0692  1.7744 -0.6959
   26SAPC  H20S 3478   4.397   4.803   8.340 -0.8513 -0.4047  1.1518
   26SAPC  H20T 3479   4.454   4.694   8.212  0.8217  0.6411  1.2184
   26SAPC   C33 3480   3.709   5.920   7.114 -0.8547  0.3966 -0.2117
   26SAPC   H3X 3481   3.670   5.838   7.050 -1.8622  0.0047  0.8842
   26SAPC   H3Y 3482   3.621   5.938   7.179 -0.7506 -2.2657  0.7238
   26SAPC   C34 3483   3.819   5.898   7.223 -0.4756  0.2736 -0.5197
   26SAPC   H4X 3484   3.905   5.966   7.211  0.5786 -0.6028  1.7084
   26SAPC   H4Y 3485   3.854   5.797   7.190  1.0162  0.5824  0.1043
   26SAPC   C35 3486   3.773   5.890   7.368 -0.4587  0.0105 -0.0517
   26SAPC   H5X 3487   3.665   5.864   7.372  0.2653 -2.9017  2.0210
   26SAPC   H5Y 3488   3.775   5.988   7.420 -0.7392 -1.3718  2.6527
   26SAPC   C36 3489   3.863   5.799   7.459  0.1951  0.0381 -1.0462
   26SAPC   H6X 3490   3.973   5.809   7.447  0.7196 -2.9397  0.7381
   26SAPC   H6Y 3491   3.846   5.693   7.431  0.2038  0.3437 -2.2619
   26SAPC   C37 3492   3.838   5.816   7.610 -0.4984  0.6542  0.1224
   26SAPC   H7X 3493   3.870   5.920   7.629 -2.8391  1.0772  1.9161
   26SAPC   H7Y 3494   3.907   5.748   7.665 -1.8909 -0.4212  0.5648
   26SAPC   C38 3495   3.698   5.804   7.655 -0.3849 -0.0755  0.3572
   26SAPC   H8X 3496   3.663   5.700   7.638  1.3401 -1.1670  3.2391
   26SAPC   H8Y 3497   3.642   5.874   7.589  1.4495  0.2255 -0.9363
   26SAPC   C39 3498   3.666   5.853   7.800 -0.1035  0.0711 -0.0729
   26SAPC   H9X 3499   3.561   5.852   7.835 -0.2108 -2.3624 -0.3917
   26SAPC   H9Y 3500   3.712   5.954   7.814  1.5065 -0.1788 -3.0483
   26SAPC  C310 3501   3.734   5.751   7.892 -0.5673  0.0830  0.0163
   26SAPC  H10X 3502   3.835   5.729   7.852 -0.9914  0.8575 -1.5062
   26SAPC  H10Y 3503   3.680   5.654   7.886  0.8058 -0.5825 -2.0142
   26SAPC  C311 3504   3.727   5.784   8.043 -0.3997 -0.4074  0.7305
   26SAPC  H11X 3505   3.620   5.812   8.059 -0.5958 -1.0985  0.6645
   26SAPC  H11Y 3506   3.799   5.867   8.060 -1.5306  0.6593  0.4143
   26SAPC  C312 3507   3.767   5.683   8.149  0.1101 -0.7872 -0.6366
   26SAPC  H12X 3508   3.722   5.714   8.246  0.9813 -0.8295 -0.2088
   26SAPC  H12Y 3509   3.876   5.670   8.163  0.3650 -0.0072 -1.8070
   26SAPC  C313 3510   3.704   5.544   8.140 -0.7396 -0.2483  0.2496
   26SAPC  H13X 3511   3.732   5.508   8.039 -1.3753 -0.5431  0.1731
   26SAPC  H13Y 3512   3.595   5.566   8.148 -0.9058 -1.8027  2.7017
   26SAPC  C314 3513   3.752   5.444   8.246 -0.4599  0.2521  0.9103
   26SAPC  H14X 3514   3.861   5.422   8.240 -0.7795 -0.9998 -0.5106
   26SAPC  H14Y 3515   3.704   5.347   8.220  0.0061  0.9026 -2.5479
   26SAPC  C315 3516   3.717   5.475   8.391  0.1256  1.3687 -0.1968
   26SAPC  H15X 3517   3.616   5.521   8.387 -1.0476 -1.2231 -2.7363
   26SAPC  H15Y 3518   3.783   5.556   8.428 -0.7119  0.1870  4.1136
   26SAPC  C316 3519   3.719   5.350   8.489 -0.6194  0.4486  0.0481
   26SAPC  H16X 3520   3.652   5.274   8.442  1.8574 -1.7565 -0.0515
   26SAPC  H16Y 3521   3.674   5.385   8.585  0.7689 -0.3441  1.0149
   26SAPC  C317 3522   3.857   5.286   8.506 -0.0161  0.0903 -0.5871
   26SAPC  H17X 3523   3.892   5.233   8.415 -0.3035  1.5211 -1.5388
   26SAPC  H17Y 3524   3.843   5.201   8.577 -1.9261  0.5315 -0.4351
   26SAPC  C318 3525   3.971   5.382   8.546 -1.6800 -0.3228  0.4166
   26SAPC  H18X 3526   3.988   5.470   8.481 -0.7835  0.6222  1.8714
   26SAPC  H18Y 3527   4.068   5.328   8.556 -1.9710 -1.4083 -2.3033
   26SAPC  H18Z 3528   3.943   5.438   8.638  0.0978 -1.1573  1.5173
   27SAPC     N 3529   1.624   6.360   6.663 -0.6774 -0.8167 -0.1914
   27SAPC   C12 3530   1.660   6.272   6.782  1.0682 -0.0629  0.7960
   27SAPC  H12A 3531   1.579   6.211   6.820  1.7002 -1.0082  0.6311
   27SAPC  H12B 3532   1.699   6.331   6.863  0.6176  2.0171 -0.4645
   27SAPC   C13 3533   1.746   6.435   6.620  0.2507  0.8707 -0.0067
   27SAPC  H13A 3534   1.801   6.379   6.546  2.4859 -0.3576  2.5442
   27SAPC  H13B 3535   1.713   6.530   6.580 -0.5669  0.1617 -1.0339
   27SAPC  H13C 3536   1.817   6.456   6.698 -0.4695 -0.7006  1.0934
   27SAPC   C14 3537   1.570   6.279   6.552 -0.1547 -0.0250 -0.4098
   27SAPC  H14A 3538   1.542   6.332   6.462  0.7981 -0.9397 -1.2811
   27SAPC  H14B 3539   1.654   6.214   6.530  0.5818  1.4840 -2.1866
   27SAPC  H14C 3540   1.493   6.216   6.594  0.9660 -0.6044  0.8351
   27SAPC   C15 3541   1.521   6.460   6.704 -0.1195 -0.9144  0.3791
   27SAPC  H15A 3542   1.473   6.499   6.615  0.4037 -1.4785 -0.1648
   27SAPC  H15B 3543   1.438   6.406   6.746 -1.2134  0.7068  0.3324
   27SAPC  H15C 3544   1.545   6.543   6.768 -0.3802  0.0539 -0.7721
   27SAPC   C11 3545   1.776   6.169   6.755  0.4049  0.8669  0.2046
   27SAPC  H11A 3546   1.796   6.109   6.846 -1.2301 -0.1634 -0.1048
   27SAPC  H11B 3547   1.873   6.217   6.729  1.9555 -1.7154  1.0855
   27SAPC     P 3548   1.671   5.932   6.661 -0.3627 -0.2200  0.3909
   27SAPC   O13 3549   1.520   5.941   6.652 -0.1693  0.5209  0.2669
   27SAPC   O14 3550   1.745   5.853   6.561  0.2514  0.2997 -0.2672
   27SAPC   O12 3551   1.735   6.073   6.652 -0.7704  0.0401 -0.2704
   27SAPC   O11 3552   1.700   5.867   6.799  0.6387  0.1179  0.4420
   27SAPC    C1 3553   1.829   5.819   6.837  0.2640  0.2020  0.3099
   27SAPC    HA 3554   1.869   5.736   6.775 -3.4482 -0.4116 -1.3800
   27SAPC    HB 3555   1.914   5.891   6.840  1.7636 -1.5592  2.3851
   27SAPC    C2 3556   1.831   5.773   6.983  0.0949 -0.4051  0.5046
   27SAPC    HS 3557   1.941   5.757   6.994  0.4671  0.9049 -1.0314
   27SAPC   O21 3558   1.765   5.650   6.988 -0.0390 -0.5956  0.5041
   27SAPC   C21 3559   1.803   5.572   7.086 -0.6031 -0.1700 -0.1847
   27SAPC   O22 3560   1.907   5.590   7.146 -0.5212 -0.2372 -0.0932
   27SAPC   C22 3561   1.687   5.470   7.125  0.6760  0.0970 -0.1477
   27SAPC   H2R 3562   1.601   5.538   7.146 -1.4142 -2.7131  0.6110
   27SAPC   H2S 3563   1.663   5.416   7.031  2.6093 -0.3255 -0.4084
   27SAPC    C3 3564   1.767   5.871   7.082  0.2026 -0.3031 -0.1863
   27SAPC    HX 3565   1.656   5.870   7.071  0.0155  1.6506  1.1661
   27SAPC    HY 3566   1.794   5.975   7.053  1.5903 -1.1960 -2.1719
   27SAPC   O31 3567   1.792   5.834   7.220  0.2919  0.3743  0.3361
   27SAPC   C31 3568   1.911   5.882   7.264 -0.4098 -0.7504  0.4330
   27SAPC   O32 3569   1.984   5.948   7.191 -0.4658 -0.0381 -0.2089
   27SAPC   C32 3570   1.948   5.831   7.399  0.0497 -0.2036 -0.3729
   27SAPC   H2X 3571   2.025   5.900   7.440 -0.2906  0.3691 -0.6992
   27SAPC   H2Y 3572   2.001   5.734   7.386  0.5330 -0.3060  2.0157
   27SAPC   C23 3573   1.704   5.375   7.247  0.0008 -0.8736  0.1172
   27SAPC   H3R 3574   1.799   5.318   7.241  0.3459 -0.3564  0.6699
   27SAPC   H3S 3575   1.619   5.304   7.255 -3.3986  3.1812  1.9491
   27SAPC   C24 3576   1.720   5.452   7.381 -0.6632  0.0222 -0.5247
   27SAPC   H4R 3577   1.800   5.527   7.367  1.4443 -2.1088 -0.2859
   27SAPC   H4S 3578   1.755   5.369   7.446 -0.1200 -0.7013 -1.7120
   27SAPC   C25 3579   1.591   5.511   7.441  0.1662 -0.6163 -0.0322
   27SAPC   H5R 3580   1.518   5.547   7.367 -1.0454 -0.3531  1.2746
   27SAPC   C26 3581   1.564   5.533   7.571 -0.6767 -0.4459  0.0796
   27SAPC   H6R 3582   1.471   5.579   7.607  0.8222  1.4376  1.6867
   27SAPC   C27 3583   1.659   5.488   7.675 -0.6040  0.4292 -0.1838
   27SAPC   H7R 3584   1.675   5.557   7.760  0.6383  0.2889 -0.2891
   27SAPC   H7S 3585   1.765   5.492   7.640  0.3123  0.8715  2.5260
   27SAPC   C28 3586   1.631   5.348   7.734  0.2378 -0.7100  0.1088
   27SAPC   H8R 3587   1.560   5.288   7.676 -0.2010  0.0871 -0.1843
   27SAPC   C29 3588   1.697   5.292   7.837  0.2878 -0.0466  0.1763
   27SAPC   H9R 3589   1.680   5.186   7.858  2.0055 -0.8537 -2.3563
   27SAPC  C210 3590   1.809   5.350   7.917 -0.0205  0.0793 -0.4493
   27SAPC  H10R 3591   1.765   5.417   7.995 -0.3204 -1.5309  0.7877
   27SAPC  H10S 3592   1.865   5.419   7.851 -0.2002  1.0254  0.3645
   27SAPC  C211 3593   1.917   5.252   7.968  0.1525 -0.5030 -0.1668
   27SAPC  H11R 3594   1.985   5.211   7.892 -1.0449 -2.7890 -0.0248
   27SAPC  C212 3595   1.930   5.214   8.094  0.2212 -0.1166 -0.1133
   27SAPC  H12R 3596   2.008   5.137   8.107 -1.7588 -2.1195  0.2703
   27SAPC  C213 3597   1.839   5.238   8.213 -0.9558 -0.0406  0.1392
   27SAPC  H13R 3598   1.736   5.268   8.181  0.0821 -0.0478 -3.3964
   27SAPC  H13S 3599   1.891   5.323   8.261 -1.9927  0.5620  0.2094
   27SAPC  C214 3600   1.811   5.115   8.304 -0.1788  0.2829  0.0975
   27SAPC  H14R 3601   1.776   5.023   8.256 -1.1041  1.4314 -1.4939
   27SAPC  C215 3602   1.825   5.120   8.433  0.1339 -0.3673  0.3824
   27SAPC  H15R 3603   1.797   5.029   8.487 -0.9298 -0.3176 -0.0760
   27SAPC  C216 3604   1.864   5.240   8.516  0.7608 -0.3334  0.1340
   27SAPC  H16R 3605   1.783   5.256   8.591  0.5943  2.2071 -0.5317
   27SAPC  H16S 3606   1.873   5.335   8.458  0.8276 -0.8825 -0.7537
   27SAPC  C217 3607   1.999   5.216   8.586 -0.0917  0.7784 -0.0387
   27SAPC  H17R 3608   2.081   5.199   8.512 -0.7763 -2.4882 -0.1112
   27SAPC  H17S 3609   1.990   5.129   8.655 -2.1617 -0.4508 -1.7916
   27SAPC  C218 3610   2.037   5.333   8.678  0.4104 -0.3162  0.4013
   27SAPC  H18R 3611   1.951   5.352   8.745 -0.4278 -0.7886 -0.5303
   27SAPC  H18S 3612   2.041   5.416   8.603 -0.8292 -1.0981 -0.5443
   27SAPC  C219 3613   2.169   5.311   8.751  0.1732 -0.1290  0.3859
   27SAPC  H19R 3614   2.227   5.405   8.759  2.2403 -1.3968  0.6880
   27SAPC  H19S 3615   2.235   5.251   8.686  0.4448 -1.1390  1.5655
   27SAPC  C220 3616   2.139   5.237   8.880  0.8223 -0.6691  0.2757
   27SAPC  H20R 3617   2.081   5.308   8.944  0.1431 -0.6817 -0.3164
   27SAPC  H20S 3618   2.228   5.205   8.937  0.9000 -0.3087  0.3563
   27SAPC  H20T 3619   2.078   5.148   8.854 -1.0415  1.6054 -3.6849
   27SAPC   C33 3620   1.827   5.817   7.499  0.2410  0.4580 -0.9529
   27SAPC   H3X 3621   1.773   5.722   7.477  0.3250 -0.1073  1.2130
   27SAPC   H3Y 3622   1.767   5.910   7.496 -0.4362  0.1083  0.8499
   27SAPC   C34 3623   1.872   5.794   7.642 -0.3757  0.1490  0.0523
   27SAPC   H4X 3624   1.982   5.811   7.651  0.5269 -3.4823 -2.7611
   27SAPC   H4Y 3625   1.856   5.686   7.662 -0.1210 -0.1264 -1.1586
   27SAPC   C35 3626   1.797   5.872   7.748 -0.2164 -0.3758  0.2994
   27SAPC   H5X 3627   1.688   5.872   7.728 -0.2947 -0.1751  0.7294
   27SAPC   H5Y 3628   1.827   5.979   7.753 -0.8151 -0.0739 -1.9441
   27SAPC   C36 3629   1.819   5.826   7.891  0.0650 -0.4299 -0.0833
   27SAPC   H6X 3630   1.913   5.866   7.935  0.7341  0.4702 -2.2374
   27SAPC   H6Y 3631   1.842   5.718   7.886  1.8772 -0.0260 -1.3442
   27SAPC   C37 3632   1.706   5.864   7.986 -0.3055 -0.3017 -0.1788
   27SAPC   H7X 3633   1.610   5.835   7.939  0.1201  1.0923 -1.9804
   27SAPC   H7Y 3634   1.690   5.974   7.993  1.4390 -0.0342 -0.0079
   27SAPC   C38 3635   1.717   5.796   8.119  0.7168 -0.1072  1.1623
   27SAPC   H8X 3636   1.811   5.838   8.161  1.5661  0.0397 -0.8082
   27SAPC   H8Y 3637   1.721   5.686   8.106 -0.5569  0.0693 -0.9036
   27SAPC   C39 3638   1.606   5.828   8.215  0.1555  0.3602 -0.6032
   27SAPC   H9X 3639   1.507   5.809   8.169  0.5733 -0.9254 -0.9987
   27SAPC   H9Y 3640   1.612   5.937   8.238  1.6979  0.1852 -0.0678
   27SAPC  C310 3641   1.630   5.736   8.337  0.2306 -0.5905  0.5034
   27SAPC  H10X 3642   1.568   5.779   8.418  0.3423  2.3309 -0.8909
   27SAPC  H10Y 3643   1.732   5.740   8.382  0.6298  0.2168 -0.4548
   27SAPC  C311 3644   1.590   5.588   8.336 -0.5634  0.2906  0.5213
   27SAPC  H11X 3645   1.628   5.545   8.431 -1.0725 -0.0423  0.5795
   27SAPC  H11Y 3646   1.637   5.537   8.249  1.9836  0.7077  1.6325
   27SAPC  C312 3647   1.433   5.554   8.342  0.1500  0.2796  1.0168
   27SAPC  H12X 3648   1.384   5.617   8.264  1.6893  0.1088 -0.1261
   27SAPC  H12Y 3649   1.402   5.576   8.446 -0.1191 -3.9699  1.9081
   27SAPC  C313 3650   1.398   5.406   8.308  0.9298 -0.2536 -0.0860
   27SAPC  H13X 3651   1.418   5.383   8.202 -0.3619 -0.9143 -0.1931
   27SAPC  H13Y 3652   1.288   5.401   8.324  1.1166 -0.4340  1.2166
   27SAPC  C314 3653   1.468   5.295   8.392 -0.1374  0.3210 -0.3708
   27SAPC  H14X 3654   1.577   5.318   8.401 -0.6182  2.0462  1.4833
   27SAPC  H14Y 3655   1.452   5.197   8.343 -1.8983  1.0159 -1.2333
   27SAPC  C315 3656   1.409   5.290   8.531 -0.0940  0.1829  0.1137
   27SAPC  H15X 3657   1.315   5.231   8.524  0.7721 -0.9906 -1.6802
   27SAPC  H15Y 3658   1.383   5.392   8.569 -0.3277 -0.5936  2.1117
   27SAPC  C316 3659   1.500   5.224   8.630 -0.4427 -0.7713 -0.0738
   27SAPC  H16X 3660   1.584   5.291   8.657 -0.8302 -0.4145  0.2730
   27SAPC  H16Y 3661   1.531   5.130   8.580  3.7992  0.2518  0.4840
   27SAPC  C317 3662   1.427   5.178   8.756 -0.5915  0.6190 -0.2333
   27SAPC  H17X 3663   1.502   5.127   8.820  1.4923  1.8436 -1.6028
   27SAPC  H17Y 3664   1.351   5.101   8.734 -0.0456 -1.1074  3.4886
   27SAPC  C318 3665   1.354   5.292   8.840  0.3914  0.0201 -0.1559
   27SAPC  H18X 3666   1.249   5.313   8.810  0.0723  0.5125  1.2664
   27SAPC  H18Y 3667   1.413   5.383   8.816 -1.1255  0.9458 -0.4385
   27SAPC  H18Z 3668   1.354   5.271   8.950  2.8785 -0.7847 -0.2650
   28SAPC     N 3669   0.747   2.977   6.004 -0.1170 -0.4246 -0.2518
   28SAPC   C12 3670   0.646   2.866   6.019  0.4597  0.2569 -0.4173
   28SAPC  H12A 3671   0.669   2.789   5.948 -1.1738 -1.3173  0.7076
   28SAPC  H12B 3672   0.552   2.907   5.984 -0.9597 -0.4536  2.4127
   28SAPC   C13 3673   0.756   3.060   6.129  0.1256  0.1817  0.2276
   28SAPC  H13A 3674   0.786   3.012   6.221  1.8172  0.4316 -0.1832
   28SAPC  H13B 3675   0.831   3.137   6.121  0.1388  0.0619 -0.8690
   28SAPC  H13C 3676   0.658   3.101   6.150 -1.4751 -2.9158 -0.8884
   28SAPC   C14 3677   0.880   2.916   5.989 -0.5938  0.5105  0.1632
   28SAPC  H14A 3678   0.901   2.864   6.081  1.9116 -0.5086 -0.9482
   28SAPC  H14B 3679   0.884   2.845   5.907 -1.2129  1.4458 -0.6881
   28SAPC  H14C 3680   0.954   2.994   5.978 -0.7653  0.8205  1.1801
   28SAPC   C15 3681   0.715   3.066   5.885 -0.2927 -0.0906 -0.2535
   28SAPC  H15A 3682   0.718   3.021   5.787 -0.8154 -2.5963  0.8612
   28SAPC  H15B 3683   0.617   3.110   5.892 -0.1979 -0.0513  0.9845
   28SAPC  H15C 3684   0.790   3.144   5.881 -0.5267  0.2923  2.2201
   28SAPC   C11 3685   0.640   2.800   6.161 -0.7281 -0.3033 -0.2914
   28SAPC  H11A 3686   0.566   2.718   6.150 -1.6075  0.2413  1.3466
   28SAPC  H11B 3687   0.593   2.875   6.229 -1.3959 -0.3223 -0.7314
   28SAPC     P 3688   0.802   2.770   6.363  0.0933  0.2738  0.2564
   28SAPC   O13 3689   0.944   2.809   6.370 -0.2237 -0.3757 -0.5129
   28SAPC   O14 3690   0.710   2.869   6.428 -0.7861 -0.5520 -0.6863
   28SAPC   O12 3691   0.768   2.756   6.207 -0.4589 -0.1343  0.1900
   28SAPC   O11 3692   0.796   2.625   6.429 -0.0392 -0.1755 -0.5827
   28SAPC    C1 3693   0.760   2.508   6.355  0.6518  0.3958 -1.2158
   28SAPC    HA 3694   0.669   2.524   6.294  0.2082  0.1885 -0.6160
   28SAPC    HB 3695   0.851   2.476   6.300  2.8385  2.9884  0.7259
   28SAPC    C2 3696   0.727   2.401   6.462  0.1227  0.1162  0.3946
   28SAPC    HS 3697   0.681   2.312   6.413  0.0794  0.8536 -0.9325
   28SAPC   O21 3698   0.629   2.452   6.550  0.0009  0.1474  0.3795
   28SAPC   C21 3699   0.507   2.467   6.500 -0.1075  0.3197 -0.5544
   28SAPC   O22 3700   0.481   2.438   6.385 -0.5232  0.7944  0.4507
   28SAPC   C22 3701   0.418   2.525   6.602  0.1913  0.5372 -0.4023
   28SAPC   H2R 3702   0.468   2.600   6.667 -1.7404  0.6245  1.0286
   28SAPC   H2S 3703   0.340   2.573   6.539  1.0608  0.8207 -1.2758
   28SAPC    C3 3704   0.847   2.346   6.543 -0.6841 -0.2334 -0.0001
   28SAPC    HX 3705   0.920   2.420   6.578 -0.6865 -1.5358  2.8610
   28SAPC    HY 3706   0.895   2.282   6.466  2.0156  0.5295  1.0175
   28SAPC   O31 3707   0.801   2.264   6.656  0.0691 -0.0933  0.4651
   28SAPC   C31 3708   0.782   2.331   6.769 -0.2573 -0.7986  0.8246
   28SAPC   O32 3709   0.832   2.440   6.799 -0.2400  0.8923 -0.2431
   28SAPC   C32 3710   0.690   2.239   6.858  0.0861  0.1268  0.4366
   28SAPC   H2X 3711   0.732   2.137   6.854 -1.9135 -0.7527  0.9990
   28SAPC   H2Y 3712   0.594   2.213   6.807 -0.9589  3.0056  0.8299
   28SAPC   C23 3713   0.357   2.411   6.688 -0.3461 -0.9887  0.3538
   28SAPC   H3R 3714   0.417   2.389   6.779  0.6083 -0.3030 -0.0963
   28SAPC   H3S 3715   0.339   2.314   6.637 -1.0298 -0.0383 -1.2472
   28SAPC   C24 3716   0.209   2.446   6.741 -0.0965  0.1298  0.3624
   28SAPC   H4R 3717   0.151   2.500   6.663 -0.1377  1.2442  1.1565
   28SAPC   H4S 3718   0.174   2.342   6.759  1.0263 -0.8316 -2.7409
   28SAPC   C25 3719   0.209   2.535   6.858 -0.3977  0.4533  0.1311
   28SAPC   H5R 3720   0.207   2.643   6.837  0.9063 -0.0173 -2.5381
   28SAPC   C26 3721   0.227   2.504   6.992  0.6525 -0.8082  0.8020
   28SAPC   H6R 3722   0.224   2.590   7.059 -2.8712 -0.5725  0.4296
   28SAPC   C27 3723   0.246   2.370   7.050 -0.3686  0.0394 -0.1688
   28SAPC   H7R 3724   0.275   2.300   6.969 -0.9033 -0.9700  0.5140
   28SAPC   H7S 3725   0.156   2.331   7.100 -1.1420  0.9510 -0.8244
   28SAPC   C28 3726   0.360   2.394   7.147  0.5975  0.3988 -0.4640
   28SAPC   H8R 3727   0.449   2.442   7.105  1.1950 -2.0422 -2.1584
   28SAPC   C29 3728   0.357   2.359   7.281 -0.0220  0.1549  0.1441
   28SAPC   H9R 3729   0.438   2.401   7.342  0.1572 -0.7179  0.5111
   28SAPC  C210 3730   0.249   2.297   7.360 -0.0245  0.0046 -0.0657
   28SAPC  H10R 3731   0.273   2.192   7.387  0.7340 -0.2272 -1.5704
   28SAPC  H10S 3732   0.155   2.283   7.302  1.6376  0.7203 -3.0056
   28SAPC  C211 3733   0.221   2.386   7.480 -0.0984 -0.6699 -0.1024
   28SAPC  H11R 3734   0.202   2.492   7.457  1.6030 -0.4307 -0.4549
   28SAPC  C212 3735   0.204   2.346   7.611 -0.0164  0.5005 -0.4751
   28SAPC  H12R 3736   0.185   2.420   7.690  2.8127  0.2287  0.5392
   28SAPC  C213 3737   0.206   2.198   7.655 -1.2406  0.3658  0.2156
   28SAPC  H13R 3738   0.281   2.188   7.736  0.2295 -2.2576 -1.3749
   28SAPC  H13S 3739   0.248   2.124   7.583 -1.8931 -1.5377  1.7290
   28SAPC  C214 3740   0.073   2.151   7.707 -0.3128 -0.1591 -0.3401
   28SAPC  H14R 3741  -0.006   2.166   7.632 -0.5990  2.1270  0.3885
   28SAPC  C215 3742   0.048   2.115   7.838  0.2969 -0.1513  0.2492
   28SAPC  H15R 3743  -0.042   2.054   7.853 -0.7480  1.1191 -0.7243
   28SAPC  C216 3744   0.145   2.110   7.956 -0.4778 -0.3274  0.9883
   28SAPC  H16R 3745   0.100   2.182   8.028 -1.0814  0.0668  0.2247
   28SAPC  H16S 3746   0.248   2.146   7.934 -1.1327  1.6968  1.0878
   28SAPC  C217 3747   0.160   1.963   8.008 -0.0619  0.7068  0.6971
   28SAPC  H17R 3748   0.214   1.899   7.935 -1.5803  1.8283 -1.4881
   28SAPC  H17S 3749   0.056   1.927   8.024  0.2412 -0.9553 -0.9177
   28SAPC  C218 3750   0.226   1.970   8.145  0.1130  0.0917  0.6275
   28SAPC  H18R 3751   0.175   2.049   8.204  1.5679 -0.3140  2.4433
   28SAPC  H18S 3752   0.333   1.987   8.122  0.4184 -0.2699  1.7382
   28SAPC  C219 3753   0.223   1.834   8.225  0.4199  0.2015  0.4966
   28SAPC  H19R 3754   0.233   1.746   8.158  0.0530 -0.3179  1.1222
   28SAPC  H19S 3755   0.125   1.827   8.277  0.2000 -0.3941  0.0195
   28SAPC  C220 3756   0.340   1.824   8.320  0.5310 -0.2563  0.2985
   28SAPC  H20R 3757   0.322   1.738   8.388 -0.3013 -0.9929 -0.8371
   28SAPC  H20S 3758   0.326   1.916   8.380 -1.6593 -1.2107  1.3105
   28SAPC  H20T 3759   0.445   1.826   8.283 -0.0680 -0.3226 -1.4481
   28SAPC   C33 3760   0.669   2.289   6.995  1.2988  0.1817 -0.0353
   28SAPC   H3X 3761   0.581   2.233   7.031  0.8406  0.8040 -0.1819
   28SAPC   H3Y 3762   0.646   2.397   7.009  0.9469  0.1968 -0.7010
   28SAPC   C34 3763   0.789   2.259   7.083  0.1166  0.6964  0.4599
   28SAPC   H4X 3764   0.859   2.345   7.089  0.1878  0.5192  2.6366
   28SAPC   H4Y 3765   0.840   2.168   7.044 -2.0640 -0.5303  0.4159
   28SAPC   C35 3766   0.733   2.238   7.225  0.4275 -0.0885  0.1168
   28SAPC   H5X 3767   0.677   2.142   7.218  1.1058 -0.5532  0.9810
   28SAPC   H5Y 3768   0.667   2.326   7.244 -2.1620 -2.0254  0.3040
   28SAPC   C36 3769   0.846   2.224   7.331 -0.1428  0.1633 -0.1731
   28SAPC   H6X 3770   0.908   2.316   7.341 -0.1433 -0.0591  2.2931
   28SAPC   H6Y 3771   0.908   2.142   7.290 -0.3687  0.2371 -0.6622
   28SAPC   C37 3772   0.791   2.180   7.462 -0.5412  0.3056 -0.1080
   28SAPC   H7X 3773   0.875   2.145   7.526 -0.5925  2.1972  1.0287
   28SAPC   H7Y 3774   0.733   2.088   7.442  0.3243 -0.2524 -0.0627
   28SAPC   C38 3775   0.712   2.285   7.530  0.1789 -0.3616 -0.1995
   28SAPC   H8X 3776   0.631   2.327   7.466  1.0046  1.8498  0.1713
   28SAPC   H8Y 3777   0.784   2.363   7.561  0.2674 -0.7519  0.6013
   28SAPC   C39 3778   0.643   2.240   7.659  0.0999  0.0976 -0.3431
   28SAPC   H9X 3779   0.585   2.148   7.637 -0.7798  0.6165 -0.1949
   28SAPC   H9Y 3780   0.584   2.320   7.709  2.7330  2.0020 -0.1746
   28SAPC  C310 3781   0.747   2.193   7.767  0.1721  0.2500 -0.8681
   28SAPC  H10X 3782   0.827   2.270   7.776 -2.8876  3.6331 -1.5294
   28SAPC  H10Y 3783   0.801   2.098   7.748 -0.6985 -1.4723  4.3824
   28SAPC  C311 3784   0.671   2.172   7.900  0.2241  0.1794 -0.2508
   28SAPC  H11X 3785   0.607   2.082   7.890  0.3684  0.1221 -0.6809
   28SAPC  H11Y 3786   0.600   2.257   7.913 -1.2045 -1.2189  1.3509
   28SAPC  C312 3787   0.766   2.168   8.014 -0.1469  0.2605 -0.6450
   28SAPC  H12X 3788   0.848   2.103   7.973 -1.2194 -0.7005 -1.3041
   28SAPC  H12Y 3789   0.715   2.119   8.100  2.8926 -1.4301  0.2929
   28SAPC  C313 3790   0.814   2.305   8.056  0.3146  0.3855  0.1876
   28SAPC  H13X 3791   0.723   2.369   8.051 -1.1418 -1.5950  0.6284
   28SAPC  H13Y 3792   0.883   2.343   7.977  1.6453  0.9319  1.5786
   28SAPC  C314 3793   0.875   2.299   8.193  0.3983  0.5313 -0.0321
   28SAPC  H14X 3794   0.815   2.231   8.258 -0.4198  1.6266  0.3690
   28SAPC  H14Y 3795   0.871   2.395   8.250  0.5819  0.4433  0.1288
   28SAPC  C315 3796   1.019   2.235   8.193  0.5197  0.8802 -0.2654
   28SAPC  H15X 3797   1.085   2.296   8.128  0.4035 -1.9526 -3.1408
   28SAPC  H15Y 3798   1.020   2.141   8.134 -0.4022 -0.5908  1.9900
   28SAPC  C316 3799   1.082   2.196   8.329 -0.1759  0.0313  0.1534
   28SAPC  H16X 3800   1.168   2.142   8.284 -0.2973  0.8982 -1.1520
   28SAPC  H16Y 3801   1.010   2.136   8.388 -1.3187 -0.6452 -1.8579
   28SAPC  C317 3802   1.141   2.323   8.396  0.2476 -0.3097 -0.0153
   28SAPC  H17X 3803   1.056   2.395   8.395  1.1446  0.7623 -0.8137
   28SAPC  H17Y 3804   1.216   2.372   8.330 -0.5260  0.2725 -0.4632
   28SAPC  C318 3805   1.203   2.308   8.536  0.0077 -0.2385 -0.1233
   28SAPC  H18X 3806   1.236   2.406   8.576  1.0060 -0.5278 -0.2184
   28SAPC  H18Y 3807   1.292   2.242   8.523  0.3310  0.5000 -1.8030
   28SAPC  H18Z 3808   1.144   2.267   8.621 -0.7030  0.5312 -0.2404
   29SAPC     N 3809   3.706   6.818   6.295 -0.3199  0.3523 -0.0425
   29SAPC   C12 3810   3.663   6.725   6.180  0.1852 -0.2654 -0.1395
   29SAPC  H12A 3811   3.726   6.743   6.094  0.3839  0.2586  0.1143
   29SAPC  H12B 3812   3.566   6.767   6.159  0.1942  1.9512  3.8023
   29SAPC   C13 3813   3.620   6.798   6.412  0.0882  0.4772 -0.0133
   29SAPC  H13A 3814   3.606   6.691   6.418 -0.9749  0.6364  0.4600
   29SAPC  H13B 3815   3.665   6.832   6.504 -1.6468 -0.3386  1.1550
   29SAPC  H13C 3816   3.520   6.835   6.392 -1.1988 -3.1767 -0.7525
   29SAPC   C14 3817   3.842   6.770   6.331 -0.3156  0.4721  0.2604
   29SAPC  H14A 3818   3.830   6.669   6.367 -0.6374 -0.0245 -1.2048
   29SAPC  H14B 3819   3.910   6.778   6.247 -0.5763 -1.8510 -0.2217
   29SAPC  H14C 3820   3.889   6.827   6.409  0.5408 -0.6674  0.6077
   29SAPC   C15 3821   3.709   6.961   6.258  0.5559 -0.0619  0.1960
   29SAPC  H15A 3822   3.717   7.031   6.340  1.3333 -1.4857  1.3755
   29SAPC  H15B 3823   3.797   6.989   6.202 -0.0682  0.2500 -0.6380
   29SAPC  H15C 3824   3.619   6.990   6.207 -0.8581 -1.2436  1.9482
   29SAPC   C11 3825   3.636   6.573   6.200 -0.5427 -0.1659  0.1921
   29SAPC  H11A 3826   3.609   6.535   6.099  0.2417 -0.3937  0.0669
   29SAPC  H11B 3827   3.547   6.559   6.264  1.1594 -1.8426  2.2599
   29SAPC     P 3828   3.749   6.418   6.388 -0.0854 -0.4870  0.1718
   29SAPC   O13 3829   3.750   6.270   6.353 -0.0266 -0.2353 -0.3803
   29SAPC   O14 3830   3.854   6.479   6.470  0.2682 -0.0015  0.0327
   29SAPC   O12 3831   3.745   6.496   6.255 -0.4207 -0.3505  0.5332
   29SAPC   O11 3832   3.618   6.459   6.463 -0.3123 -0.0157  0.0864
   29SAPC    C1 3833   3.515   6.362   6.478 -1.0860 -0.1911  0.1069
   29SAPC    HA 3834   3.477   6.336   6.377  2.6286 -0.7124 -1.2344
   29SAPC    HB 3835   3.548   6.268   6.527  0.7073 -0.4100 -1.4602
   29SAPC    C2 3836   3.394   6.416   6.559 -0.2406 -0.4604  0.5195
   29SAPC    HS 3837   3.364   6.513   6.515 -1.8892 -2.0387 -1.9354
   29SAPC   O21 3838   3.441   6.425   6.691 -0.0117 -0.3070 -0.1268
   29SAPC   C21 3839   3.482   6.547   6.727  0.2472 -0.1623 -0.2839
   29SAPC   O22 3840   3.471   6.644   6.655 -0.2454 -0.0905 -0.2859
   29SAPC   C22 3841   3.508   6.545   6.874 -0.3316 -0.6601 -0.1328
   29SAPC   H2R 3842   3.612   6.505   6.882 -0.1071 -0.0704 -0.0317
   29SAPC   H2S 3843   3.505   6.646   6.920 -0.8529 -0.6272 -0.2432
   29SAPC    C3 3844   3.270   6.323   6.554  0.8092 -0.1739 -0.4884
   29SAPC    HX 3845   3.315   6.226   6.584  0.4311  0.1457  1.1488
   29SAPC    HY 3846   3.235   6.320   6.448  0.9897  0.2053 -0.5603
   29SAPC   O31 3847   3.168   6.381   6.647  0.6569  0.2311 -0.1950
   29SAPC   C31 3848   3.092   6.289   6.696 -0.2857 -0.6702 -0.5634
   29SAPC   O32 3849   3.090   6.174   6.662  0.4026 -0.0596  0.0327
   29SAPC   C32 3850   3.011   6.339   6.817  0.3140  0.6307 -0.4120
   29SAPC   H2X 3851   2.932   6.404   6.775 -1.1126 -2.8112 -3.2704
   29SAPC   H2Y 3852   3.065   6.412   6.880  1.2781  2.4421 -3.2537
   29SAPC   C23 3853   3.405   6.457   6.957 -0.4245  0.5926  0.0039
   29SAPC   H3R 3854   3.399   6.353   6.919 -0.1286  0.4887  0.2437
   29SAPC   H3S 3855   3.309   6.507   6.930 -1.0799 -0.5866  0.1119
   29SAPC   C24 3856   3.446   6.460   7.105 -0.0197 -0.1203  0.8998
   29SAPC   H4R 3857   3.356   6.443   7.168 -0.6251  0.2744  0.1437
   29SAPC   H4S 3858   3.479   6.565   7.122 -0.2918  0.1813 -0.3895
   29SAPC   C25 3859   3.566   6.384   7.133 -0.3269  0.4776  0.2470
   29SAPC   H5R 3860   3.633   6.385   7.046 -2.5802  0.5787 -1.5243
   29SAPC   C26 3861   3.607   6.332   7.248 -0.3228  0.4258  0.7108
   29SAPC   H6R 3862   3.697   6.270   7.243 -0.9538 -0.6895  2.6184
   29SAPC   C27 3863   3.536   6.329   7.380  0.3110  0.0455 -0.4572
   29SAPC   H7R 3864   3.429   6.330   7.353 -0.0071 -1.4605  0.6360
   29SAPC   H7S 3865   3.544   6.423   7.439  0.8030 -0.3669  0.1457
   29SAPC   C28 3866   3.556   6.199   7.455 -0.1037 -0.1551  0.6204
   29SAPC   H8R 3867   3.555   6.103   7.401 -1.3086 -0.4772  1.1916
   29SAPC   C29 3868   3.610   6.185   7.573  0.7630 -0.4232  0.3386
   29SAPC   H9R 3869   3.601   6.088   7.625 -0.6039  0.8941  2.6638
   29SAPC  C210 3870   3.648   6.295   7.659  0.3221 -0.1083 -0.4181
   29SAPC  H10R 3871   3.632   6.395   7.614  2.0574  1.2415  1.8176
   29SAPC  H10S 3872   3.758   6.282   7.676  0.6235  2.9154  0.1658
   29SAPC  C211 3873   3.582   6.292   7.786  0.1008 -0.0509 -0.9941
   29SAPC  H11R 3874   3.473   6.292   7.770  0.2965  2.8851 -2.8018
   29SAPC  C212 3875   3.637   6.292   7.911  0.0919  0.0480 -0.1301
   29SAPC  H12R 3876   3.568   6.282   7.996  0.3583  2.4995  0.4187
   29SAPC  C213 3877   3.784   6.291   7.950  1.2958 -0.3138  0.0636
   29SAPC  H13R 3878   3.818   6.397   7.949 -1.3134  0.5686 -0.1635
   29SAPC  H13S 3879   3.847   6.240   7.874 -1.0301 -0.2261 -2.0044
   29SAPC  C214 3880   3.809   6.233   8.089 -0.1970 -0.7390  0.3109
   29SAPC  H14R 3881   3.733   6.159   8.119 -0.5134 -0.8701 -0.7749
   29SAPC  C215 3882   3.903   6.273   8.175 -0.3290  0.4486  0.3806
   29SAPC  H15R 3883   3.897   6.217   8.270 -0.8973 -0.2880 -0.0804
   29SAPC  C216 3884   4.009   6.376   8.172  0.5411 -0.0517  0.4722
   29SAPC  H16R 3885   3.964   6.461   8.227 -1.7650 -0.1375 -1.2207
   29SAPC  H16S 3886   4.018   6.405   8.065  1.3273 -0.8713  0.3081
   29SAPC  C217 3887   4.152   6.341   8.230  0.5027  0.0527  0.3424
   29SAPC  H17R 3888   4.222   6.427   8.219  0.2009  0.4551  1.4329
   29SAPC  H17S 3889   4.189   6.248   8.182  0.8422 -0.4239  1.4918
   29SAPC  C218 3890   4.139   6.314   8.382  0.0685  0.3408 -0.4567
   29SAPC  H18R 3891   4.072   6.235   8.420  3.3064 -0.3725  4.1472
   29SAPC  H18S 3892   4.090   6.407   8.418  1.9453  0.7650  1.0745
   29SAPC  C219 3893   4.280   6.295   8.443 -0.1943  0.0931  0.5762
   29SAPC  H19R 3894   4.340   6.374   8.394  1.6860 -1.5281  0.2003
   29SAPC  H19S 3895   4.325   6.207   8.393 -1.3720 -0.6284  0.7589
   29SAPC  C220 3896   4.288   6.301   8.601 -0.4984  0.2933  0.2578
   29SAPC  H20R 3897   4.210   6.368   8.642 -1.8539 -0.8807 -0.3753
   29SAPC  H20S 3898   4.391   6.328   8.633  0.2272 -1.3405 -0.6307
   29SAPC  H20T 3899   4.271   6.196   8.634  2.2532 -0.1532  0.3936
   29SAPC   C33 3900   2.946   6.229   6.904 -0.4734 -0.1308  0.9042
   29SAPC   H3X 3901   3.017   6.144   6.910 -0.3058 -0.1635 -1.1568
   29SAPC   H3Y 3902   2.855   6.192   6.853 -0.7554 -0.3107  1.5329
   29SAPC   C34 3903   2.911   6.281   7.043  0.1319 -1.0457  1.0749
   29SAPC   H4X 3904   2.836   6.362   7.029  0.1545 -1.1603  0.2986
   29SAPC   H4Y 3905   3.009   6.317   7.083 -1.0694  1.8461  1.5792
   29SAPC   C35 3906   2.837   6.179   7.129 -0.0084 -0.3772 -0.5676
   29SAPC   H5X 3907   2.906   6.092   7.134  0.6728  0.2230  0.8281
   29SAPC   H5Y 3908   2.742   6.147   7.081  0.2040  0.9552 -1.9132
   29SAPC   C36 3909   2.814   6.224   7.273 -0.1449  0.1881  0.4636
   29SAPC   H6X 3910   2.720   6.283   7.278 -0.2151 -0.0596  2.2321
   29SAPC   H6Y 3911   2.897   6.293   7.299  0.4461 -0.2061 -0.3474
   29SAPC   C37 3912   2.804   6.099   7.365  0.3678  0.3052  0.4277
   29SAPC   H7X 3913   2.905   6.053   7.368  1.0260  1.5325 -1.4187
   29SAPC   H7Y 3914   2.729   6.030   7.321  0.1038  0.8911 -0.0537
   29SAPC   C38 3915   2.768   6.124   7.514 -0.3663 -0.7092 -0.7004
   29SAPC   H8X 3916   2.676   6.185   7.528  0.4601  0.4597 -0.2381
   29SAPC   H8Y 3917   2.850   6.193   7.547 -1.2839  0.5033 -0.9099
   29SAPC   C39 3918   2.748   6.000   7.599 -0.5086 -0.7263 -0.1315
   29SAPC   H9X 3919   2.833   5.934   7.574 -0.5666 -0.7616 -0.2348
   29SAPC   H9Y 3920   2.658   5.955   7.553  1.7996 -3.6929 -1.8880
   29SAPC  C310 3921   2.737   6.029   7.742 -0.3120  0.2552 -0.6436
   29SAPC  H10X 3922   2.683   6.126   7.754 -0.5557  0.3908 -2.7104
   29SAPC  H10Y 3923   2.837   6.037   7.791 -0.0089 -1.7618 -0.9104
   29SAPC  C311 3924   2.672   5.915   7.818  0.1137  0.1804  0.0875
   29SAPC  H11X 3925   2.737   5.826   7.801  0.1968  0.3829 -0.6743
   29SAPC  H11Y 3926   2.573   5.885   7.779  0.1658  0.0379  0.0630
   29SAPC  C312 3927   2.668   5.937   7.968 -0.4556  0.4459 -0.0310
   29SAPC  H12X 3928   2.619   6.030   8.004  3.4197  2.3700  0.4731
   29SAPC  H12Y 3929   2.772   5.944   8.005 -0.9101  0.3174  1.2956
   29SAPC  C313 3930   2.588   5.822   8.034 -0.4983 -0.0131  0.1876
   29SAPC  H13X 3931   2.606   5.735   7.968  1.2782  0.6335 -0.2190
   29SAPC  H13Y 3932   2.479   5.835   8.021 -0.5855 -2.0680 -1.4059
   29SAPC  C314 3933   2.634   5.787   8.181 -0.0818 -1.1277 -0.2108
   29SAPC  H14X 3934   2.737   5.748   8.175  0.1848 -0.3552 -0.8566
   29SAPC  H14Y 3935   2.564   5.713   8.224 -2.1132  0.2981 -0.9559
   29SAPC  C315 3936   2.619   5.915   8.270 -0.0647  0.3146  0.5186
   29SAPC  H15X 3937   2.515   5.954   8.262  0.9269  3.1294  0.8710
   29SAPC  H15Y 3938   2.691   5.990   8.232 -0.0257 -0.0112 -0.0636
   29SAPC  C316 3939   2.633   5.890   8.416 -0.6310 -0.2548 -0.4623
   29SAPC  H16X 3940   2.726   5.837   8.446 -1.2048 -0.9624  0.0686
   29SAPC  H16Y 3941   2.544   5.830   8.444 -1.0174 -0.0411 -1.2159
   29SAPC  C317 3942   2.607   6.014   8.504 -0.1435 -0.4547 -0.5655
   29SAPC  H17X 3943   2.516   6.066   8.468 -0.3035 -0.3629 -0.0348
   29SAPC  H17Y 3944   2.699   6.073   8.486  1.1317 -2.3708 -0.5444
   29SAPC  C318 3945   2.582   5.974   8.655  0.4859  0.4730 -0.4852
   29SAPC  H18X 3946   2.485   5.921   8.662 -0.2229  1.9126  0.8796
   29SAPC  H18Y 3947   2.593   6.063   8.721  1.1324  1.3021 -1.6885
   29SAPC  H18Z 3948   2.664   5.907   8.689 -0.5648 -0.5307  0.1070
   30SAPC     N 3949   5.448   6.423   6.268  0.3099 -0.1723  0.2370
   30SAPC   C12 3950   5.326   6.515   6.268  0.0175  0.3701  0.4410
   30SAPC  H12A 3951   5.367   6.611   6.298  1.8531 -0.3858  0.4532
   30SAPC  H12B 3952   5.269   6.483   6.354  1.4980 -0.8476  1.0059
   30SAPC   C13 3953   5.544   6.458   6.163  0.4067  0.2139  0.1905
   30SAPC  H13A 3954   5.497   6.505   6.078  1.0100  4.0127  1.8696
   30SAPC  H13B 3955   5.608   6.533   6.206  0.5114  0.5568 -0.5587
   30SAPC  H13C 3956   5.610   6.378   6.136  1.4676  1.3914 -0.7488
   30SAPC   C14 3957   5.513   6.433   6.405 -0.7458 -0.1040 -0.1264
   30SAPC  H14A 3958   5.595   6.364   6.414 -0.1885  0.6019  0.2403
   30SAPC  H14B 3959   5.549   6.535   6.405 -1.3877  0.1279 -0.7109
   30SAPC  H14C 3960   5.446   6.428   6.489 -0.6675  1.5423  0.0509
   30SAPC   C15 3961   5.400   6.281   6.250  0.6355 -0.2182 -0.3545
   30SAPC  H15A 3962   5.475   6.207   6.229  0.0771 -0.6334 -0.9245
   30SAPC  H15B 3963   5.372   6.247   6.349 -0.1848 -0.6666 -0.7384
   30SAPC  H15C 3964   5.309   6.277   6.191  0.2051 -4.2326  0.4609
   30SAPC   C11 3965   5.249   6.530   6.135 -0.6705 -0.1144 -0.1831
   30SAPC  H11A 3966   5.325   6.543   6.055 -0.4727  0.8479  0.1589
   30SAPC  H11B 3967   5.190   6.623   6.150  0.3524  1.0753 -3.2379
   30SAPC     P 3968   5.034   6.399   6.055  0.4178  0.0578  0.1012
   30SAPC   O13 3969   5.046   6.458   5.923  0.7145  0.0277 -0.2693
   30SAPC   O14 3970   5.012   6.252   6.065 -0.1006 -0.0215 -0.6914
   30SAPC   O12 3971   5.171   6.419   6.128  0.2447  0.2773 -0.0753
   30SAPC   O11 3972   4.928   6.477   6.139  0.7060  0.0163 -0.5044
   30SAPC    C1 3973   4.947   6.510   6.277  0.5610 -0.4750  0.1737
   30SAPC    HA 3974   5.016   6.596   6.283  1.1177 -0.8391 -0.9108
   30SAPC    HB 3975   4.848   6.554   6.303  0.0213 -0.0226 -2.5315
   30SAPC    C2 3976   4.973   6.392   6.375  0.4830 -0.3704 -0.2054
   30SAPC    HS 3977   5.075   6.358   6.345  1.0506 -0.2080  1.4545
   30SAPC   O21 3978   4.867   6.294   6.366  0.0132 -0.5754 -0.0984
   30SAPC   C21 3979   4.911   6.169   6.390  0.3358 -0.9545  0.4085
   30SAPC   O22 3980   5.015   6.126   6.426  0.5349 -0.7918 -0.0021
   30SAPC   C22 3981   4.789   6.083   6.370  0.2381 -0.5744 -0.0137
   30SAPC   H2R 3982   4.702   6.149   6.390  0.3874 -0.2659 -0.3582
   30SAPC   H2S 3983   4.788   6.060   6.261 -1.6217  1.3962 -0.4690
   30SAPC    C3 3984   5.000   6.443   6.528 -0.0589  0.0376  0.4127
   30SAPC    HX 3985   4.900   6.478   6.562 -0.0458  0.5465 -0.0674
   30SAPC    HY 3986   5.065   6.533   6.521 -0.1749  0.2454  1.8067
   30SAPC   O31 3987   5.046   6.339   6.626 -0.2083  0.2106  0.6702
   30SAPC   C31 3988   5.173   6.317   6.614 -0.2141 -0.2979  0.1018
   30SAPC   O32 3989   5.248   6.371   6.531  0.4447 -0.1030  0.7062
   30SAPC   C32 3990   5.221   6.208   6.703 -0.3953  0.6172 -0.1798
   30SAPC   H2X 3991   5.310   6.158   6.658  0.0919  1.4263 -0.1199
   30SAPC   H2Y 3992   5.142   6.130   6.708 -0.1219  0.1084 -2.7011
   30SAPC   C23 3993   4.781   5.951   6.441  0.1653  0.0057 -0.5460
   30SAPC   H3R 3994   4.875   5.893   6.428  0.3321  0.2092 -0.2645
   30SAPC   H3S 3995   4.702   5.885   6.400 -1.7935  0.9710  1.6104
   30SAPC   C24 3996   4.754   5.966   6.591 -0.2458  0.0362 -0.1689
   30SAPC   H4R 3997   4.647   5.995   6.590  0.0862  1.3085  0.4058
   30SAPC   H4S 3998   4.813   6.054   6.626  1.6362 -0.3645 -2.2399
   30SAPC   C25 3999   4.792   5.851   6.672  0.2598 -0.1948  0.4417
   30SAPC   H5R 4000   4.795   5.763   6.606 -0.4711 -0.9823  1.4278
   30SAPC   C26 4001   4.838   5.844   6.796  0.1014 -0.1437  0.0509
   30SAPC   H6R 4002   4.883   5.749   6.830 -1.8501 -0.0545  3.0658
   30SAPC   C27 4003   4.856   5.951   6.904 -0.1555 -0.0161 -0.0185
   30SAPC   H7R 4004   4.788   5.919   6.986  0.0614 -3.2701 -1.0208
   30SAPC   H7S 4005   4.815   6.048   6.870 -0.0587  1.4192  3.7308
   30SAPC   C28 4006   4.996   5.964   6.957  0.1323  0.3239  0.6414
   30SAPC   H8R 4007   5.063   6.033   6.903 -2.2755  1.0836 -1.4408
   30SAPC   C29 4008   5.036   5.895   7.066  0.5321  0.3173  0.1872
   30SAPC   H9R 4009   5.140   5.907   7.100 -0.5198  4.5611  2.2327
   30SAPC  C210 4010   4.948   5.796   7.142  0.3128 -0.0680  0.1190
   30SAPC  H10R 4011   4.872   5.751   7.076 -0.4918 -0.0637  1.0277
   30SAPC  H10S 4012   4.903   5.854   7.225  0.5447 -0.8646  0.8206
   30SAPC  C211 4013   5.022   5.683   7.223  0.2321 -0.2161  0.7566
   30SAPC  H11R 4014   5.102   5.647   7.156 -0.8503 -0.4478 -0.4419
   30SAPC  C212 4015   4.983   5.628   7.335  0.4804 -0.6850 -0.3776
   30SAPC  H12R 4016   5.042   5.544   7.376  0.9021 -0.3142 -0.2192
   30SAPC  C213 4017   4.859   5.656   7.416 -0.8017 -0.5458 -0.5709
   30SAPC  H13R 4018   4.823   5.752   7.375 -0.6919  0.2588  1.1689
   30SAPC  H13S 4019   4.891   5.685   7.518  0.1314  6.8804 -2.7039
   30SAPC  C214 4020   4.749   5.558   7.402 -0.0660 -0.1672  0.1079
   30SAPC  H14R 4021   4.716   5.550   7.298 -0.2449 -0.6231  0.1989
   30SAPC  C215 4022   4.673   5.512   7.501 -0.2788  0.0812 -0.2590
   30SAPC  H15R 4023   4.594   5.438   7.483  0.8023 -0.8584 -1.2383
   30SAPC  C216 4024   4.698   5.543   7.656  1.0580  0.3130  0.2146
   30SAPC  H16R 4025   4.600   5.574   7.698  1.3228 -0.7659  1.6561
   30SAPC  H16S 4026   4.771   5.626   7.670 -2.2580  3.5024 -0.6801
   30SAPC  C217 4027   4.752   5.433   7.750 -0.2194 -0.4501  0.8030
   30SAPC  H17R 4028   4.855   5.413   7.714 -0.2123 -1.1433  1.2045
   30SAPC  H17S 4029   4.697   5.339   7.731 -0.8419  0.7388 -3.8355
   30SAPC  C218 4030   4.756   5.492   7.893 -0.1231  0.1149 -0.1070
   30SAPC  H18R 4031   4.650   5.512   7.919 -0.1002  1.9231 -1.3431
   30SAPC  H18S 4032   4.817   5.585   7.890 -1.8635  1.2365 -0.9447
   30SAPC  C219 4033   4.817   5.400   8.000  0.4359 -0.4349  0.2419
   30SAPC  H19R 4034   4.924   5.378   7.982  0.6573 -0.4642  1.4880
   30SAPC  H19S 4035   4.765   5.302   7.989  2.1289 -1.2741 -0.5900
   30SAPC  C220 4036   4.805   5.452   8.141  0.3107  0.0800 -0.5428
   30SAPC  H20R 4037   4.699   5.455   8.175 -0.4000 -2.1726 -2.4639
   30SAPC  H20S 4038   4.842   5.557   8.145 -0.0920  0.2237 -0.4835
   30SAPC  H20T 4039   4.855   5.392   8.220  0.4811 -2.5299 -2.5753
   30SAPC   C33 4040   5.266   6.270   6.837 -0.1475 -0.5639  0.2728
   30SAPC   H3X 4041   5.172   6.289   6.892 -0.6666 -2.1255 -0.0411
   30SAPC   H3Y 4042   5.322   6.365   6.827 -1.4785 -0.0815 -3.2251
   30SAPC   C34 4043   5.343   6.173   6.922  1.2458  0.1365 -0.1360
   30SAPC   H4X 4044   5.453   6.188   6.921  1.4824 -1.4879 -2.1265
   30SAPC   H4Y 4045   5.332   6.069   6.885 -1.1589  0.2768  0.1453
   30SAPC   C35 4046   5.313   6.177   7.070 -0.4667 -0.9994  0.0056
   30SAPC   H5X 4047   5.206   6.160   7.093 -0.9310 -1.2915 -2.2848
   30SAPC   H5Y 4048   5.330   6.283   7.098  0.1164 -0.0926 -3.5042
   30SAPC   C36 4049   5.398   6.088   7.159 -0.0539 -0.5336  0.0339
   30SAPC   H6X 4050   5.503   6.119   7.146  0.6035 -2.4909  0.3828
   30SAPC   H6Y 4051   5.392   5.982   7.124  2.2553 -1.3109  1.8532
   30SAPC   C37 4052   5.347   6.087   7.298  0.4264 -0.3252 -0.2081
   30SAPC   H7X 4053   5.256   6.026   7.316  1.0261 -0.7195  1.6755
   30SAPC   H7Y 4054   5.323   6.192   7.326 -0.5554 -0.1197 -1.7568
   30SAPC   C38 4055   5.459   6.031   7.387  0.1362  0.4662  0.1007
   30SAPC   H8X 4056   5.559   6.067   7.354 -0.6232  0.8529 -1.8436
   30SAPC   H8Y 4057   5.459   5.920   7.382 -0.1515  0.4651  0.1140
   30SAPC   C39 4058   5.434   6.057   7.534  0.6511  0.1365 -0.3250
   30SAPC   H9X 4059   5.330   6.023   7.554  1.4224 -1.5269  1.1027
   30SAPC   H9Y 4060   5.438   6.166   7.557 -1.2792  0.1790 -0.1011
   30SAPC  C310 4061   5.530   5.986   7.633  0.0374  0.1941  0.2288
   30SAPC  H10X 4062   5.618   6.054   7.648  0.5258 -0.4211  0.1763
   30SAPC  H10Y 4063   5.573   5.891   7.596  1.8143  0.4873  1.4454
   30SAPC  C311 4064   5.461   5.973   7.767  0.4008 -0.1873  0.4429
   30SAPC  H11X 4065   5.372   5.910   7.745 -1.4574  2.3226  0.3977
   30SAPC  H11Y 4066   5.428   6.070   7.810 -1.7492 -1.2146  1.1828
   30SAPC  C312 4067   5.559   5.911   7.866  0.0966  0.3255  0.0672
   30SAPC  H12X 4068   5.615   6.005   7.890  1.5028 -0.7698  1.1721
   30SAPC  H12Y 4069   5.622   5.832   7.821  1.6016 -0.5606  3.5549
   30SAPC  C313 4070   5.502   5.846   7.999 -0.3485 -0.8728  0.6145
   30SAPC  H13X 4071   5.424   5.916   8.037  1.6856  2.2621 -0.7389
   30SAPC  H13Y 4072   5.588   5.837   8.069  1.2839 -0.9682 -1.3427
   30SAPC  C314 4073   5.442   5.709   7.973 -0.3397 -0.9186 -0.6301
   30SAPC  H14X 4074   5.524   5.638   7.949  2.0143  0.8241  1.9145
   30SAPC  H14Y 4075   5.379   5.723   7.883 -0.5090  3.1927  0.0213
   30SAPC  C315 4076   5.349   5.648   8.082 -0.3067 -0.3422  0.3591
   30SAPC  H15X 4077   5.320   5.546   8.048  0.8025  0.0295 -1.8340
   30SAPC  H15Y 4078   5.259   5.713   8.081 -1.1669 -1.5109 -1.0599
   30SAPC  C316 4079   5.423   5.642   8.220 -0.4002 -0.4869  0.2072
   30SAPC  H16X 4080   5.459   5.746   8.233  1.6107 -0.7479 -2.6874
   30SAPC  H16Y 4081   5.518   5.585   8.206 -0.1062  0.0519 -0.0179
   30SAPC  C317 4082   5.350   5.588   8.333 -0.3531  0.0082  0.2486
   30SAPC  H17X 4083   5.417   5.541   8.408  0.9117 -1.6658 -1.8327
   30SAPC  H17Y 4084   5.296   5.495   8.303  0.0609 -0.7652  1.8477
   30SAPC  C318 4085   5.254   5.680   8.417 -0.0809  0.4492  0.1956
   30SAPC  H18X 4086   5.151   5.701   8.383 -0.5923 -2.0186  0.1163
   30SAPC  H18Y 4087   5.312   5.773   8.434  1.2395 -0.2582 -0.3050
   30SAPC  H18Z 4088   5.235   5.642   8.520  0.5617 -0.4050  0.0033
   31SAPC     N 4089   5.234   0.936   5.972  0.0666 -0.5833  0.0494
   31SAPC   C12 4090   5.254   0.787   5.928  0.1331 -0.3412 -0.1681
   31SAPC  H12A 4091   5.241   0.795   5.821  1.2051  2.7479 -0.1010
   31SAPC  H12B 4092   5.167   0.728   5.954  0.3807 -1.5532 -1.9569
   31SAPC   C13 4093   5.245   0.946   6.121 -0.2922  0.1159 -0.2557
   31SAPC  H13A 4094   5.160   0.902   6.171 -1.4855  3.6736  0.9498
   31SAPC  H13B 4095   5.331   0.894   6.163 -0.2833  0.9137  0.7320
   31SAPC  H13C 4096   5.253   1.048   6.155  1.7589 -0.1286  0.0752
   31SAPC   C14 4097   5.349   1.018   5.912  0.0246 -0.4260 -0.1179
   31SAPC  H14A 4098   5.445   0.969   5.915 -1.1814 -2.8234  0.2811
   31SAPC  H14B 4099   5.326   1.047   5.810  0.0778 -1.7996 -0.5306
   31SAPC  H14C 4100   5.345   1.108   5.972 -0.4655 -1.0716  0.8262
   31SAPC   C15 4101   5.102   0.984   5.919  0.6110  0.1506  0.5355
   31SAPC  H15A 4102   5.019   0.945   5.975  2.1161 -1.2715  1.8581
   31SAPC  H15B 4103   5.101   1.092   5.926  4.5101  0.4520 -1.6024
   31SAPC  H15C 4104   5.081   0.958   5.816 -1.6660  3.2928  0.1311
   31SAPC   C11 4105   5.386   0.711   5.974  0.7118 -0.6585  0.4097
   31SAPC  H11A 4106   5.475   0.770   5.943 -0.6242  0.4220 -1.5224
   31SAPC  H11B 4107   5.404   0.617   5.917  0.9784  1.8962 -3.9913
   31SAPC     P 4108   5.323   0.565   6.180  0.1738 -0.5975  0.0865
   31SAPC   O13 4109   5.174   0.565   6.152 -0.6452  0.1304  0.6055
   31SAPC   O14 4110   5.397   0.441   6.143  0.1793 -0.0768 -0.1061
   31SAPC   O12 4111   5.394   0.689   6.117  0.6239  0.0648 -0.0425
   31SAPC   O11 4112   5.339   0.592   6.335 -0.0320  0.0036  0.2741
   31SAPC    C1 4113   5.461   0.623   6.408 -0.1273  0.0185  0.4424
   31SAPC    HA 4114   5.490   0.723   6.370 -0.7232  0.9471  2.3621
   31SAPC    HB 4115   5.424   0.641   6.511 -2.3496 -0.3416 -0.2585
   31SAPC    C2 4116   5.571   0.519   6.411  0.3992 -0.2305  0.0251
   31SAPC    HS 4117   5.564   0.460   6.317  0.8690 -2.8183  1.5568
   31SAPC   O21 4118   5.539   0.441   6.527 -0.3874 -0.7047 -0.0064
   31SAPC   C21 4119   5.599   0.325   6.520 -0.4468  0.3087 -0.3161
   31SAPC   O22 4120   5.643   0.278   6.414  0.2433 -0.5685  0.0702
   31SAPC   C22 4121   5.602   0.255   6.658  0.0427 -0.4654  0.8969
   31SAPC   H2R 4122   5.705   0.263   6.698  1.3289  2.3896 -2.6992
   31SAPC   H2S 4123   5.530   0.293   6.733  0.6198  2.3511  0.0863
   31SAPC    C3 4124   5.712   0.585   6.429  0.1428  1.0883 -0.2057
   31SAPC    HX 4125   5.716   0.660   6.347 -2.7553  0.8857 -0.5825
   31SAPC    HY 4126   5.793   0.513   6.406  0.8702  1.4295  1.2653
   31SAPC   O31 4127   5.721   0.650   6.558  0.0967  0.3915 -0.1148
   31SAPC   C31 4128   5.783   0.578   6.650 -0.2012 -0.2571  0.0127
   31SAPC   O32 4129   5.839   0.472   6.636  0.5643 -0.0146 -0.1449
   31SAPC   C32 4130   5.762   0.640   6.781  0.1331  0.1542 -0.0872
   31SAPC   H2X 4131   5.654   0.656   6.801  0.0297  1.4835 -1.6404
   31SAPC   H2Y 4132   5.803   0.742   6.771 -1.0448  0.7956  1.4242
   31SAPC   C23 4133   5.600   0.103   6.643  0.6151  1.4637  0.4121
   31SAPC   H3R 4134   5.674   0.067   6.569  0.2955 -0.2487  0.9093
   31SAPC   H3S 4135   5.510   0.064   6.591  1.7313  1.8423 -1.8637
   31SAPC   C24 4136   5.607   0.023   6.772  0.1740  0.5685 -0.4784
   31SAPC   H4R 4137   5.572  -0.082   6.759 -2.6958  1.3835  0.2762
   31SAPC   H4S 4138   5.531   0.068   6.839 -1.0977  0.1578 -1.6131
   31SAPC   C25 4139   5.741   0.010   6.830 -0.1109 -0.4698  0.1100
   31SAPC   H5R 4140   5.826   0.004   6.761  1.4311 -1.6042  2.0564
   31SAPC   C26 4141   5.764   0.034   6.959 -0.1637 -0.7865  0.8821
   31SAPC   H6R 4142   5.867   0.030   6.999  0.0467  0.1166  0.4381
   31SAPC   C27 4143   5.667   0.060   7.073 -0.3446  0.2345  0.0433
   31SAPC   H7R 4144   5.670  -0.033   7.133  0.0978 -1.3329 -2.3356
   31SAPC   H7S 4145   5.566   0.064   7.026 -0.1322 -1.0366 -0.5559
   31SAPC   C28 4146   5.708   0.176   7.157 -0.8643  0.1312  0.3607
   31SAPC   H8R 4147   5.739   0.268   7.105 -0.6440 -0.2076 -0.1072
   31SAPC   C29 4148   5.736   0.167   7.288  0.1756  0.4411  0.5645
   31SAPC   H9R 4149   5.745   0.263   7.341 -1.8288  0.5354  0.7656
   31SAPC  C210 4150   5.736   0.039   7.369  0.6219  0.7775 -0.0822
   31SAPC  H10R 4151   5.775  -0.044   7.307 -0.5745 -0.8686  1.3002
   31SAPC  H10S 4152   5.633   0.013   7.402  0.5677  0.1353 -0.7434
   31SAPC  C211 4153   5.829   0.055   7.488 -0.5423 -0.7055  0.3288
   31SAPC  H11R 4154   5.935   0.042   7.463 -0.7797  1.3319 -1.8541
   31SAPC  C212 4155   5.789   0.084   7.610  0.2399  0.0151  0.1918
   31SAPC  H12R 4156   5.868   0.076   7.686  1.1439 -1.7623 -0.8932
   31SAPC  C213 4157   5.651   0.123   7.666 -0.1245 -0.1601  0.5345
   31SAPC  H13R 4158   5.607   0.039   7.724 -1.5294  0.6368  0.6593
   31SAPC  H13S 4159   5.574   0.142   7.587 -0.1681 -2.5018 -0.0072
   31SAPC  C214 4160   5.654   0.247   7.753  0.1993 -0.1351 -0.7499
   31SAPC  H14R 4161   5.736   0.248   7.826  0.2077  1.0861 -0.7691
   31SAPC  C215 4162   5.563   0.347   7.762 -0.7931 -0.6018  0.1017
   31SAPC  H15R 4163   5.579   0.436   7.825 -0.6729 -0.2314 -0.4515
   31SAPC  C216 4164   5.444   0.362   7.675 -0.4814  0.1392 -0.0553
   31SAPC  H16R 4165   5.386   0.447   7.717 -2.7241 -0.0714 -2.6053
   31SAPC  H16S 4166   5.380   0.272   7.685 -1.0197  0.7253  2.0621
   31SAPC  C217 4167   5.475   0.403   7.527 -0.0715 -0.3421  0.1058
   31SAPC  H17R 4168   5.494   0.313   7.464  2.6724  0.8401 -0.8578
   31SAPC  H17S 4169   5.565   0.468   7.517 -0.3051 -0.2778 -1.8956
   31SAPC  C218 4170   5.352   0.460   7.467 -0.0639  0.0352  0.5691
   31SAPC  H18R 4171   5.329   0.546   7.534 -2.0858  0.1585 -0.2647
   31SAPC  H18S 4172   5.270   0.386   7.471  0.7722 -0.8865  0.8633
   31SAPC  C219 4173   5.375   0.521   7.328  0.5048  0.5054  0.0030
   31SAPC  H19R 4174   5.443   0.608   7.341  3.2551 -1.4813 -0.4336
   31SAPC  H19S 4175   5.275   0.541   7.286  0.2210  0.0198  0.4358
   31SAPC  C220 4176   5.449   0.433   7.225  0.0659 -0.7461  0.5337
   31SAPC  H20R 4177   5.397   0.340   7.193 -1.7141 -0.0557  1.3401
   31SAPC  H20S 4178   5.557   0.418   7.245  0.0647 -0.0271  1.0712
   31SAPC  H20T 4179   5.439   0.482   7.126 -1.0214  1.2248  1.5849
   31SAPC   C33 4180   5.828   0.568   6.900  0.3668 -0.4552  0.6425
   31SAPC   H3X 4181   5.937   0.570   6.884  0.7736 -0.5917  3.2174
   31SAPC   H3Y 4182   5.795   0.462   6.905  0.1299 -0.4613 -0.7755
   31SAPC   C34 4183   5.812   0.651   7.026  0.5327  0.3310 -0.3108
   31SAPC   H4X 4184   5.706   0.641   7.058  0.6349 -1.6794 -0.5224
   31SAPC   H4Y 4185   5.839   0.757   7.010  1.4874  0.2405  0.6514
   31SAPC   C35 4186   5.904   0.590   7.135 -0.4246  0.8511 -0.3860
   31SAPC   H5X 4187   6.010   0.586   7.104 -0.2908  1.1561  0.0217
   31SAPC   H5Y 4188   5.880   0.482   7.143 -0.9875  0.6217 -4.2344
   31SAPC   C36 4189   5.893   0.651   7.271 -0.4468  0.7892  0.5751
   31SAPC   H6X 4190   5.905   0.761   7.254  1.3572  0.4238 -0.6477
   31SAPC   H6Y 4191   5.981   0.626   7.333  1.1514 -1.6499 -2.5368
   31SAPC   C37 4192   5.778   0.616   7.353  0.7806  0.1560  0.2035
   31SAPC   H7X 4193   5.768   0.507   7.368  1.6464  0.2566  1.6591
   31SAPC   H7Y 4194   5.688   0.642   7.294  0.3016 -0.7880  0.5177
   31SAPC   C38 4195   5.779   0.678   7.495 -0.2881  0.3631  0.5919
   31SAPC   H8X 4196   5.681   0.656   7.542 -0.8678  1.0960 -0.2681
   31SAPC   H8Y 4197   5.788   0.789   7.499  3.2767  0.2458 -1.9091
   31SAPC   C39 4198   5.890   0.618   7.583  0.4269 -0.4969  0.1670
   31SAPC   H9X 4199   5.976   0.687   7.565 -0.8961  1.0659 -0.2630
   31SAPC   H9Y 4200   5.921   0.519   7.542  5.0513  0.1540  1.7379
   31SAPC  C310 4201   5.854   0.605   7.730  0.4879  0.0065  0.7863
   31SAPC  H10X 4202   5.943   0.552   7.771  0.5296 -0.7762 -0.2838
   31SAPC  H10Y 4203   5.763   0.544   7.747  0.8251 -0.7510 -0.0313
   31SAPC  C311 4204   5.824   0.733   7.809  0.3428 -0.1388 -0.0420
   31SAPC  H11X 4205   5.760   0.800   7.748 -1.2907 -2.3511 -0.8223
   31SAPC  H11Y 4206   5.920   0.788   7.822  0.6544 -0.4662 -0.9078
   31SAPC  C312 4207   5.768   0.709   7.944  0.0639  0.4929 -0.3665
   31SAPC  H12X 4208   5.839   0.648   8.004  1.9551  1.8633 -1.1187
   31SAPC  H12Y 4209   5.675   0.650   7.940 -0.1232  0.7284  0.3255
   31SAPC  C313 4210   5.730   0.844   8.017  0.5698 -0.2216 -0.2697
   31SAPC  H13X 4211   5.681   0.815   8.112 -2.5060 -0.1308 -1.7339
   31SAPC  H13Y 4212   5.650   0.898   7.962  0.2837  0.5263  0.8678
   31SAPC  C314 4213   5.850   0.934   8.046 -0.2853  0.5584 -0.3554
   31SAPC  H14X 4214   5.904   0.965   7.954  2.4181  1.3460  1.4499
   31SAPC  H14Y 4215   5.927   0.871   8.096 -1.1389 -0.2104  0.0041
   31SAPC  C315 4216   5.797   1.048   8.123 -0.6729  0.1915 -0.1946
   31SAPC  H15X 4217   5.757   0.994   8.212 -0.6539 -1.0015 -0.9054
   31SAPC  H15Y 4218   5.716   1.097   8.065 -0.1020 -0.4238 -1.5272
   31SAPC  C316 4219   5.901   1.161   8.147 -0.2457 -0.0103  0.1117
   31SAPC  H16X 4220   5.849   1.241   8.204  0.0167 -1.0549  1.8514
   31SAPC  H16Y 4221   5.934   1.209   8.053  0.1300  0.6035  0.5488
   31SAPC  C317 4222   6.025   1.119   8.233 -0.2780 -0.2220  0.1772
   31SAPC  H17X 4223   6.098   1.053   8.183 -1.5053 -1.8948  0.5494
   31SAPC  H17Y 4224   6.003   1.078   8.333  0.8828 -3.2074 -0.7288
   31SAPC  C318 4225   6.115   1.239   8.268 -1.0260  0.2669 -0.5953
   31SAPC  H18X 4226   6.051   1.328   8.256 -1.5130 -0.1729 -1.2927
   31SAPC  H18Y 4227   6.198   1.239   8.194 -1.9600 -0.9053 -1.6574
   31SAPC  H18Z 4228   6.157   1.239   8.371  0.1925 -2.1018 -1.0474
   32SAPC     N 4229   0.304   1.163   5.957  0.0029  0.0251  0.2057
   32SAPC   C12 4230   0.416   1.153   6.064 -0.4354  0.6444 -0.5802
   32SAPC  H12A 4231   0.506   1.180   6.011  0.3936 -0.2288  0.3738
   32SAPC  H12B 4232   0.425   1.054   6.105  2.1377  1.1809  0.2230
   32SAPC   C13 4233   0.315   1.291   5.884  0.5268  0.3338 -0.9424
   32SAPC  H13A 4234   0.338   1.374   5.950 -0.6160 -1.9172  2.4024
   32SAPC  H13B 4235   0.391   1.289   5.807 -0.1765  1.8570 -1.7199
   32SAPC  H13C 4236   0.222   1.323   5.839 -0.3469 -0.4510  0.2912
   32SAPC   C14 4237   0.336   1.057   5.859  0.2535 -0.1129 -1.2302
   32SAPC  H14A 4238   0.259   1.033   5.787  0.7339 -0.6305 -1.5713
   32SAPC  H14B 4239   0.425   1.074   5.800  0.8105  1.0062 -0.0652
   32SAPC  H14C 4240   0.343   0.961   5.909  0.4546 -0.2310 -1.4824
   32SAPC   C15 4241   0.168   1.150   6.014  0.1138  0.2164  0.3721
   32SAPC  H15A 4242   0.091   1.146   5.938 -0.9090  1.0266  1.3507
   32SAPC  H15B 4243   0.159   1.058   6.070 -1.1881  0.1031  0.0012
   32SAPC  H15C 4244   0.136   1.229   6.079  0.2755 -0.9283  1.8581
   32SAPC   C11 4245   0.397   1.247   6.185  0.5853 -0.2082 -0.7984
   32SAPC  H11A 4246   0.476   1.219   6.258 -0.7581  0.3894  0.9009
   32SAPC  H11B 4247   0.299   1.231   6.234  0.7561 -1.1665 -0.7516
   32SAPC     P 4248   0.558   1.447   6.127  0.3282  0.3055 -0.1111
   32SAPC   O13 4249   0.648   1.330   6.128 -0.2346 -0.2131 -0.1388
   32SAPC   O14 4250   0.543   1.533   6.007 -0.4097 -0.4019 -0.2325
   32SAPC   O12 4251   0.411   1.389   6.153  0.7008 -0.5595  0.0761
   32SAPC   O11 4252   0.592   1.547   6.244 -0.1246  0.6433 -0.3947
   32SAPC    C1 4253   0.492   1.566   6.345  0.7895  0.1852 -0.0055
   32SAPC    HA 4254   0.473   1.674   6.356  0.1143  0.1326 -0.6551
   32SAPC    HB 4255   0.390   1.527   6.326  1.1134 -0.2303 -0.9328
   32SAPC    C2 4256   0.541   1.511   6.480 -0.2189 -0.3108 -0.0738
   32SAPC    HS 4257   0.634   1.565   6.508  0.9376 -1.7380 -1.0633
   32SAPC   O21 4258   0.550   1.373   6.469 -0.0212  0.0635 -0.1830
   32SAPC   C21 4259   0.664   1.324   6.514 -0.0408  0.2720 -0.8619
   32SAPC   O22 4260   0.753   1.384   6.570  0.0186 -0.3922 -0.5665
   32SAPC   C22 4261   0.661   1.171   6.484 -0.0025 -0.3651  0.1839
   32SAPC   H2R 4262   0.576   1.113   6.527  0.1292 -1.4444 -1.0029
   32SAPC   H2S 4263   0.665   1.166   6.373  1.1140  1.4116  0.1333
   32SAPC    C3 4264   0.435   1.532   6.589  0.4667 -0.2329 -0.3413
   32SAPC    HX 4265   0.342   1.483   6.552 -0.1531  0.7906 -0.1729
   32SAPC    HY 4266   0.420   1.642   6.602  0.6762 -0.4834  2.3236
   32SAPC   O31 4267   0.470   1.471   6.718  0.2388  0.5816  0.0336
   32SAPC   C31 4268   0.555   1.541   6.793 -0.7242  0.5037 -0.0279
   32SAPC   O32 4269   0.591   1.653   6.759  0.1809 -0.1627  0.0630
   32SAPC   C32 4270   0.594   1.460   6.914 -0.3916  0.2002 -0.0059
   32SAPC   H2X 4271   0.648   1.369   6.880 -0.0686  0.9559 -1.5682
   32SAPC   H2Y 4272   0.510   1.434   6.982  0.4292  0.6863  1.2180
   32SAPC   C23 4273   0.783   1.098   6.549 -0.9233  0.6044  0.3559
   32SAPC   H3R 4274   0.879   1.149   6.524 -1.9268  1.5703 -1.5611
   32SAPC   H3S 4275   0.788   0.993   6.514  0.9385  1.0034 -0.6326
   32SAPC   C24 4276   0.779   1.096   6.701 -0.1099  0.0651  0.2627
   32SAPC   H4R 4277   0.762   1.198   6.739 -2.4266  0.2725 -1.2364
   32SAPC   H4S 4278   0.884   1.080   6.732  0.0004  0.3470  0.0333
   32SAPC   C25 4279   0.691   0.993   6.772 -0.1546 -0.7114  0.1779
   32SAPC   H5R 4280   0.653   0.907   6.716 -1.6729 -0.2023  0.3758
   32SAPC   C26 4281   0.682   0.979   6.906  0.1433  0.7256 -0.4700
   32SAPC   H6R 4282   0.630   0.893   6.949  0.6174  0.1248 -1.0913
   32SAPC   C27 4283   0.757   1.066   7.001  0.2016 -0.2909 -0.5154
   32SAPC   H7R 4284   0.695   1.074   7.093  0.6762 -2.5687  0.0352
   32SAPC   H7S 4285   0.763   1.168   6.957 -1.8954 -0.0751 -0.3657
   32SAPC   C28 4286   0.903   1.015   7.027 -0.1658 -0.4967 -0.2007
   32SAPC   H8R 4287   0.963   1.006   6.935 -0.2769 -1.7518 -0.1625
   32SAPC   C29 4288   0.948   0.971   7.147 -0.2936 -0.8118  1.0398
   32SAPC   H9R 4289   1.049   0.929   7.155 -0.5139 -1.0766  2.6170
   32SAPC  C210 4290   0.867   0.961   7.278 -0.7504  0.1361  0.4619
   32SAPC  H10R 4291   0.767   1.007   7.262 -0.8278 -0.3321 -0.4441
   32SAPC  H10S 4292   0.916   1.032   7.348  0.2103  0.3972 -0.4495
   32SAPC  C211 4293   0.846   0.826   7.341 -0.0670 -0.1856  0.3489
   32SAPC  H11R 4294   0.803   0.745   7.280  1.2759 -1.8293  1.5209
   32SAPC  C212 4295   0.879   0.787   7.467  0.3698  0.1949 -0.3237
   32SAPC  H12R 4296   0.860   0.682   7.495  0.3778  0.6051  1.2935
   32SAPC  C213 4297   0.950   0.862   7.575  0.1707 -0.5411 -0.0321
   32SAPC  H13R 4298   0.898   0.841   7.671 -0.7610 -0.7212 -0.5759
   32SAPC  H13S 4299   0.961   0.969   7.548 -2.4948 -0.1026  0.4551
   32SAPC  C214 4300   1.092   0.804   7.576 -0.4371  0.4474  0.8205
   32SAPC  H14R 4301   1.136   0.786   7.477  0.4204  2.2073  0.8652
   32SAPC  C215 4302   1.176   0.793   7.681  0.0197  0.5607 -0.7503
   32SAPC  H15R 4303   1.280   0.768   7.654  0.4275 -0.6325  1.7879
   32SAPC  C216 4304   1.136   0.839   7.821  0.2026  0.2313 -0.3538
   32SAPC  H16R 4305   1.026   0.833   7.830  0.4736 -1.7132  2.1913
   32SAPC  H16S 4306   1.162   0.947   7.816 -2.0284  0.8149  0.2809
   32SAPC  C217 4307   1.215   0.772   7.940  0.5943  0.5020  0.8753
   32SAPC  H17R 4308   1.188   0.828   8.032 -0.2228 -1.5294  1.8971
   32SAPC  H17S 4309   1.324   0.784   7.920  0.1063  0.2595 -2.1520
   32SAPC  C218 4310   1.191   0.626   7.966  0.3120 -0.2987 -0.2364
   32SAPC  H18R 4311   1.214   0.568   7.874  0.5874 -0.6267  0.0365
   32SAPC  H18S 4312   1.087   0.606   7.999  0.3141  2.7024  1.7797
   32SAPC  C219 4313   1.279   0.570   8.079 -0.5336  0.0314  0.8218
   32SAPC  H19R 4314   1.385   0.566   8.046 -1.0620 -0.6270 -0.8672
   32SAPC  H19S 4315   1.247   0.464   8.091  0.0804 -0.0827  1.4987
   32SAPC  C220 4316   1.253   0.632   8.214  0.4952 -0.0220  0.9571
   32SAPC  H20R 4317   1.289   0.737   8.212  3.3699 -0.9582 -0.1046
   32SAPC  H20S 4318   1.318   0.590   8.294  0.6479  0.6173  1.1693
   32SAPC  H20T 4319   1.148   0.635   8.248  0.5292 -0.0556  1.0642
   32SAPC   C33 4320   0.701   1.529   7.010 -0.2679  0.4311  0.4957
   32SAPC   H3X 4321   0.659   1.628   7.036 -1.8073 -0.3764  1.1916
   32SAPC   H3Y 4322   0.794   1.542   6.951  0.9088 -0.2264  2.1727
   32SAPC   C34 4323   0.736   1.442   7.135  0.1168  0.3214 -0.2553
   32SAPC   H4X 4324   0.820   1.490   7.189 -0.3382  2.1406 -1.1301
   32SAPC   H4Y 4325   0.776   1.346   7.095  0.7163  1.1920 -1.7909
   32SAPC   C35 4326   0.631   1.408   7.234  0.4388  0.0255 -0.5766
   32SAPC   H5X 4327   0.540   1.369   7.184  0.6575 -1.5738  0.2624
   32SAPC   H5Y 4328   0.609   1.506   7.283 -0.3500  0.3839 -1.6454
   32SAPC   C36 4329   0.692   1.317   7.345 -0.5799  0.0672 -0.5248
   32SAPC   H6X 4330   0.748   1.236   7.293  1.5446  1.4288 -0.4065
   32SAPC   H6Y 4331   0.613   1.261   7.400  0.0198 -1.4289 -1.1450
   32SAPC   C37 4332   0.780   1.397   7.440 -0.1864  0.1414  0.8335
   32SAPC   H7X 4333   0.720   1.487   7.462 -0.5860  0.6151 -2.0284
   32SAPC   H7Y 4334   0.878   1.420   7.393 -0.8931  0.7139 -0.3695
   32SAPC   C38 4335   0.793   1.324   7.575  0.3259  0.0124  0.1227
   32SAPC   H8X 4336   0.858   1.239   7.546 -0.1919  0.2284 -1.7536
   32SAPC   H8Y 4337   0.702   1.269   7.607  1.4581 -1.6099  0.6182
   32SAPC   C39 4338   0.868   1.403   7.686 -0.6821  0.5152 -0.2108
   32SAPC   H9X 4339   0.813   1.494   7.717  0.3937  1.5408 -1.2347
   32SAPC   H9Y 4340   0.965   1.446   7.651  0.4680 -1.7971  0.0331
   32SAPC  C310 4341   0.890   1.317   7.810  0.2497  0.3186  0.1910
   32SAPC  H10X 4342   0.913   1.216   7.769 -1.7582 -0.7373  1.6198
   32SAPC  H10Y 4343   0.804   1.319   7.880  1.6041  1.2051  1.8764
   32SAPC  C311 4344   1.011   1.363   7.892 -0.6860 -0.1415  0.0216
   32SAPC  H11X 4345   0.985   1.432   7.976 -0.6106  0.1957 -0.2314
   32SAPC  H11Y 4346   1.091   1.408   7.829 -0.5875 -3.1763 -2.0777
   32SAPC  C312 4347   1.089   1.242   7.954 -0.4362 -0.3326 -0.0303
   32SAPC  H12X 4348   1.125   1.167   7.880 -0.4814  0.5004 -0.8947
   32SAPC  H12Y 4349   1.020   1.189   8.024 -1.4582  0.3690 -0.5046
   32SAPC  C313 4350   1.217   1.282   8.028 -0.1998 -0.4301  0.5265
   32SAPC  H13X 4351   1.197   1.370   8.094  0.8147 -2.3576  3.5143
   32SAPC  H13Y 4352   1.302   1.319   7.966 -0.7231  1.4312  0.8915
   32SAPC  C314 4353   1.282   1.168   8.104 -0.0547  0.7545  0.5157
   32SAPC  H14X 4354   1.302   1.082   8.037 -2.2505 -0.2674  1.1250
   32SAPC  H14Y 4355   1.209   1.125   8.176  1.8443 -0.7075  1.6032
   32SAPC  C315 4356   1.414   1.210   8.170 -0.3017  0.6085 -0.3345
   32SAPC  H15X 4357   1.399   1.250   8.273  1.8572  1.2691 -0.2560
   32SAPC  H15Y 4358   1.462   1.296   8.119 -2.5663  1.7873 -0.5538
   32SAPC  C316 4359   1.523   1.093   8.171  0.8237 -0.4047  0.1253
   32SAPC  H16X 4360   1.538   1.070   8.064 -1.7692  0.4651 -0.4573
   32SAPC  H16Y 4361   1.466   1.005   8.209  1.0623 -1.1096 -1.1360
   32SAPC  C317 4362   1.649   1.122   8.238 -0.4800 -0.0350  0.3275
   32SAPC  H17X 4363   1.644   1.136   8.349  1.1587  0.1462  0.3934
   32SAPC  H17Y 4364   1.695   1.208   8.185 -0.5591 -0.7645 -0.9286
   32SAPC  C318 4365   1.750   1.006   8.221 -0.6837 -0.0003  0.2048
   32SAPC  H18X 4366   1.748   0.971   8.116  1.8551  2.5360 -0.7558
   32SAPC  H18Y 4367   1.729   0.917   8.285  1.3236  0.4167  1.4985
   32SAPC  H18Z 4368   1.857   1.030   8.243 -0.8783  0.2216  0.9249
   33POPC     N 4369   4.841   1.704  10.782  0.0568 -0.0316 -0.0986
   33POPC   C12 4370   4.782   1.669  10.647  1.0120  0.0398 -0.3424
   33POPC  H12A 4371   4.821   1.737  10.573  0.8484 -0.4629 -0.8898
   33POPC  H12B 4372   4.676   1.691  10.654  1.6962  3.2720  0.9118
   33POPC   C13 4373   4.819   1.854  10.800 -0.3175  0.1937 -0.2725
   33POPC  H13A 4374   4.856   1.917  10.721  0.0524  1.4441  0.8718
   33POPC  H13B 4375   4.713   1.870  10.816 -0.7137 -2.2653 -0.1832
   33POPC  H13C 4376   4.869   1.894  10.888 -1.5746  1.1449  0.0236
   33POPC   C14 4377   4.770   1.640  10.895 -0.1739  0.0510  0.6259
   33POPC  H14A 4378   4.666   1.668  10.897 -0.1453  0.0993  2.0989
   33POPC  H14B 4379   4.789   1.534  10.888 -0.1697  0.1993 -2.1722
   33POPC  H14C 4380   4.810   1.666  10.992  1.9188 -0.0163 -0.1996
   33POPC   C15 4381   4.986   1.679  10.789  0.2134 -0.3411 -0.8953
   33POPC  H15A 4382   5.044   1.690  10.698  3.5809 -2.7321  0.8578
   33POPC  H15B 4383   5.012   1.579  10.819  0.5808 -0.4156 -1.4597
   33POPC  H15C 4384   5.034   1.733  10.870  0.9915  1.4338 -2.4888
   33POPC   C11 4385   4.815   1.523  10.596 -0.2078 -0.3528  0.1828
   33POPC  H11A 4386   4.925   1.512  10.583 -0.4088 -2.1203 -0.2251
   33POPC  H11B 4387   4.776   1.509  10.493  0.4946  1.5572 -0.3616
   33POPC     P 4388   4.658   1.319  10.653 -0.1636  0.0467  0.1124
   33POPC   O13 4389   4.529   1.382  10.679  0.1452 -0.1077  0.2637
   33POPC   O14 4390   4.685   1.190  10.728  0.3789 -0.1556  0.0511
   33POPC   O12 4391   4.774   1.418  10.680 -0.1811 -0.5414 -0.4748
   33POPC   O11 4392   4.681   1.301  10.495  0.4961 -0.0473  0.0005
   33POPC    C1 4393   4.599   1.214  10.413  0.0576 -0.2527  0.6795
   33POPC    HA 4394   4.656   1.125  10.377 -0.5927 -1.0467  1.5940
   33POPC    HB 4395   4.503   1.175  10.453 -1.1952  1.4551 -0.5966
   33POPC    C2 4396   4.551   1.300  10.285 -0.0249 -0.7732 -0.2333
   33POPC    HS 4397   4.516   1.234  10.202  0.8781 -0.1058 -1.1647
   33POPC   O21 4398   4.651   1.387  10.243 -0.4585 -0.0430  0.0092
   33POPC   C21 4399   4.760   1.322  10.203  0.6513  0.3902  0.0775
   33POPC   O22 4400   4.752   1.206  10.167 -1.2061  0.5464  0.7434
   33POPC   C22 4401   4.884   1.418  10.188 -0.4159  0.0859  0.4662
   33POPC   H2R 4402   4.923   1.434  10.291  2.1458  0.6423 -0.5693
   33POPC   H2S 4403   4.859   1.520  10.152  1.2037  0.2720 -0.1562
   33POPC    C3 4404   4.425   1.382  10.309  0.1806  0.1534 -0.0510
   33POPC    HX 4405   4.446   1.441  10.401  0.5465  2.9077 -1.8510
   33POPC    HY 4406   4.335   1.316  10.313 -0.4619  0.8999 -1.9586
   33POPC   O31 4407   4.406   1.478  10.202 -0.0165  0.2276  0.3851
   33POPC   C31 4408   4.359   1.430  10.087  0.4539 -0.5225 -0.6597
   33POPC   O32 4409   4.323   1.314  10.064  0.3024 -0.6343 -0.1687
   33POPC   C32 4410   4.340   1.550   9.991  0.3979 -0.2208 -0.4721
   33POPC   H2X 4411   4.375   1.641  10.044 -2.5144  0.0251  1.2055
   33POPC   H2Y 4412   4.233   1.562   9.962  0.0465  0.6423  1.1314
   33POPC   C23 4413   4.985   1.363  10.084  0.0915  0.1453 -0.3845
   33POPC   H3R 4414   5.011   1.256  10.099  1.8058  0.5267 -0.5209
   33POPC   H3S 4415   5.085   1.411  10.077 -0.3299  1.0399 -0.4269
   33POPC   C24 4416   4.925   1.398   9.944  0.2110 -0.4047 -0.0276
   33POPC   H4R 4417   4.878   1.497   9.933 -0.1355 -0.6718 -1.0591
   33POPC   H4S 4418   4.845   1.329   9.910 -0.0361  0.9633 -2.2949
   33POPC   C25 4419   5.029   1.380   9.842  0.0101 -0.4705 -0.0643
   33POPC   H5R 4420   5.052   1.271   9.844 -0.9137 -0.6840 -0.6123
   33POPC   H5S 4421   5.125   1.429   9.868 -0.3475  0.0793  0.2246
   33POPC   C26 4422   4.994   1.408   9.696 -0.1764  0.1217  0.2730
   33POPC   H6R 4423   4.966   1.515   9.691  1.6814  0.5730 -0.6830
   33POPC   H6S 4424   4.911   1.340   9.667 -1.5724  1.8525  0.1439
   33POPC   C27 4425   5.121   1.391   9.603 -0.2477 -0.2763 -0.7342
   33POPC   H7R 4426   5.157   1.287   9.621 -2.2916 -0.9725 -0.5033
   33POPC   H7S 4427   5.205   1.459   9.627  1.0408 -2.3655  0.8971
   33POPC   C28 4428   5.070   1.395   9.453  0.5288  0.2108  0.1537
   33POPC   H8R 4429   4.985   1.323   9.448  0.2264  0.4535  1.4805
   33POPC   H8S 4430   5.156   1.354   9.397  1.0090  1.9244 -0.3867
   33POPC   C29 4431   5.031   1.536   9.411 -1.1330 -0.8873 -0.0975
   33POPC   H91 4432   5.034   1.613   9.490 -1.5434 -1.0711  0.1019
   33POPC  C210 4433   5.006   1.563   9.280 -0.3722  0.2077 -0.4937
   33POPC  H101 4434   4.990   1.668   9.250 -0.5215  0.4904  0.5345
   33POPC  C211 4435   5.015   1.454   9.174  0.4475  0.4241  0.5464
   33POPC  H11R 4436   4.987   1.352   9.206  1.6707 -0.8431 -2.2177
   33POPC  H11S 4437   5.118   1.451   9.131  1.0122  0.7482  1.8413
   33POPC  C212 4438   4.927   1.480   9.051 -0.0937  0.0750  0.6135
   33POPC  H12R 4439   4.959   1.575   9.002 -1.0915 -0.6201 -1.4605
   33POPC  H12S 4440   4.819   1.489   9.074 -0.4699  0.5123 -1.2586
   33POPC  C213 4441   4.944   1.373   8.948 -0.0169 -0.2191  0.2830
   33POPC  H13R 4442   5.050   1.340   8.948 -0.6316 -2.2832  0.2297
   33POPC  H13S 4443   4.925   1.412   8.846 -2.3398 -1.4979  0.2020
   33POPC  C214 4444   4.841   1.261   8.971  0.0970 -1.1599 -0.4526
   33POPC  H14R 4445   4.743   1.313   8.962  1.2836  1.0238 -1.0589
   33POPC  H14S 4446   4.843   1.210   9.070 -1.5308 -1.0391 -0.3387
   33POPC  C215 4447   4.832   1.158   8.855 -0.1728 -0.0627  0.3366
   33POPC  H15R 4448   4.876   1.068   8.902 -1.9941 -2.3862 -2.1950
   33POPC  H15S 4449   4.890   1.194   8.767  1.2485  1.6372  1.9220
   33POPC  C216 4450   4.691   1.117   8.807 -0.4066 -0.8319  0.5401
   33POPC  H16R 4451   4.640   1.212   8.783  0.5996 -0.9361 -2.1831
   33POPC  H16S 4452   4.635   1.083   8.897  0.6600 -0.8540  1.2044
   33POPC  C217 4453   4.683   1.003   8.703  0.1010  0.4484  0.3510
   33POPC  H17R 4454   4.729   1.031   8.606 -1.4202 -0.4234 -0.6455
   33POPC  H17S 4455   4.575   0.988   8.681 -0.6460  3.0636  1.9766
   33POPC  C218 4456   4.740   0.869   8.746  0.5025  0.1923  0.2013
   33POPC  H18R 4457   4.685   0.827   8.833  0.7683 -2.8248 -1.0280
   33POPC  H18S 4458   4.850   0.860   8.750  0.4872 -1.2205 -1.7068
   33POPC  H18T 4459   4.715   0.799   8.663  0.5179  1.0514 -0.5440
   33POPC   C33 4460   4.425   1.517   9.869  0.3615  0.1112 -0.1644
   33POPC   H3X 4461   4.389   1.586   9.790  0.3276  0.6181  0.2902
   33POPC   H3Y 4462   4.422   1.411   9.834  1.7476  0.0301 -0.0543
   33POPC   C34 4463   4.574   1.559   9.887 -0.2747 -0.0335 -0.5313
   33POPC   H4X 4464   4.638   1.470   9.904  1.5802  0.6091 -3.8112
   33POPC   H4Y 4465   4.584   1.631   9.971 -1.1663  0.4935 -0.8695
   33POPC   C35 4466   4.644   1.617   9.762 -0.2071 -0.0548  0.1672
   33POPC   H5X 4467   4.746   1.651   9.793  0.0834 -1.2288  0.5238
   33POPC   H5Y 4468   4.584   1.709   9.743  1.2415  0.9939  0.5406
   33POPC   C36 4469   4.634   1.537   9.632 -0.4222 -0.7956  0.2726
   33POPC   H6X 4470   4.527   1.507   9.635 -0.9176  0.8954 -0.0546
   33POPC   H6Y 4471   4.703   1.451   9.620  0.1902 -0.2892  0.1308
   33POPC   C37 4472   4.664   1.617   9.506 -0.4161  0.4457  0.4353
   33POPC   H7X 4473   4.773   1.640   9.515 -0.4900  0.6716  0.7613
   33POPC   H7Y 4474   4.605   1.710   9.518 -1.5204 -0.0292 -1.1915
   33POPC   C38 4475   4.629   1.546   9.379 -0.3918  0.3500  0.1362
   33POPC   H8X 4476   4.521   1.521   9.388  0.2886 -1.9620  2.5512
   33POPC   H8Y 4477   4.693   1.458   9.354 -0.2374  0.0814  1.4140
   33POPC   C39 4478   4.636   1.645   9.264  0.4748  0.2739 -0.4566
   33POPC   H9X 4479   4.735   1.687   9.236  0.2462  0.3536 -1.1622
   33POPC   H9Y 4480   4.575   1.733   9.292  1.9869  1.5947 -1.2932
   33POPC  C310 4481   4.568   1.595   9.138  0.6683 -0.6934  0.2901
   33POPC  H10X 4482   4.460   1.581   9.161 -0.2736  3.4531 -1.2543
   33POPC  H10Y 4483   4.601   1.493   9.108  0.0619 -1.0921  0.9628
   33POPC  C311 4484   4.582   1.697   9.018  0.9869 -0.2641  0.6394
   33POPC  H11X 4485   4.689   1.724   9.031  1.3045 -1.1816  0.0417
   33POPC  H11Y 4486   4.516   1.784   9.037  1.1845  0.6679 -2.7436
   33POPC  C312 4487   4.548   1.631   8.882  0.0495 -0.1270 -0.2464
   33POPC  H12X 4488   4.438   1.631   8.864  0.3223 -1.5460 -2.1119
   33POPC  H12Y 4489   4.577   1.524   8.875  1.1029  0.3507 -5.7089
   33POPC  C313 4490   4.615   1.700   8.754  0.0813  0.0510 -0.2077
   33POPC  H13X 4491   4.604   1.810   8.744 -0.5943  0.1553  1.4544
   33POPC  H13Y 4492   4.576   1.650   8.663  1.8301  0.2435 -1.0757
   33POPC  C314 4493   4.769   1.681   8.763 -0.4357  0.5132  0.2460
   33POPC  H14X 4494   4.796   1.573   8.755 -2.5850 -0.0613  0.5090
   33POPC  H14Y 4495   4.804   1.720   8.861  1.3364 -0.5086  0.0504
   33POPC  C315 4496   4.837   1.737   8.640 -0.3264 -0.5032  0.3518
   33POPC  H15X 4497   4.803   1.676   8.554  0.1653 -0.3580  0.0598
   33POPC  H15Y 4498   4.946   1.719   8.642  0.2543  2.4034 -2.2680
   33POPC  C316 4499   4.812   1.889   8.608  0.6328  0.1913  0.1632
   33POPC  H16X 4500   4.704   1.908   8.591  0.1314 -1.7011  1.0547
   33POPC  H16Y 4501   4.876   1.918   8.522 -1.7847  3.8001 -0.5145
   33POPC  H16Z 4502   4.838   1.946   8.699 -0.2131 -0.2825  0.7076
   34POPC     N 4503   4.195   2.283  10.685  0.5440 -0.7547  0.6899
   34POPC   C12 4504   4.092   2.180  10.644 -0.5589 -0.4561 -0.5174
   34POPC  H12A 4505   4.137   2.091  10.601  0.2579 -0.4899  0.3826
   34POPC  H12B 4506   4.033   2.220  10.563  0.8699  2.6112 -0.1077
   34POPC   C13 4507   4.269   2.338  10.561  0.0245 -0.1069 -0.4498
   34POPC  H13A 4508   4.333   2.424  10.576  0.9920 -0.6020 -1.6735
   34POPC  H13B 4509   4.312   2.261  10.499  0.1405 -1.1911  0.9545
   34POPC  H13C 4510   4.189   2.370  10.496 -0.8975  1.0691  1.2188
   34POPC   C14 4511   4.134   2.394  10.755 -0.0133  0.4064 -0.3502
   34POPC  H14A 4512   4.097   2.363  10.852 -3.0411  0.8356 -1.3295
   34POPC  H14B 4513   4.190   2.486  10.759 -1.0290  1.0999 -1.6928
   34POPC  H14C 4514   4.041   2.422  10.709 -1.1920  0.9780  2.2857
   34POPC   C15 4515   4.301   2.206  10.762 -0.6220  0.1025  0.3900
   34POPC  H15A 4516   4.341   2.137  10.689  2.0244  3.1134 -1.1187
   34POPC  H15B 4517   4.262   2.144  10.842  0.0971 -1.6195 -0.5654
   34POPC  H15C 4518   4.379   2.273  10.793  0.2238  0.4982 -2.4641
   34POPC   C11 4519   3.993   2.136  10.749 -0.1922  0.3545  0.0989
   34POPC  H11A 4520   3.916   2.079  10.693 -0.5890  1.8875 -0.9248
   34POPC  H11B 4521   3.945   2.229  10.787  0.1638 -0.0478  1.5975
   34POPC     P 4522   4.077   1.897  10.855  0.1542  0.0447 -0.1217
   34POPC   O13 4523   4.015   1.832  10.977 -0.9144  0.5258 -0.3303
   34POPC   O14 4524   4.221   1.885  10.847  0.1430  0.2393 -0.0511
   34POPC   O12 4525   4.046   2.052  10.857  0.3297 -0.3877  0.4838
   34POPC   O11 4526   4.012   1.850  10.712  0.5976  0.5683  0.1808
   34POPC    C1 4527   4.079   1.750  10.637 -0.7228  0.5846  0.4025
   34POPC    HA 4528   4.043   1.651  10.671 -0.5889  0.5397  0.4130
   34POPC    HB 4529   4.189   1.739  10.653 -0.6190 -0.9094 -1.1783
   34POPC    C2 4530   4.047   1.755  10.482  0.6698 -0.6713 -0.1604
   34POPC    HS 4531   4.109   1.829  10.427  1.6355 -0.7199  0.8370
   34POPC   O21 4532   3.913   1.786  10.465 -0.1483  0.3066  0.2171
   34POPC   C21 4533   3.882   1.912  10.444 -0.4189 -0.2023 -0.7803
   34POPC   O22 4534   3.961   2.006  10.472 -0.1829 -0.1564 -0.1658
   34POPC   C22 4535   3.746   1.918  10.380 -0.0588  0.0985 -0.0918
   34POPC   H2R 4536   3.678   1.955  10.460 -1.7939 -1.2896 -0.8872
   34POPC   H2S 4537   3.710   1.816  10.353 -1.0987  0.2180  0.8131
   34POPC    C3 4538   4.081   1.619  10.405  0.2785 -0.4883 -0.2013
   34POPC    HX 4539   4.013   1.542  10.447  1.0173  0.5952  3.1341
   34POPC    HY 4540   4.183   1.593  10.442  1.0640  1.7033 -0.7373
   34POPC   O31 4541   4.067   1.645  10.271  0.7500  0.0016  0.0457
   34POPC   C31 4542   4.045   1.550  10.185  0.0107  0.0836  0.3942
   34POPC   O32 4543   4.064   1.429  10.196  0.0501  0.6823 -0.5317
   34POPC   C32 4544   4.003   1.617  10.056  0.2070 -0.5632 -0.2817
   34POPC   H2X 4545   4.075   1.691  10.015 -1.5364  2.8175  2.5717
   34POPC   H2Y 4546   3.911   1.673  10.080 -1.3219 -2.7262 -0.9463
   34POPC   C23 4547   3.733   2.021  10.265 -0.0754  0.0554  0.1596
   34POPC   H3R 4548   3.773   2.120  10.294  0.2962  0.0953 -0.4816
   34POPC   H3S 4549   3.628   2.047  10.238 -0.7230  2.1218  4.2392
   34POPC   C24 4550   3.805   1.974  10.137  0.0591  0.7021 -1.1062
   34POPC   H4R 4551   3.772   1.870  10.117 -1.6940  1.2016 -0.8354
   34POPC   H4S 4552   3.916   1.974  10.149  0.2638 -0.7406 -2.7767
   34POPC   C25 4553   3.766   2.056  10.015 -0.4712  0.1058  0.1329
   34POPC   H5R 4554   3.790   2.161  10.039 -3.0960  0.8220 -0.1980
   34POPC   H5S 4555   3.657   2.042   9.996 -0.1553 -2.7547  0.1889
   34POPC   C26 4556   3.844   2.022   9.889  0.3565 -0.4438  0.0397
   34POPC   H6R 4557   3.842   2.105   9.815  2.1030 -1.5045 -1.2508
   34POPC   H6S 4558   3.801   1.933   9.839 -1.8414  0.8284 -0.4071
   34POPC   C27 4559   3.999   1.996   9.916  0.2215 -0.4373 -0.4971
   34POPC   H7R 4560   4.008   1.892   9.955  0.8604  0.0122  0.5896
   34POPC   H7S 4561   4.042   2.074   9.982  2.0618 -1.1921 -0.7866
   34POPC   C28 4562   4.070   1.996   9.775 -0.5053  0.9837  0.2489
   34POPC   H8R 4563   4.045   2.086   9.714 -1.5842 -0.1365 -1.0101
   34POPC   H8S 4564   4.038   1.902   9.725  1.4656 -0.0425  0.8490
   34POPC   C29 4565   4.225   1.983   9.801  0.2797  0.4972  1.0072
   34POPC   H91 4566   4.254   2.066   9.867 -1.2024  1.4422  0.4813
   34POPC  C210 4567   4.320   1.910   9.745 -0.0101  0.1551 -0.0397
   34POPC  H101 4568   4.424   1.934   9.769  0.4001  1.1601 -2.6239
   34POPC  C211 4569   4.299   1.814   9.632  1.1288 -0.3677 -0.2522
   34POPC  H11R 4570   4.216   1.748   9.664  1.8080 -1.4100 -0.6102
   34POPC  H11S 4571   4.382   1.739   9.638  0.7348 -0.7985 -0.1596
   34POPC  C212 4572   4.282   1.857   9.485 -0.9017 -0.2698 -0.4846
   34POPC  H12R 4573   4.376   1.908   9.456 -0.8874 -0.2565 -0.4144
   34POPC  H12S 4574   4.207   1.937   9.470 -1.3609 -0.6865 -0.4414
   34POPC  C213 4575   4.260   1.733   9.391 -0.7291  0.0476 -0.6157
   34POPC  H13R 4576   4.181   1.664   9.428  0.5466 -2.1190 -1.8443
   34POPC  H13S 4577   4.356   1.677   9.395 -0.3898  0.6954  1.6329
   34POPC  C214 4578   4.236   1.779   9.250 -0.0420 -0.6345 -0.1256
   34POPC  H14R 4579   4.266   1.694   9.185  1.6956 -0.5479  0.5339
   34POPC  H14S 4580   4.304   1.864   9.231 -2.3640  0.9126 -1.7194
   34POPC  C215 4581   4.092   1.813   9.218 -0.3618  0.5267  0.7392
   34POPC  H15R 4582   4.069   1.913   9.260  0.6089  0.3106  1.8267
   34POPC  H15S 4583   4.022   1.741   9.267  0.0251 -0.5528 -0.2705
   34POPC  C216 4584   4.073   1.817   9.072  0.3597  0.1489 -0.0247
   34POPC  H16R 4585   3.970   1.857   9.054  0.4726  1.0526  1.2716
   34POPC  H16S 4586   4.074   1.718   9.021 -0.5690 -0.4748  1.1533
   34POPC  C217 4587   4.177   1.892   8.990 -0.1635 -0.5130  0.1181
   34POPC  H17R 4588   4.277   1.846   9.012  0.6038  0.5439 -1.1295
   34POPC  H17S 4589   4.189   1.997   9.024  2.6112  0.3292 -3.1899
   34POPC  C218 4590   4.154   1.888   8.841  0.3015  0.2784 -0.1321
   34POPC  H18R 4591   4.246   1.904   8.781  0.5988 -1.7100 -0.2368
   34POPC  H18S 4592   4.079   1.962   8.807 -1.5548 -0.9604  1.1848
   34POPC  H18T 4593   4.104   1.793   8.815  0.2638  0.7403 -1.8035
   34POPC   C33 4594   3.973   1.523   9.932  0.3012  0.2270 -0.9405
   34POPC   H3X 4595   3.888   1.456   9.959  1.0997  0.7776  3.3081
   34POPC   H3Y 4596   4.064   1.462   9.917  0.2812 -0.5678  1.9196
   34POPC   C34 4597   3.924   1.590   9.796  0.3263 -0.8534 -0.1356
   34POPC   H4X 4598   4.015   1.625   9.745  0.3724 -0.0705  0.4852
   34POPC   H4Y 4599   3.855   1.674   9.820  1.9036  1.6673 -4.0607
   34POPC   C35 4600   3.831   1.499   9.709 -0.7465 -0.9917 -0.1648
   34POPC   H5X 4601   3.737   1.472   9.761 -0.9302 -0.2545 -0.1086
   34POPC   H5Y 4602   3.883   1.403   9.688  2.4651  0.8063 -0.9187
   34POPC   C36 4603   3.792   1.577   9.581 -0.5112  0.0047  0.5510
   34POPC   H6X 4604   3.885   1.586   9.521  1.4379 -0.8947  3.3289
   34POPC   H6Y 4605   3.760   1.682   9.595  2.6217  1.2587 -1.1599
   34POPC   C37 4606   3.683   1.512   9.493 -0.5404 -0.1335 -0.3337
   34POPC   H7X 4607   3.587   1.512   9.549 -0.0569 -0.3105  0.5113
   34POPC   H7Y 4608   3.700   1.403   9.490 -2.3961 -0.5609  2.7733
   34POPC   C38 4609   3.680   1.574   9.352  0.5451 -0.7224  0.1729
   34POPC   H8X 4610   3.597   1.524   9.298 -0.4669 -1.5708  2.4230
   34POPC   H8Y 4611   3.774   1.545   9.301  0.7218  0.7014 -0.3210
   34POPC   C39 4612   3.667   1.729   9.338  0.8213 -0.8546  0.0367
   34POPC   H9X 4613   3.747   1.778   9.397 -0.5776 -1.4500  2.4842
   34POPC   H9Y 4614   3.566   1.761   9.372  0.1431 -1.8000 -1.0288
   34POPC  C310 4615   3.682   1.758   9.191 -0.4035 -0.0510  0.3691
   34POPC  H10X 4616   3.605   1.699   9.137  1.0003 -1.2486 -0.3683
   34POPC  H10Y 4617   3.782   1.729   9.152 -0.9425  0.2493 -1.3049
   34POPC  C311 4618   3.655   1.909   9.161 -0.3542  0.2598 -0.6276
   34POPC  H11X 4619   3.728   1.977   9.208  1.2901  0.2029 -3.0003
   34POPC  H11Y 4620   3.562   1.935   9.216 -0.1707  2.6852 -1.3967
   34POPC  C312 4621   3.641   1.935   9.007  0.0025 -0.0054  0.2352
   34POPC  H12X 4622   3.534   1.924   8.978  0.2420  0.1345 -0.6952
   34POPC  H12Y 4623   3.693   1.848   8.961 -1.5753 -0.0481 -1.5060
   34POPC  C313 4624   3.701   2.071   8.969 -0.1130  0.7761 -0.2702
   34POPC  H13X 4625   3.802   2.071   9.015  0.1765 -1.1543 -0.8320
   34POPC  H13Y 4626   3.644   2.152   9.019 -0.8951 -1.1180  1.9664
   34POPC  C314 4627   3.702   2.082   8.813  0.0394  0.2159 -0.9037
   34POPC  H14X 4628   3.734   1.987   8.766  1.2606  0.4819 -0.6115
   34POPC  H14Y 4629   3.784   2.155   8.797  0.0502  0.5889  0.7409
   34POPC  C315 4630   3.558   2.131   8.774 -0.5527 -0.0357  0.3953
   34POPC  H15X 4631   3.495   2.047   8.812  1.2613 -1.8254 -0.4199
   34POPC  H15Y 4632   3.554   2.139   8.663  1.0543  1.8437  0.4648
   34POPC  C316 4633   3.506   2.261   8.829 -0.2044 -0.0814  0.3919
   34POPC  H16X 4634   3.497   2.251   8.940 -1.3608 -0.9891  0.2253
   34POPC  H16Y 4635   3.403   2.283   8.795  0.8938  1.7289 -1.8789
   34POPC  H16Z 4636   3.586   2.338   8.819 -0.5379  0.0796 -1.0046
   35POPC     N 4637   2.773   6.053  11.111  0.0138  0.0668  0.0336
   35POPC   C12 4638   2.906   6.060  11.186  0.1597  0.5459  0.7747
   35POPC  H12A 4639   2.927   5.966  11.236  1.2533 -0.1920 -1.0026
   35POPC  H12B 4640   2.880   6.131  11.263 -0.4483  0.8771  0.2636
   35POPC   C13 4641   2.670   5.971  11.179  0.8912  0.8755  0.1849
   35POPC  H13A 4642   2.659   5.986  11.285 -2.4546  0.8389 -0.0936
   35POPC  H13B 4643   2.574   6.003  11.141  0.3976 -0.8348 -0.0791
   35POPC  H13C 4644   2.689   5.871  11.142 -0.7841  0.9017 -0.8371
   35POPC   C14 4645   2.723   6.194  11.098 -1.1059  0.0731 -0.5961
   35POPC  H14A 4646   2.802   6.254  11.056 -1.1420 -0.8971 -2.0837
   35POPC  H14B 4647   2.638   6.188  11.031 -0.7220 -1.2040 -0.9839
   35POPC  H14C 4648   2.686   6.243  11.186  0.4813 -0.0624  0.1544
   35POPC   C15 4649   2.783   5.992  10.976  0.8153  0.2952  0.2311
   35POPC  H15A 4650   2.829   6.065  10.911 -0.4065  1.7422  0.9571
   35POPC  H15B 4651   2.686   5.968  10.935  0.5528 -0.5232  1.3157
   35POPC  H15C 4652   2.832   5.897  10.972 -1.0839 -0.7207  0.3928
   35POPC   C11 4653   3.046   6.077  11.112 -0.6387  0.1129 -0.1647
   35POPC  H11A 4654   3.065   5.989  11.047 -0.2731 -0.5943  0.8819
   35POPC  H11B 4655   3.120   6.086  11.194 -1.3331 -1.1570  0.6322
   35POPC     P 4656   3.102   6.331  11.073  0.1691 -0.0394  0.3330
   35POPC   O13 4657   3.146   6.339  11.211  1.0850  0.3221 -0.2383
   35POPC   O14 4658   3.006   6.435  11.031  0.7439  0.2485 -0.2934
   35POPC   O12 4659   3.044   6.190  11.028 -0.2684 -0.1476  0.4736
   35POPC   O11 4660   3.226   6.349  10.983 -0.0441  0.0387  0.0637
   35POPC    C1 4661   3.228   6.298  10.846  0.0753 -0.4776  0.0442
   35POPC    HA 4662   3.185   6.196  10.835  1.5890 -1.1623  0.3755
   35POPC    HB 4663   3.332   6.290  10.808 -0.3063 -0.0453 -1.0819
   35POPC    C2 4664   3.163   6.396  10.737  0.8493 -0.6379  0.5477
   35POPC    HS 4665   3.055   6.372  10.741  0.5138  1.0608  2.4922
   35POPC   O21 4666   3.227   6.359  10.618 -0.3543 -0.0477 -0.1355
   35POPC   C21 4667   3.146   6.321  10.515  0.5479 -0.2936 -0.5069
   35POPC   O22 4668   3.024   6.300  10.524 -0.2790 -0.0514 -0.2114
   35POPC   C22 4669   3.226   6.295  10.391 -0.5291 -0.8244 -0.4114
   35POPC   H2R 4670   3.234   6.184  10.389  1.7928 -0.7812  2.7118
   35POPC   H2S 4671   3.334   6.319  10.403 -0.0900 -1.5891 -2.6230
   35POPC    C3 4672   3.183   6.544  10.760 -0.2827 -0.2001 -1.0452
   35POPC    HX 4673   3.290   6.574  10.764 -0.0507 -1.0738 -0.3452
   35POPC    HY 4674   3.139   6.580  10.856  1.9659 -0.3243  0.0728
   35POPC   O31 4675   3.136   6.625  10.652 -0.3558  0.0035 -0.5372
   35POPC   C31 4676   3.002   6.644  10.645  0.5360  0.2970 -0.2509
   35POPC   O32 4677   2.925   6.595  10.724  1.0678  0.1919 -0.4335
   35POPC   C32 4678   2.955   6.735  10.528 -0.0793  0.6804  0.1044
   35POPC   H2X 4679   3.007   6.832  10.539  1.9465 -0.7288  3.8430
   35POPC   H2Y 4680   2.845   6.740  10.542 -0.2271 -0.0571 -0.7119
   35POPC   C23 4681   3.168   6.338  10.254  0.0111  0.1741  0.3920
   35POPC   H3R 4682   3.177   6.449  10.246  0.2115  0.1522  0.3271
   35POPC   H3S 4683   3.062   6.303  10.259  1.1891 -3.5536  0.2438
   35POPC   C24 4684   3.226   6.270  10.132 -0.4002 -0.6376  0.0458
   35POPC   H4R 4685   3.201   6.162  10.144 -3.2911 -0.2387 -1.9359
   35POPC   H4S 4686   3.334   6.287  10.153 -0.6265  0.1326  0.6210
   35POPC   C25 4687   3.171   6.314   9.997 -1.1208  0.2565 -0.2532
   35POPC   H5R 4688   3.174   6.425   9.999  0.4520  0.2218 -0.1970
   35POPC   H5S 4689   3.068   6.272  10.001 -0.2466 -1.9510 -0.1917
   35POPC   C26 4690   3.238   6.260   9.879  0.2324  0.2078  0.6197
   35POPC   H6R 4691   3.203   6.155   9.871  0.6615  0.1141 -0.0609
   35POPC   H6S 4692   3.348   6.269   9.892  0.1737  0.0017  1.2517
   35POPC   C27 4693   3.198   6.334   9.751 -0.5591 -0.7105  0.0297
   35POPC   H7R 4694   3.236   6.438   9.756  1.1281 -1.1050 -3.2182
   35POPC   H7S 4695   3.087   6.334   9.737 -0.4069  0.3553 -1.3136
   35POPC   C28 4696   3.271   6.268   9.633  1.0311  0.4655  0.0026
   35POPC   H8R 4697   3.229   6.165   9.629  1.9725  0.0835 -0.0382
   35POPC   H8S 4698   3.379   6.265   9.658  0.7340  2.0714  1.6345
   35POPC   C29 4699   3.262   6.352   9.508  0.0244 -0.7615 -0.5010
   35POPC   H91 4700   3.305   6.453   9.505 -1.7047  0.0373  0.4694
   35POPC  C210 4701   3.202   6.309   9.397 -0.0288 -0.2449 -0.3169
   35POPC  H101 4702   3.194   6.373   9.308 -3.6591 -3.3510 -2.4106
   35POPC  C211 4703   3.132   6.181   9.374 -0.3307  0.3094  0.9178
   35POPC  H11R 4704   3.027   6.211   9.350 -0.5067 -0.2942  0.9139
   35POPC  H11S 4705   3.114   6.113   9.460 -2.4287 -3.1606 -2.0862
   35POPC  C212 4706   3.194   6.103   9.255 -0.0790 -0.2716  0.1725
   35POPC  H12R 4707   3.155   5.999   9.266  0.6106 -0.6181 -0.6181
   35POPC  H12S 4708   3.302   6.097   9.281  0.0117  3.1359  0.8646
   35POPC  C213 4709   3.183   6.167   9.113  0.6970  0.0730 -0.1470
   35POPC  H13R 4710   3.222   6.271   9.112 -2.1674  1.1878 -1.1606
   35POPC  H13S 4711   3.076   6.169   9.081  0.6068  2.5619  0.2148
   35POPC  C214 4712   3.270   6.098   9.001 -0.4641  0.0938 -0.3482
   35POPC  H14R 4713   3.213   6.006   8.976 -0.8479 -0.4442  2.3415
   35POPC  H14S 4714   3.373   6.069   9.031 -1.1032 -0.3829  1.4856
   35POPC  C215 4715   3.283   6.196   8.883 -0.5335  0.0666 -0.3362
   35POPC  H15R 4716   3.347   6.281   8.915 -3.1688  2.1601 -0.4958
   35POPC  H15S 4717   3.185   6.237   8.852 -0.6187  1.3495  1.5187
   35POPC  C216 4718   3.369   6.137   8.768  0.1795 -0.6508 -0.9810
   35POPC  H16R 4719   3.323   6.042   8.731 -1.3604 -0.4511  0.3350
   35POPC  H16S 4720   3.468   6.118   8.813 -0.3876 -0.4938  0.3518
   35POPC  C217 4721   3.396   6.234   8.656 -0.1671  0.4503  0.4193
   35POPC  H17R 4722   3.327   6.216   8.571 -2.5547 -1.2203  2.6396
   35POPC  H17S 4723   3.498   6.220   8.615 -1.0360 -0.6137 -1.4546
   35POPC  C218 4724   3.386   6.385   8.689 -0.1868  0.2648  0.4491
   35POPC  H18R 4725   3.441   6.423   8.778  1.9770 -0.6801 -0.4448
   35POPC  H18S 4726   3.281   6.421   8.696 -0.1381  0.5926 -0.5541
   35POPC  H18T 4727   3.435   6.442   8.607  1.7171 -0.5007  1.0150
   35POPC   C33 4728   2.992   6.676  10.385 -0.0728 -0.2058 -0.9041
   35POPC   H3X 4729   2.958   6.570  10.390  0.5261 -0.4828 -2.6405
   35POPC   H3Y 4730   3.103   6.674  10.384 -0.0893 -1.0397 -1.3579
   35POPC   C34 4731   2.935   6.748  10.271  0.0457 -0.0470 -0.9575
   35POPC   H4X 4732   2.964   6.855  10.281 -0.0992 -0.2266  1.6445
   35POPC   H4Y 4733   2.825   6.732  10.273  0.2131 -1.1391 -0.1131
   35POPC   C35 4734   2.988   6.698  10.135 -0.6560 -0.0214  0.6572
   35POPC   H5X 4735   3.005   6.589  10.150  1.1435 -0.0199 -1.1232
   35POPC   H5Y 4736   3.087   6.746  10.119 -1.4392  1.3119 -0.2264
   35POPC   C36 4737   2.896   6.718  10.011  0.1775 -0.0420 -0.6480
   35POPC   H6X 4738   2.854   6.821  10.021  0.0487 -0.2758  1.4293
   35POPC   H6Y 4739   2.813   6.645  10.017 -0.7573  1.0668  0.2501
   35POPC   C37 4740   2.973   6.689   9.877 -0.5322  0.4518  0.2735
   35POPC   H7X 4741   3.002   6.582   9.865  0.9855  0.7454  1.2504
   35POPC   H7Y 4742   3.067   6.748   9.872  0.7031 -1.5640 -1.0844
   35POPC   C38 4743   2.897   6.727   9.754  0.3973 -0.1187  0.1051
   35POPC   H8X 4744   2.859   6.831   9.758  2.5370  0.6441  1.6972
   35POPC   H8Y 4745   2.808   6.662   9.742  0.9552 -1.1699  1.4663
   35POPC   C39 4746   2.989   6.712   9.635 -0.9760  0.0833  0.0943
   35POPC   H9X 4747   3.037   6.612   9.629 -0.9909  0.1320 -0.7756
   35POPC   H9Y 4748   3.065   6.789   9.659 -0.2561 -0.5606 -0.0943
   35POPC  C310 4749   2.924   6.747   9.498  0.4954 -0.3716 -0.6673
   35POPC  H10X 4750   2.876   6.847   9.498  1.7918  0.3351  3.1414
   35POPC  H10Y 4751   2.854   6.662   9.481  2.0110 -1.6842 -0.5367
   35POPC  C311 4752   3.019   6.736   9.384 -0.5322 -0.0443  0.0321
   35POPC  H11X 4753   3.072   6.638   9.382 -1.3379 -0.4595 -0.9893
   35POPC  H11Y 4754   3.102   6.810   9.390  0.0345 -0.6040 -0.7718
   35POPC  C312 4755   2.965   6.760   9.241  0.0331 -0.3697  0.0571
   35POPC  H12X 4756   2.952   6.868   9.218 -0.5320 -0.8309 -1.8579
   35POPC  H12Y 4757   2.873   6.699   9.238 -0.0132 -0.2709 -0.6839
   35POPC  C313 4758   3.068   6.719   9.134  0.7806 -0.7319 -0.2614
   35POPC  H13X 4759   3.122   6.632   9.177 -0.5420 -0.9999  0.8893
   35POPC  H13Y 4760   3.149   6.793   9.116  0.7146 -0.3792  0.8349
   35POPC  C314 4761   3.004   6.698   8.996 -0.5657  0.3850  0.0163
   35POPC  H14X 4762   2.922   6.770   8.978 -1.4518 -0.5598  0.2170
   35POPC  H14Y 4763   2.960   6.596   8.982 -0.3048  0.1941  0.5517
   35POPC  C315 4764   3.105   6.720   8.877 -0.3073 -0.6261 -1.1711
   35POPC  H15X 4765   3.173   6.632   8.874 -0.1271 -0.6952  2.7952
   35POPC  H15Y 4766   3.180   6.801   8.889 -0.0951 -0.7800 -1.4332
   35POPC  C316 4767   3.022   6.733   8.747 -0.1890 -0.2387 -0.0875
   35POPC  H16X 4768   2.958   6.647   8.717 -3.6333  1.2832  2.5221
   35POPC  H16Y 4769   3.088   6.750   8.660 -0.2829 -0.6374 -0.2402
   35POPC  H16Z 4770   2.962   6.826   8.760  1.4200  0.6275  1.3055
   36POPC     N 4771   2.997   5.206  10.763  0.5114  0.2614  0.3080
   36POPC   C12 4772   2.956   5.175  10.898  0.7665 -0.0552  0.6212
   36POPC  H12A 4773   2.902   5.258  10.940  1.0995 -0.3328  1.6132
   36POPC  H12B 4774   3.036   5.148  10.966  1.2226  0.9287  0.4791
   36POPC   C13 4775   2.887   5.207  10.667 -0.1976  0.6845  0.6748
   36POPC  H13A 4776   2.799   5.257  10.707 -1.4082  0.4770 -1.6374
   36POPC  H13B 4777   2.918   5.258  10.577 -1.5732 -0.3583 -0.4167
   36POPC  H13C 4778   2.858   5.104  10.650  0.7584  0.6265 -0.6049
   36POPC   C14 4779   3.070   5.339  10.741  0.0788  0.1502  1.2548
   36POPC  H14A 4780   3.124   5.338  10.648 -0.0063 -1.2132  1.2212
   36POPC  H14B 4781   2.996   5.417  10.736  0.9734  1.1532  3.0470
   36POPC  H14C 4782   3.128   5.372  10.826  1.8597 -2.8285  1.2526
   36POPC   C15 4783   3.086   5.096  10.721  0.3496  0.2162 -0.2392
   36POPC  H15A 4784   3.031   5.005  10.739  0.4557 -0.1903 -1.8931
   36POPC  H15B 4785   3.183   5.090  10.769  0.4982  1.0587 -0.4338
   36POPC  H15C 4786   3.108   5.118  10.617  0.7305 -0.4300 -0.2958
   36POPC   C11 4787   2.849   5.058  10.912 -0.2162  0.7042 -0.2372
   36POPC  H11A 4788   2.759   5.085  10.853 -1.4519  1.6326  1.9861
   36POPC  H11B 4789   2.823   5.073  11.019 -0.0301 -0.2710 -0.0468
   36POPC     P 4790   2.984   4.850  10.975 -0.3102  0.1252 -0.0606
   36POPC   O13 4791   2.916   4.837  11.108 -0.0092 -0.3369 -0.4152
   36POPC   O14 4792   3.121   4.903  10.985 -0.0873  0.1986  0.1124
   36POPC   O12 4793   2.904   4.938  10.871 -0.1907  0.0591 -0.2193
   36POPC   O11 4794   2.984   4.712  10.904 -0.1015  0.2064  0.6244
   36POPC    C1 4795   2.864   4.643  10.861  0.7504  0.0355 -0.4529
   36POPC    HA 4796   2.774   4.702  10.891  0.4080  0.1751 -1.7174
   36POPC    HB 4797   2.849   4.546  10.913 -0.7699 -1.2031 -3.0885
   36POPC    C2 4798   2.872   4.623  10.706  0.5296  0.0497 -0.6000
   36POPC    HS 4799   2.775   4.574  10.682  0.1486  0.2079  0.5964
   36POPC   O21 4800   2.987   4.533  10.685  0.2525  0.2639 -0.2965
   36POPC   C21 4801   2.977   4.454  10.578  0.2650 -0.4185  0.4785
   36POPC   O22 4802   2.889   4.452  10.492 -0.1556 -0.9632 -0.2071
   36POPC   C22 4803   3.094   4.361  10.561  0.9407  0.3681 -0.1761
   36POPC   H2R 4804   3.081   4.297  10.471  1.1480  0.8409 -0.5522
   36POPC   H2S 4805   3.097   4.295  10.650  4.1528  1.9311  0.9695
   36POPC    C3 4806   2.882   4.762  10.634 -0.5254 -0.6911  0.7939
   36POPC    HX 4807   2.984   4.805  10.633 -0.8306  0.0117 -0.6465
   36POPC    HY 4808   2.823   4.838  10.689  0.0651  0.7023 -0.4931
   36POPC   O31 4809   2.824   4.758  10.503  0.2441 -0.7783 -0.3967
   36POPC   C31 4810   2.906   4.788  10.395 -0.1835 -0.0246 -0.9085
   36POPC   O32 4811   3.028   4.802  10.403  0.5399  0.7347 -0.8601
   36POPC   C32 4812   2.815   4.789  10.271 -0.5835 -0.1930  0.0501
   36POPC   H2X 4813   2.879   4.848  10.202 -1.2227  1.0120  0.4654
   36POPC   H2Y 4814   2.726   4.847  10.303 -1.1944 -0.9500 -0.2501
   36POPC   C23 4815   3.228   4.439  10.556  1.0463  0.2145  0.0424
   36POPC   H3R 4816   3.314   4.368  10.551 -0.0704 -1.1846  0.4674
   36POPC   H3S 4817   3.234   4.497  10.651  0.0153  1.6111 -0.7268
   36POPC   C24 4818   3.228   4.540  10.441 -0.0180  0.4308  0.0065
   36POPC   H4R 4819   3.320   4.602  10.438  0.1844  0.0807 -1.6047
   36POPC   H4S 4820   3.143   4.612  10.439  0.3484  0.8587 -0.3738
   36POPC   C25 4821   3.253   4.481  10.296 -0.3856  0.0839  0.4573
   36POPC   H5R 4822   3.316   4.390  10.308 -1.8017 -0.8321  1.1577
   36POPC   H5S 4823   3.311   4.558  10.241  0.6825  0.1935  1.7064
   36POPC   C26 4824   3.128   4.446  10.212  0.7421  0.1890 -0.2036
   36POPC   H6R 4825   3.036   4.498  10.247  0.3686  0.3461 -1.3892
   36POPC   H6S 4826   3.113   4.337  10.223  2.0891  0.1975  2.2183
   36POPC   C27 4827   3.140   4.470  10.060 -0.3465  0.2465 -0.6978
   36POPC   H7R 4828   3.203   4.393  10.010  1.2202  1.6669 -0.9402
   36POPC   H7S 4829   3.164   4.576  10.037 -0.6916  0.2353 -1.1285
   36POPC   C28 4830   3.006   4.441   9.988 -0.5123 -0.1043  0.0616
   36POPC   H8R 4831   2.914   4.493  10.023  0.0902  0.6259  0.5747
   36POPC   H8S 4832   2.992   4.331   9.995  1.2708 -0.2290  2.2536
   36POPC   C29 4833   3.015   4.466   9.844  0.3694 -0.1582 -0.5907
   36POPC   H91 4834   3.088   4.544   9.820 -0.4586  0.8863  0.2058
   36POPC  C210 4835   2.946   4.404   9.744 -0.2331  0.0581 -0.5127
   36POPC  H101 4836   2.976   4.411   9.638 -0.0272  0.3043 -0.4395
   36POPC  C211 4837   2.842   4.303   9.766  0.2732 -0.6604 -0.5120
   36POPC  H11R 4838   2.798   4.326   9.866 -0.4949 -0.6143 -0.8611
   36POPC  H11S 4839   2.889   4.202   9.759  0.9003 -0.3281 -1.1033
   36POPC  C212 4840   2.714   4.308   9.677 -0.6417  0.0835 -0.1843
   36POPC  H12R 4841   2.669   4.406   9.704 -0.4186  0.2611 -0.4464
   36POPC  H12S 4842   2.655   4.217   9.700  0.9443 -0.9009  0.1204
   36POPC  C213 4843   2.745   4.293   9.526  0.4649  0.0934  0.5644
   36POPC  H13R 4844   2.810   4.204   9.511  1.1903  0.5312  1.0932
   36POPC  H13S 4845   2.799   4.384   9.492  1.0124  0.0353  1.2615
   36POPC  C214 4846   2.616   4.269   9.449 -0.4378  0.2185 -0.1125
   36POPC  H14R 4847   2.545   4.335   9.502  0.3845  0.5180  0.6265
   36POPC  H14S 4848   2.581   4.165   9.467  1.9610 -0.3378  1.5179
   36POPC  C215 4849   2.618   4.287   9.297  0.6794 -0.0181  0.0912
   36POPC  H15R 4850   2.528   4.255   9.241  0.6646  0.1850  0.0004
   36POPC  H15S 4851   2.689   4.213   9.252  0.9142 -0.2411  0.8233
   36POPC  C216 4852   2.647   4.431   9.251  0.0599  0.3353 -0.1756
   36POPC  H16R 4853   2.748   4.467   9.281 -1.0474  2.8266  0.7235
   36POPC  H16S 4854   2.578   4.497   9.308 -1.2163 -1.4003  0.3396
   36POPC  C217 4855   2.616   4.453   9.097  0.2062  0.5617  1.1887
   36POPC  H17R 4856   2.606   4.562   9.083  0.8663  0.5756  0.7828
   36POPC  H17S 4857   2.516   4.410   9.075  1.1892 -1.0971 -0.1654
   36POPC  C218 4858   2.728   4.407   9.002  0.0441  0.6039 -0.7260
   36POPC  H18R 4859   2.682   4.420   8.901  2.9428 -1.1792 -2.3365
   36POPC  H18S 4860   2.756   4.300   9.011  3.0271  1.3609 -0.5041
   36POPC  H18T 4861   2.814   4.471   9.032 -0.4568  1.1375 -0.4242
   36POPC   C33 4862   2.763   4.654  10.215  0.4022  0.2927 -0.0725
   36POPC   H3X 4863   2.710   4.598  10.295  0.2909 -0.2754 -0.5447
   36POPC   H3Y 4864   2.834   4.574  10.186 -0.7222 -0.2466 -1.3708
   36POPC   C34 4865   2.681   4.686  10.095  0.0172 -0.0466  0.5117
   36POPC   H4X 4866   2.597   4.757  10.115 -0.6395 -0.5536 -0.4024
   36POPC   H4Y 4867   2.625   4.593  10.070  0.1618 -0.3463  1.2858
   36POPC   C35 4868   2.771   4.738   9.980  0.3214 -0.1128 -0.0727
   36POPC   H5X 4869   2.872   4.693   9.968  0.0730 -1.3081  2.0954
   36POPC   H5Y 4870   2.783   4.848   9.982 -0.4351 -0.0506  1.5970
   36POPC   C36 4871   2.697   4.705   9.851 -0.2618 -0.2907  0.4202
   36POPC   H6X 4872   2.596   4.750   9.841 -0.4695 -1.4900 -3.4052
   36POPC   H6Y 4873   2.663   4.599   9.849 -0.9474 -0.0564 -0.7383
   36POPC   C37 4874   2.769   4.747   9.731 -1.3465  0.0264  0.4546
   36POPC   H7X 4875   2.852   4.673   9.718 -1.2789  0.0279  0.8839
   36POPC   H7Y 4876   2.803   4.852   9.739  2.0628 -1.0916  1.4681
   36POPC   C38 4877   2.674   4.748   9.608 -0.0650 -0.1856  0.0281
   36POPC   H8X 4878   2.601   4.832   9.619  1.7526  1.4024  0.2795
   36POPC   H8Y 4879   2.614   4.655   9.605  0.4890 -0.5597  0.4972
   36POPC   C39 4880   2.757   4.763   9.483  0.1101  0.3762 -0.3303
   36POPC   H9X 4881   2.825   4.682   9.451  1.9676  1.8828 -0.3087
   36POPC   H9Y 4882   2.825   4.849   9.499 -0.1454  0.5482 -0.1745
   36POPC  C310 4883   2.673   4.796   9.357 -0.4616  0.6635  0.0956
   36POPC  H10X 4884   2.615   4.890   9.371 -0.7990  0.4649  0.0277
   36POPC  H10Y 4885   2.592   4.722   9.345 -0.6678  0.5675  1.9142
   36POPC  C311 4886   2.759   4.805   9.224  0.1715  0.5066 -0.1833
   36POPC  H11X 4887   2.806   4.705   9.214  1.2672  1.3024 -3.5647
   36POPC  H11Y 4888   2.841   4.878   9.235 -0.1153  0.6349  1.2984
   36POPC  C312 4889   2.663   4.845   9.113  0.0559  0.4643 -0.2395
   36POPC  H12X 4890   2.611   4.939   9.141 -0.9800 -0.3034  0.4311
   36POPC  H12Y 4891   2.586   4.769   9.091  0.6632  0.3760 -2.1496
   36POPC  C313 4892   2.733   4.901   8.981  0.3925 -0.0330 -0.0718
   36POPC  H13X 4893   2.804   4.829   8.935  1.4058  0.7070  0.3144
   36POPC  H13Y 4894   2.776   4.998   9.015 -0.9447  0.6617 -0.3398
   36POPC  C314 4895   2.631   4.948   8.873 -0.0458  0.6928  0.0728
   36POPC  H14X 4896   2.557   4.865   8.866 -1.3452  1.7396  1.0689
   36POPC  H14Y 4897   2.686   4.970   8.778 -0.9991  1.4829 -0.3045
   36POPC  C315 4898   2.547   5.071   8.899 -0.1014 -0.2380  0.2018
   36POPC  H15X 4899   2.616   5.152   8.928 -1.6900  0.4712  2.0514
   36POPC  H15Y 4900   2.471   5.068   8.980 -0.1103 -0.7879  0.1782
   36POPC  C316 4901   2.480   5.122   8.770 -0.6706  0.2355 -0.0107
   36POPC  H16X 4902   2.554   5.142   8.690 -0.0354  0.1263  0.5499
   36POPC  H16Y 4903   2.443   5.225   8.789  2.3807  1.1030  1.5954
   36POPC  H16Z 4904   2.395   5.059   8.734 -0.1395 -0.7187  0.3839
   37POPC     N 4905   1.782   1.566   6.326  0.1230 -0.3777  0.4166
   37POPC   C12 4906   1.776   1.565   6.479  0.1245  0.4250  0.2507
   37POPC  H12A 4907   1.679   1.535   6.513 -1.9267  2.6628 -3.2688
   37POPC  H12B 4908   1.787   1.663   6.524  1.0576 -1.0531  3.3549
   37POPC   C13 4909   1.678   1.653   6.273  0.0243 -0.8839  0.3118
   37POPC  H13A 4910   1.667   1.744   6.330 -0.7583 -0.2566 -0.8077
   37POPC  H13B 4911   1.702   1.677   6.170  2.9202 -3.3619  0.3559
   37POPC  H13C 4912   1.579   1.609   6.270 -0.3053 -0.0863 -1.2757
   37POPC   C14 4913   1.916   1.610   6.272  0.7524  0.1183 -0.2141
   37POPC  H14A 4914   1.934   1.716   6.277  1.0967  0.1273 -1.5425
   37POPC  H14B 4915   1.995   1.557   6.324 -0.1316  0.8298  1.9393
   37POPC  H14C 4916   1.928   1.588   6.167  1.4906 -1.7015  0.2209
   37POPC   C15 4917   1.771   1.428   6.288 -1.0426 -0.1100  0.0181
   37POPC  H15A 4918   1.865   1.373   6.288  0.2119  1.9616  1.8364
   37POPC  H15B 4919   1.735   1.406   6.188 -1.3377 -0.7483  0.2616
   37POPC  H15C 4920   1.710   1.378   6.361  0.7707 -1.5480  0.5965
   37POPC   C11 4921   1.895   1.479   6.543 -0.3934  0.5689 -0.5441
   37POPC  H11A 4922   1.897   1.374   6.507  1.1282  0.4222 -0.0589
   37POPC  H11B 4923   1.872   1.466   6.651  1.1773 -1.4019 -0.4292
   37POPC     P 4924   2.063   1.654   6.613 -0.1590  0.3613 -0.2305
   37POPC   O13 4925   1.970   1.764   6.594  0.1599  0.2993 -0.4227
   37POPC   O14 4926   2.199   1.689   6.563 -0.3172  0.0440  0.3896
   37POPC   O12 4927   2.029   1.535   6.526  0.2220  0.5667 -0.3271
   37POPC   O11 4928   2.061   1.605   6.764  0.2912 -0.6214 -0.0771
   37POPC    C1 4929   2.082   1.697   6.873  0.2826 -0.4117 -0.3509
   37POPC    HA 4930   2.046   1.802   6.863 -4.1341 -1.6191  1.7268
   37POPC    HB 4931   2.192   1.698   6.890  0.2155 -1.2792  0.1570
   37POPC    C2 4932   2.009   1.642   7.003 -0.3295 -0.4004  0.3756
   37POPC    HS 4933   2.020   1.713   7.087  2.3479  1.1923 -1.2218
   37POPC   O21 4934   2.065   1.518   7.036  0.4019 -0.8695  0.4774
   37POPC   C21 4935   2.182   1.518   7.106  0.5228 -0.1695 -0.3601
   37POPC   O22 4936   2.240   1.621   7.131  0.3317  0.1136  0.1577
   37POPC   C22 4937   2.222   1.375   7.157 -0.1823 -0.2773 -0.2337
   37POPC   H2R 4938   2.267   1.311   7.078 -0.0970  1.1989 -1.3909
   37POPC   H2S 4939   2.130   1.320   7.187 -0.4401 -0.0264 -0.5539
   37POPC    C3 4940   1.860   1.622   6.972  0.6496 -0.2162  0.4737
   37POPC    HX 4941   1.805   1.565   7.049  1.0700 -2.5375 -0.9043
   37POPC    HY 4942   1.873   1.550   6.889 -0.4055 -0.4775  0.5276
   37POPC   O31 4943   1.793   1.746   6.941 -0.5873  0.2929 -0.5065
   37POPC   C31 4944   1.696   1.733   6.851 -0.3994 -0.0212  0.4368
   37POPC   O32 4945   1.671   1.635   6.785 -0.3710  0.2033  0.3762
   37POPC   C32 4946   1.607   1.862   6.846 -0.0047 -0.2927 -0.6817
   37POPC   H2X 4947   1.605   1.887   6.738 -2.5135  0.6957 -0.4206
   37POPC   H2Y 4948   1.673   1.940   6.890 -0.8151 -1.6606  3.1872
   37POPC   C23 4949   2.316   1.395   7.281 -0.2680 -0.0843 -0.2539
   37POPC   H3R 4950   2.253   1.440   7.361  0.5498  2.3928 -0.9817
   37POPC   H3S 4951   2.397   1.467   7.257  0.0912 -0.9234 -1.5760
   37POPC   C24 4952   2.387   1.270   7.331 -0.2430 -0.0342 -0.3147
   37POPC   H4R 4953   2.306   1.195   7.325  0.4918 -0.8912  0.3927
   37POPC   H4S 4954   2.411   1.277   7.439 -2.7250  1.1391  0.1808
   37POPC   C25 4955   2.509   1.220   7.253  0.5539 -0.9936  0.5716
   37POPC   H5R 4956   2.493   1.243   7.145  1.6464 -2.0713  0.1693
   37POPC   H5S 4957   2.522   1.111   7.270 -3.4473 -1.5860  0.3919
   37POPC   C26 4958   2.636   1.301   7.305  0.4559  0.4979  0.5886
   37POPC   H6R 4959   2.616   1.392   7.366 -0.2094  1.6909 -1.3782
   37POPC   H6S 4960   2.691   1.334   7.215  0.7575 -2.0973 -0.2116
   37POPC   C27 4961   2.713   1.214   7.403 -0.8837 -0.3328  0.0853
   37POPC   H7R 4962   2.817   1.252   7.412 -1.2178  1.2174 -2.1500
   37POPC   H7S 4963   2.737   1.118   7.353  1.2083  0.2897 -0.1574
   37POPC   C28 4964   2.649   1.207   7.547  0.3722 -0.0266 -0.0631
   37POPC   H8R 4965   2.696   1.119   7.595  0.6294  0.8002  1.2332
   37POPC   H8S 4966   2.549   1.161   7.532  0.7450 -0.7680 -0.2862
   37POPC   C29 4967   2.652   1.315   7.649 -0.1221  0.4613 -0.5002
   37POPC   H91 4968   2.700   1.410   7.622 -0.8207  1.6314  2.2336
   37POPC  C210 4969   2.586   1.308   7.767 -0.6067  0.5600  0.2164
   37POPC  H101 4970   2.606   1.395   7.832  2.2102  0.6831 -0.7215
   37POPC  C211 4971   2.515   1.198   7.828 -0.2728 -0.5384 -0.5292
   37POPC  H11R 4972   2.567   1.105   7.795  3.0685  1.2955 -0.5904
   37POPC  H11S 4973   2.412   1.176   7.793 -0.7193  0.0206  0.4198
   37POPC  C212 4974   2.533   1.188   7.978  0.6471  0.7399 -0.4486
   37POPC  H12R 4975   2.638   1.198   8.014  0.3131 -3.1244  1.9067
   37POPC  H12S 4976   2.505   1.086   8.013 -2.1067  2.1256  1.6215
   37POPC  C213 4977   2.441   1.293   8.050 -0.2035  0.5883  0.1208
   37POPC  H13R 4978   2.348   1.244   8.084 -0.9634  3.2340  2.0179
   37POPC  H13S 4979   2.400   1.363   7.974  0.0570 -0.5836 -1.1212
   37POPC  C214 4980   2.491   1.365   8.176  0.3600  0.3203  0.1364
   37POPC  H14R 4981   2.589   1.417   8.169  1.3012 -1.5832 -1.6357
   37POPC  H14S 4982   2.489   1.291   8.258 -2.2382  0.7260  0.4769
   37POPC  C215 4983   2.390   1.464   8.237  0.3454 -0.0035 -0.1146
   37POPC  H15R 4984   2.291   1.435   8.197  0.4476 -1.8338  0.9286
   37POPC  H15S 4985   2.426   1.565   8.205  1.9734 -1.5932 -3.6558
   37POPC  C216 4986   2.380   1.462   8.390  0.4233  0.3068 -0.6717
   37POPC  H16R 4987   2.335   1.365   8.420 -1.1494  1.5585  1.1309
   37POPC  H16S 4988   2.317   1.545   8.429  0.1307 -0.3943  0.3717
   37POPC  C217 4989   2.513   1.469   8.462 -0.5500  0.2043 -0.1590
   37POPC  H17R 4990   2.576   1.546   8.413 -1.5569  1.9409  1.2199
   37POPC  H17S 4991   2.570   1.375   8.443 -1.8309 -0.5626 -0.2475
   37POPC  C218 4992   2.522   1.495   8.615 -0.4848  0.3224 -0.1185
   37POPC  H18R 4993   2.455   1.573   8.656 -1.6389  0.2740 -1.8625
   37POPC  H18S 4994   2.626   1.520   8.645 -0.6243  0.3651  0.3222
   37POPC  H18T 4995   2.486   1.408   8.674 -3.9756  1.5985 -0.2884
   37POPC   C33 4996   1.466   1.838   6.900  0.3111 -0.0800 -0.2062
   37POPC   H3X 4997   1.422   1.742   6.866 -1.5528 -0.2139  2.4002
   37POPC   H3Y 4998   1.394   1.919   6.875 -0.4390 -1.3348 -2.2323
   37POPC   C34 4999   1.469   1.841   7.050 -0.1127  0.0938 -0.0983
   37POPC   H4X 5000   1.536   1.757   7.077  0.4025  0.5618  0.0681
   37POPC   H4Y 5001   1.366   1.822   7.089 -0.6169  3.0860  0.1825
   37POPC   C35 5002   1.529   1.966   7.109  0.2801 -0.2803  0.3806
   37POPC   H5X 5003   1.505   2.062   7.058  1.1851 -0.1697  0.1545
   37POPC   H5Y 5004   1.639   1.957   7.104  0.6719  0.2588  5.2333
   37POPC   C36 5005   1.516   1.977   7.264  0.2629  0.3164 -0.3268
   37POPC   H6X 5006   1.417   2.025   7.283 -0.9853 -0.9666 -3.2402
   37POPC   H6Y 5007   1.583   2.060   7.293  0.1682  1.0905 -2.2847
   37POPC   C37 5008   1.551   1.864   7.344 -1.4020  0.3071 -0.2661
   37POPC   H7X 5009   1.659   1.852   7.319 -0.7416 -0.0238  2.5692
   37POPC   H7Y 5010   1.508   1.766   7.314  0.1414 -0.8703  1.2215
   37POPC   C38 5011   1.555   1.871   7.496 -0.2414 -0.3063 -0.0118
   37POPC   H8X 5012   1.617   1.795   7.549 -2.4169 -1.5012  0.8493
   37POPC   H8Y 5013   1.450   1.868   7.531 -0.3179 -2.1190 -0.3545
   37POPC   C39 5014   1.606   2.006   7.543 -0.1198  0.6494  0.1208
   37POPC   H9X 5015   1.559   2.091   7.488 -1.0117  0.0872  0.0066
   37POPC   H9Y 5016   1.713   2.009   7.514 -0.2017 -2.0071 -0.4998
   37POPC  C310 5017   1.590   2.034   7.691 -0.2479 -0.0430 -0.3281
   37POPC  H10X 5018   1.487   2.008   7.723  0.5044 -1.7241  0.7966
   37POPC  H10Y 5019   1.598   2.145   7.701  1.9285 -0.2968  1.0267
   37POPC  C311 5020   1.677   1.954   7.781 -0.1370  0.4437 -0.0675
   37POPC  H11X 5021   1.655   1.847   7.767  2.5584 -0.0390 -0.8215
   37POPC  H11Y 5022   1.642   1.972   7.885  0.6086  0.4903  0.1738
   37POPC  C312 5023   1.830   1.989   7.778 -0.8888  0.1616 -0.1245
   37POPC  H12X 5024   1.841   2.093   7.813  1.1734 -0.8013  2.2501
   37POPC  H12Y 5025   1.860   1.975   7.672 -2.3409 -0.5792 -0.4585
   37POPC  C313 5026   1.919   1.897   7.873 -0.3870 -0.3103  0.4778
   37POPC  H13X 5027   2.017   1.889   7.823 -0.2522 -0.7417  0.8015
   37POPC  H13Y 5028   1.876   1.796   7.892 -2.7940  0.5634 -0.1882
   37POPC  C314 5029   1.924   1.947   8.016 -0.3606  0.0133 -0.3957
   37POPC  H14X 5030   1.824   1.936   8.064  0.2320  0.9745  1.1152
   37POPC  H14Y 5031   1.952   2.054   8.011  0.1238  0.0664  2.3077
   37POPC  C315 5032   2.029   1.865   8.093 -0.0615  0.5031 -0.3890
   37POPC  H15X 5033   2.127   1.873   8.042  0.0212  3.3658  0.1199
   37POPC  H15Y 5034   1.998   1.759   8.106  0.4066  0.4171  0.0477
   37POPC  C316 5035   2.056   1.928   8.232  1.1928 -0.1666 -0.5010
   37POPC  H16X 5036   2.135   1.866   8.279  0.6764 -1.1312 -0.8788
   37POPC  H16Y 5037   1.969   1.931   8.302  2.3672 -0.6858  1.0169
   37POPC  H16Z 5038   2.089   2.033   8.222  0.5080 -0.1208 -2.5005
   38POPC     N 5039   2.777   5.675   6.344  0.4847 -1.1050  0.4052
   38POPC   C12 5040   2.897   5.699   6.430  0.1773  0.6185 -0.7983
   38POPC  H12A 5041   2.866   5.774   6.501 -0.7586 -2.9663  2.7535
   38POPC  H12B 5042   2.970   5.728   6.355 -0.1047  2.0119 -0.5483
   38POPC   C13 5043   2.665   5.606   6.417 -0.1223  0.3130  0.7268
   38POPC  H13A 5044   2.646   5.644   6.517  2.4651 -0.3014  1.4827
   38POPC  H13B 5045   2.569   5.614   6.369  0.9732 -1.5188 -1.8615
   38POPC  H13C 5046   2.697   5.505   6.434  0.6267  0.6515  1.3761
   38POPC   C14 5047   2.725   5.807   6.295  0.8797 -0.4184 -0.2141
   38POPC  H14A 5048   2.651   5.783   6.220 -0.6609 -1.4975  1.6365
   38POPC  H14B 5049   2.691   5.861   6.381  2.4205 -2.2728  1.6156
   38POPC  H14C 5050   2.805   5.862   6.248 -3.2804  3.3738 -3.2595
   38POPC   C15 5051   2.816   5.590   6.224 -0.3210 -0.3358 -0.3075
   38POPC  H15A 5052   2.872   5.648   6.153  0.0494  0.0060  0.2624
   38POPC  H15B 5053   2.735   5.542   6.170 -0.8524 -0.4243  0.5493
   38POPC  H15C 5054   2.877   5.506   6.254  2.5482  1.4704 -0.9346
   38POPC   C11 5055   2.966   5.582   6.509 -0.0053 -0.0707  0.4502
   38POPC  H11A 5056   2.903   5.554   6.597 -2.1438  0.7326 -0.7819
   38POPC  H11B 5057   3.057   5.630   6.552  1.3136 -0.9058 -1.3962
   38POPC     P 5058   3.141   5.447   6.359  0.4428  0.4894  0.4332
   38POPC   O13 5059   3.240   5.556   6.395 -0.5533 -0.2683  0.1464
   38POPC   O14 5060   3.116   5.426   6.215  0.1437  0.1944  0.1387
   38POPC   O12 5061   3.004   5.475   6.427  0.0008 -0.2864 -0.8302
   38POPC   O11 5062   3.182   5.309   6.425  0.2522  0.2499  0.4284
   38POPC    C1 5063   3.182   5.312   6.567 -0.3856  0.1208  0.3440
   38POPC    HA 5064   3.080   5.312   6.611 -0.7252  1.0703 -0.4141
   38POPC    HB 5065   3.225   5.408   6.604 -0.9259 -0.4518  2.5473
   38POPC    C2 5066   3.262   5.189   6.622  0.3811 -0.5792 -0.8684
   38POPC    HS 5067   3.202   5.099   6.647 -0.2453  0.4586  1.4204
   38POPC   O21 5068   3.329   5.231   6.747  0.4982 -0.2697 -0.0015
   38POPC   C21 5069   3.246   5.219   6.855 -0.3735  0.5748 -0.7715
   38POPC   O22 5070   3.139   5.172   6.859  0.8109  0.0743  0.6893
   38POPC   C22 5071   3.324   5.259   6.982 -0.4004  0.0615  0.0172
   38POPC   H2R 5072   3.403   5.333   6.958 -0.0015 -0.5425 -0.5325
   38POPC   H2S 5073   3.383   5.169   7.008 -0.0688  0.6573  1.4102
   38POPC    C3 5074   3.363   5.134   6.516 -0.2757 -0.2765  1.1090
   38POPC    HX 5075   3.425   5.219   6.480 -2.0268  1.3057  1.7305
   38POPC    HY 5076   3.319   5.092   6.423  0.3896  1.1107  0.1466
   38POPC   O31 5077   3.441   5.027   6.579  0.8866  0.2567  0.0233
   38POPC   C31 5078   3.559   5.063   6.609  0.3216  0.2314  1.0592
   38POPC   O32 5079   3.606   5.175   6.601  0.8978 -0.2077  0.5255
   38POPC   C32 5080   3.638   4.951   6.661 -0.1270  0.4026  0.4647
   38POPC   H2X 5081   3.746   4.979   6.657 -0.1742  0.2684 -2.4131
   38POPC   H2Y 5082   3.628   4.863   6.594 -0.2389  1.0022 -0.3071
   38POPC   C23 5083   3.232   5.288   7.103  0.5493  0.3400 -0.0078
   38POPC   H3R 5084   3.194   5.189   7.136 -0.8673  0.8398 -0.1232
   38POPC   H3S 5085   3.152   5.352   7.061 -0.5709 -0.6488  0.5630
   38POPC   C24 5086   3.313   5.356   7.218  0.0223 -0.1320 -0.0356
   38POPC   H4R 5087   3.240   5.407   7.284  0.1172  2.6032 -1.9789
   38POPC   H4S 5088   3.379   5.428   7.164  1.5465 -1.4122  0.0686
   38POPC   C25 5089   3.386   5.248   7.299  0.1465  0.3280  0.2398
   38POPC   H5R 5090   3.446   5.192   7.225 -0.7716  1.9705 -1.8108
   38POPC   H5S 5091   3.314   5.182   7.352 -2.4421  1.2274 -2.0321
   38POPC   C26 5092   3.489   5.311   7.394 -0.5083 -0.0267  0.2508
   38POPC   H6R 5093   3.578   5.347   7.337 -0.6556  0.4794  0.3356
   38POPC   H6S 5094   3.532   5.240   7.468  1.2851  1.6408  0.8529
   38POPC   C27 5095   3.446   5.419   7.481  0.5371  0.7508 -1.2850
   38POPC   H7R 5096   3.406   5.501   7.419  2.8439  0.0534 -3.7819
   38POPC   H7S 5097   3.520   5.466   7.549 -0.6454 -0.1494  0.6631
   38POPC   C28 5098   3.334   5.365   7.578  0.8209  0.6116 -0.0662
   38POPC   H8R 5099   3.253   5.328   7.511  0.0641  3.2893 -0.6797
   38POPC   H8S 5100   3.300   5.457   7.631  3.4088  1.5863 -0.0364
   38POPC   C29 5101   3.378   5.263   7.679 -0.4003 -0.5208  1.0003
   38POPC   H91 5102   3.370   5.162   7.638  0.6716 -0.2120 -0.0330
   38POPC  C210 5103   3.403   5.279   7.814  0.0960 -0.5354 -0.8237
   38POPC  H101 5104   3.439   5.188   7.864  0.9006  0.4844  0.4836
   38POPC  C211 5105   3.408   5.407   7.891  0.9729 -0.1579 -0.8719
   38POPC  H11R 5106   3.371   5.493   7.830 -1.0957 -1.4499 -1.5195
   38POPC  H11S 5107   3.514   5.427   7.915  0.4510 -0.8440  2.1511
   38POPC  C212 5108   3.332   5.407   8.022 -0.7385  0.1732 -0.0718
   38POPC  H12R 5109   3.228   5.381   7.993 -1.0576 -2.3321  3.0869
   38POPC  H12S 5110   3.333   5.513   8.053 -0.6456  0.3293 -0.5963
   38POPC  C213 5111   3.380   5.308   8.127 -0.3948  0.3817 -0.4986
   38POPC  H13R 5112   3.482   5.333   8.164 -1.5120  1.9831  1.6719
   38POPC  H13S 5113   3.386   5.203   8.092 -0.9329  0.2306 -0.1416
   38POPC  C214 5114   3.278   5.312   8.242 -0.8100  0.1487  0.5385
   38POPC  H14R 5115   3.178   5.285   8.201  0.0334 -1.6543 -0.3864
   38POPC  H14S 5116   3.282   5.417   8.278 -1.1734  0.4145 -0.1837
   38POPC  C215 5117   3.312   5.226   8.361  0.0693  0.6986 -0.0368
   38POPC  H15R 5118   3.217   5.214   8.416 -0.8358 -1.5812 -1.9977
   38POPC  H15S 5119   3.385   5.279   8.426  0.0569  1.0874 -0.3401
   38POPC  C216 5120   3.358   5.083   8.334  0.1131  0.2063 -1.0073
   38POPC  H16R 5121   3.455   5.097   8.281  0.4209  1.9611 -0.0364
   38POPC  H16S 5122   3.289   5.023   8.271 -0.7723  0.4183 -0.2353
   38POPC  C217 5123   3.391   5.006   8.464  0.4780  0.0462  0.1372
   38POPC  H17R 5124   3.295   4.998   8.520  0.1489  1.3675 -0.2219
   38POPC  H17S 5125   3.475   5.058   8.516  2.6638 -0.9902 -2.2360
   38POPC  C218 5126   3.439   4.862   8.430 -0.4566  0.7618 -0.1477
   38POPC  H18R 5127   3.355   4.811   8.379  1.5692  0.0755 -2.8844
   38POPC  H18S 5128   3.471   4.802   8.519  1.6753 -0.5726 -1.7671
   38POPC  H18T 5129   3.523   4.873   8.359 -0.7438  2.1452 -0.2728
   38POPC   C33 5130   3.593   4.895   6.799 -0.6725 -0.5668 -0.0448
   38POPC   H3X 5131   3.490   4.858   6.781  0.0771 -3.5257  1.5213
   38POPC   H3Y 5132   3.589   4.973   6.878  0.4792 -0.4765 -0.0609
   38POPC   C34 5133   3.679   4.784   6.865 -0.5200  0.0574 -0.5241
   38POPC   H4X 5134   3.787   4.809   6.857 -0.4128 -0.5938 -1.1631
   38POPC   H4Y 5135   3.655   4.690   6.812  0.2218  0.2868 -1.2686
   38POPC   C35 5136   3.650   4.790   7.022 -0.1541  0.4698 -0.6936
   38POPC   H5X 5137   3.650   4.895   7.058  0.9809  0.5534 -0.9320
   38POPC   H5Y 5138   3.744   4.753   7.069 -1.9435 -3.9270 -0.3577
   38POPC   C36 5139   3.543   4.700   7.082 -1.0339 -0.5474  0.8473
   38POPC   H6X 5140   3.525   4.617   7.010  0.6467  0.8232 -1.2580
   38POPC   H6Y 5141   3.442   4.745   7.092 -0.2320  1.1365  1.6904
   38POPC   C37 5142   3.585   4.638   7.222 -0.1289  0.3522 -0.0842
   38POPC   H7X 5143   3.655   4.555   7.203 -0.9449  0.0427 -1.7880
   38POPC   H7Y 5144   3.482   4.600   7.242  0.5085 -0.1876  2.3927
   38POPC   C38 5145   3.641   4.733   7.331 -0.4034  0.5593  0.1822
   38POPC   H8X 5146   3.574   4.821   7.338 -0.2840  0.7649 -1.1655
   38POPC   H8Y 5147   3.746   4.754   7.302 -0.9772  0.7192 -1.8572
   38POPC   C39 5148   3.649   4.659   7.472 -0.0027 -0.0988  0.0083
   38POPC   H9X 5149   3.712   4.567   7.476  1.0845  0.4042 -3.5433
   38POPC   H9Y 5150   3.550   4.624   7.508 -0.4385  1.4623  0.3430
   38POPC  C310 5151   3.687   4.757   7.588  0.5678 -0.0651  0.3459
   38POPC  H10X 5152   3.601   4.826   7.600 -0.8853 -1.9553  1.1350
   38POPC  H10Y 5153   3.780   4.808   7.555 -1.4648  1.5998 -3.0936
   38POPC  C311 5154   3.724   4.695   7.729  0.7476 -0.0864  0.4722
   38POPC  H11X 5155   3.751   4.785   7.787  1.9143  0.0028 -0.1937
   38POPC  H11Y 5156   3.812   4.627   7.719  0.0285 -0.6205 -3.0127
   38POPC  C312 5157   3.613   4.621   7.796  0.9274  0.4687  0.7396
   38POPC  H12X 5158   3.613   4.510   7.788  1.6190  0.3861  1.7518
   38POPC  H12Y 5159   3.514   4.650   7.755  1.9236 -1.8142 -3.5225
   38POPC  C313 5160   3.619   4.648   7.950 -0.4427 -0.0159  0.2009
   38POPC  H13X 5161   3.619   4.758   7.970  1.1075  0.1060 -0.3979
   38POPC  H13Y 5162   3.720   4.618   7.986  0.1419  1.3454 -0.2445
   38POPC  C314 5163   3.517   4.564   8.034 -0.7138 -0.0379 -0.3404
   38POPC  H14X 5164   3.540   4.456   8.023  2.3870  0.4625  0.7487
   38POPC  H14Y 5165   3.416   4.574   7.988 -0.7571 -3.5387 -1.1220
   38POPC  C315 5166   3.508   4.616   8.176 -0.0611  0.3261 -0.1174
   38POPC  H15X 5167   3.415   4.571   8.217  0.3023 -0.7234 -0.4468
   38POPC  H15Y 5168   3.502   4.726   8.163  0.5780  0.2405 -1.2556
   38POPC  C316 5169   3.630   4.578   8.262 -0.1196  0.1416 -0.3164
   38POPC  H16X 5170   3.726   4.615   8.220  0.1348 -0.1590  0.0015
   38POPC  H16Y 5171   3.631   4.467   8.261 -3.3105  0.0629  0.6422
   38POPC  H16Z 5172   3.614   4.615   8.366 -0.8433 -0.7168 -0.1157
   39POPC     N 5173   6.340   1.993   6.097  0.5223  0.2145 -0.5748
   39POPC   C12 5174   6.487   1.999   6.076  0.6126  0.5760  0.1783
   39POPC  H12A 5175   6.505   1.981   5.971  2.8233  2.4092  0.1941
   39POPC  H12B 5176   6.538   1.924   6.135 -0.0478  1.5100  2.0021
   39POPC   C13 5177   6.279   2.104   6.023  0.0099  0.3961 -0.2862
   39POPC  H13A 5178   6.291   2.201   6.068  0.7195 -0.1244  0.6784
   39POPC  H13B 5179   6.299   2.110   5.916  0.0310 -0.2788 -0.3238
   39POPC  H13C 5180   6.173   2.090   6.029 -0.4674  3.1061 -1.6418
   39POPC   C14 5181   6.286   1.865   6.049  0.6746  0.3917  0.0178
   39POPC  H14A 5182   6.295   1.857   5.942  4.9384  1.0554  0.2278
   39POPC  H14B 5183   6.324   1.784   6.110 -1.0842  0.2569  0.9553
   39POPC  H14C 5184   6.179   1.854   6.056  0.6924 -1.0012 -1.7447
   39POPC   C15 5185   6.319   2.017   6.240  0.5933 -0.8231 -0.6177
   39POPC  H15A 5186   6.340   2.121   6.256 -0.1018 -0.5352 -1.4861
   39POPC  H15B 5187   6.377   1.954   6.305  2.5850  0.4284 -1.1588
   39POPC  H15C 5188   6.220   1.997   6.279  0.3933 -0.1092 -0.7585
   39POPC   C11 5189   6.565   2.126   6.110 -0.2573  0.0479 -0.4535
   39POPC  H11A 5190   6.575   2.138   6.220  2.0731 -1.3433 -0.4590
   39POPC  H11B 5191   6.499   2.205   6.069 -0.3936 -0.7630 -1.8724
   39POPC     P 5192   6.817   2.179   6.102  0.0772  0.7214 -0.1955
   39POPC   O13 5193   6.793   2.324   6.140 -0.1409 -0.5383 -0.1953
   39POPC   O14 5194   6.932   2.163   6.010 -0.3540 -1.5059 -0.0401
   39POPC   O12 5195   6.692   2.106   6.037  0.3877 -0.6917 -0.3286
   39POPC   O11 5196   6.838   2.092   6.233 -0.6194  0.1635  0.6679
   39POPC    C1 5197   6.814   2.161   6.354 -0.0385 -0.3069  0.3523
   39POPC    HA 5198   6.708   2.153   6.387  0.3066 -0.7080  1.3754
   39POPC    HB 5199   6.842   2.268   6.352  1.6692 -0.7216  0.7095
   39POPC    C2 5200   6.909   2.113   6.467 -1.0076  0.2675  0.2446
   39POPC    HS 5201   6.902   2.002   6.470 -0.9738  0.2823  1.3361
   39POPC   O21 5202   6.871   2.177   6.593  0.2364  0.2526  0.1824
   39POPC   C21 5203   6.782   2.110   6.665 -0.3445 -0.0647  0.2662
   39POPC   O22 5204   6.750   1.996   6.646 -0.2002  0.3070 -0.3209
   39POPC   C22 5205   6.733   2.205   6.773  0.0298 -0.2959 -0.5113
   39POPC   H2R 5206   6.630   2.236   6.745  1.4460  4.0998 -1.2710
   39POPC   H2S 5207   6.789   2.301   6.776  0.7970 -0.7981  2.3898
   39POPC    C3 5208   7.064   2.139   6.426 -0.3085 -0.1797  0.0462
   39POPC    HX 5209   7.066   2.246   6.396 -0.1584 -0.5432 -1.2737
   39POPC    HY 5210   7.073   2.077   6.334 -1.0241  0.3466 -0.3798
   39POPC   O31 5211   7.157   2.106   6.535 -0.5500  0.8008  0.0586
   39POPC   C31 5212   7.192   1.973   6.538  0.5928  0.7409 -0.3970
   39POPC   O32 5213   7.143   1.885   6.466  0.5123 -0.1806  0.0598
   39POPC   C32 5214   7.291   1.945   6.652  0.0632  0.3439 -0.2362
   39POPC   H2X 5215   7.362   1.867   6.618 -1.4016 -1.2878  0.3826
   39POPC   H2Y 5216   7.352   2.038   6.658 -1.7065  1.4381  1.6124
   39POPC   C23 5217   6.741   2.142   6.912  0.0421 -0.4552  0.8789
   39POPC   H3R 5218   6.847   2.130   6.942  0.1563 -2.2242 -0.1897
   39POPC   H3S 5219   6.694   2.042   6.908  0.5971 -0.6760 -0.8875
   39POPC   C24 5220   6.677   2.219   7.021  0.2661 -0.1582 -0.0623
   39POPC   H4R 5221   6.574   2.258   7.008 -0.4779 -1.4609  1.8218
   39POPC   H4S 5222   6.738   2.309   7.045  0.7034 -1.1030  2.5095
   39POPC   C25 5223   6.683   2.151   7.162 -0.9459  0.0536  0.3859
   39POPC   H5R 5224   6.790   2.129   7.182 -0.7963 -0.9196 -1.3927
   39POPC   H5S 5225   6.638   2.051   7.143  0.6022 -0.4028 -1.0558
   39POPC   C26 5226   6.611   2.226   7.270  0.2429 -0.6112  0.0267
   39POPC   H6R 5227   6.502   2.222   7.253  0.2986 -0.5838 -0.3349
   39POPC   H6S 5228   6.647   2.331   7.276  1.0082 -0.9613  1.9422
   39POPC   C27 5229   6.640   2.165   7.411  0.8675  0.1661  0.3600
   39POPC   H7R 5230   6.624   2.241   7.490  2.6921  0.4388  0.5046
   39POPC   H7S 5231   6.749   2.144   7.407  0.6691 -0.8146  0.0285
   39POPC   C28 5232   6.561   2.025   7.445 -0.1297 -0.7047 -0.8854
   39POPC   H8R 5233   6.570   1.963   7.353  1.6875 -0.9929 -0.5401
   39POPC   H8S 5234   6.453   2.050   7.449 -0.2204 -1.1849 -0.0040
   39POPC   C29 5235   6.597   1.952   7.567 -0.4747  0.2355  0.1835
   39POPC   H91 5236   6.661   1.867   7.540 -1.6252 -0.1288 -1.4983
   39POPC  C210 5237   6.567   1.986   7.694 -0.1168  0.1492  0.2384
   39POPC  H101 5238   6.625   1.944   7.777  0.9829  0.5828 -0.2891
   39POPC  C211 5239   6.486   2.106   7.732  0.3354  0.0167 -0.0723
   39POPC  H11R 5240   6.443   2.166   7.649  1.2504  0.8373  0.0259
   39POPC  H11S 5241   6.557   2.169   7.791  0.9253 -1.3447  0.6881
   39POPC  C212 5242   6.366   2.065   7.812  0.5349 -0.6292 -0.4249
   39POPC  H12R 5243   6.396   2.021   7.910 -2.4669 -0.0274  0.8254
   39POPC  H12S 5244   6.304   1.992   7.756  1.1336 -2.6354  1.4626
   39POPC  C213 5245   6.274   2.184   7.853 -0.2380  0.5333  0.2825
   39POPC  H13R 5246   6.198   2.128   7.911  0.0321 -0.1179  0.0128
   39POPC  H13S 5247   6.220   2.233   7.770  3.2668  2.0791 -1.1717
   39POPC  C214 5248   6.344   2.281   7.946 -0.5846  0.3585  0.2958
   39POPC  H14R 5249   6.384   2.372   7.895  2.6965 -0.6205  0.9878
   39POPC  H14S 5250   6.434   2.242   7.999 -1.2034 -1.4522  0.0087
   39POPC  C215 5251   6.250   2.333   8.058 -0.0550 -0.1095 -0.9516
   39POPC  H15R 5252   6.164   2.389   8.015 -1.6205 -2.2031 -0.6043
   39POPC  H15S 5253   6.305   2.402   8.126  0.5594  0.2565 -1.8131
   39POPC  C216 5254   6.184   2.237   8.156 -0.5551  0.0659  0.2955
   39POPC  H16R 5255   6.113   2.178   8.095 -0.6503 -1.0948  1.5042
   39POPC  H16S 5256   6.127   2.288   8.237 -1.3032 -0.1260 -0.1142
   39POPC  C217 5257   6.283   2.130   8.216 -0.0185 -0.2180 -0.2416
   39POPC  H17R 5258   6.361   2.180   8.276 -0.6451  0.6680 -0.1490
   39POPC  H17S 5259   6.345   2.082   8.138  1.2164  2.5201 -0.9842
   39POPC  C218 5260   6.206   2.024   8.311 -0.3822  0.3403  0.0351
   39POPC  H18R 5261   6.190   2.057   8.415 -0.4770 -0.3765  0.2528
   39POPC  H18S 5262   6.258   1.926   8.321 -1.0096 -0.0134 -0.1246
   39POPC  H18T 5263   6.105   1.999   8.273  0.2163 -2.8737  0.4426
   39POPC   C33 5264   7.228   1.902   6.787  0.4345 -0.0157  0.4320
   39POPC   H3X 5265   7.310   1.863   6.852 -1.0405 -1.6566  1.3310
   39POPC   H3Y 5266   7.171   1.809   6.767  1.9696 -1.0057  0.5721
   39POPC   C34 5267   7.127   1.997   6.846 -0.4784  0.4458  0.0497
   39POPC   H4X 5268   7.036   1.995   6.782  0.0128 -0.9429 -0.6291
   39POPC   H4Y 5269   7.172   2.098   6.831  1.7163 -0.2099  1.9147
   39POPC   C35 5270   7.096   1.976   6.991  0.3781 -0.4377 -0.3213
   39POPC   H5X 5271   7.039   1.883   7.014 -0.6911  0.6823  1.7220
   39POPC   H5Y 5272   7.023   2.055   7.018  0.4090  0.2789 -2.2369
   39POPC   C36 5273   7.210   1.996   7.086 -0.1685  0.6760  0.0715
   39POPC   H6X 5274   7.191   2.099   7.125 -1.3426  0.4134  0.1989
   39POPC   H6Y 5275   7.308   2.014   7.036 -0.9190 -2.5633 -2.6864
   39POPC   C37 5276   7.231   1.877   7.187 -0.3158  0.3932  0.4132
   39POPC   H7X 5277   7.295   1.806   7.130  1.9280  2.0979  0.7490
   39POPC   H7Y 5278   7.131   1.840   7.217  0.5434  0.5489  3.7786
   39POPC   C38 5279   7.307   1.918   7.320 -0.2725 -0.0608 -0.4060
   39POPC   H8X 5280   7.239   1.991   7.369 -0.7941  1.1007 -2.8285
   39POPC   H8Y 5281   7.411   1.954   7.304  0.2566 -1.7632 -0.9469
   39POPC   C39 5282   7.337   1.797   7.414  0.4216  0.3860 -0.0994
   39POPC   H9X 5283   7.426   1.744   7.372  0.2106  0.7700 -1.0581
   39POPC   H9Y 5284   7.260   1.718   7.411  1.3581 -0.5958  1.2145
   39POPC  C310 5285   7.356   1.835   7.562 -0.4891 -0.0720  0.4254
   39POPC  H10X 5286   7.264   1.875   7.611 -0.2138 -2.2378  2.8525
   39POPC  H10Y 5287   7.421   1.924   7.569 -1.9726  0.8824  2.8964
   39POPC  C311 5288   7.422   1.715   7.641  0.6753  0.4635  0.4879
   39POPC  H11X 5289   7.523   1.693   7.598  0.0472  3.8168 -3.0300
   39POPC  H11Y 5290   7.370   1.617   7.640 -0.2022  0.9232  0.9995
   39POPC  C312 5291   7.454   1.772   7.778 -0.2331 -0.1687 -0.2299
   39POPC  H12X 5292   7.473   1.882   7.773 -1.9205  0.1297 -0.4984
   39POPC  H12Y 5293   7.546   1.716   7.804 -0.4546 -1.7298 -2.6757
   39POPC  C313 5294   7.346   1.741   7.883  0.0766  0.0557  0.3952
   39POPC  H13X 5295   7.285   1.652   7.857 -1.9603  1.5165 -0.0477
   39POPC  H13Y 5296   7.281   1.831   7.888  1.7117  1.3068 -0.4620
   39POPC  C314 5297   7.402   1.708   8.023  0.2867  0.1178  0.1154
   39POPC  H14X 5298   7.465   1.618   8.008 -0.7262 -0.2657 -2.0721
   39POPC  H14Y 5299   7.317   1.678   8.087 -0.2100 -0.8706 -0.9830
   39POPC  C315 5300   7.462   1.837   8.091 -0.5675  0.0624  1.2324
   39POPC  H15X 5301   7.370   1.896   8.114 -0.7823 -0.6510  2.2431
   39POPC  H15Y 5302   7.521   1.891   8.014  0.4582 -1.1128  1.1813
   39POPC  C316 5303   7.541   1.821   8.216  0.1057  1.0472 -0.2582
   39POPC  H16X 5304   7.626   1.892   8.224  0.3747  0.8108 -0.9649
   39POPC  H16Y 5305   7.592   1.723   8.220 -0.3223  0.7306 -1.8860
   39POPC  H16Z 5306   7.469   1.832   8.300 -1.0036 -0.1905 -1.0316
   40POPC     N 5307   6.039   0.136   6.138  0.2910 -0.1947 -0.0979
   40POPC   C12 5308   6.159   0.181   6.228 -0.0321 -0.4402  0.0250
   40POPC  H12A 5309   6.148   0.127   6.321  1.3307 -1.5874 -0.4662
   40POPC  H12B 5310   6.142   0.288   6.224  2.6566 -0.0485 -2.8388
   40POPC   C13 5311   6.031  -0.010   6.137 -0.2959  0.2401  0.5958
   40POPC  H13A 5312   6.100  -0.055   6.066 -1.3990 -0.4535 -0.0531
   40POPC  H13B 5313   6.069  -0.050   6.230  0.3402 -2.0952 -0.6210
   40POPC  H13C 5314   5.930  -0.036   6.108  0.4698 -1.9946 -0.2166
   40POPC   C14 5315   5.910   0.189   6.198  0.3083 -0.2644  0.6231
   40POPC  H14A 5316   5.827   0.140   6.148  0.0271 -2.0375  2.7678
   40POPC  H14B 5317   5.905   0.173   6.305  2.0924  0.3562  0.8255
   40POPC  H14C 5318   5.906   0.294   6.174  1.8590 -0.4616 -0.5737
   40POPC   C15 5319   6.048   0.188   5.999 -0.6690 -0.2910 -0.0502
   40POPC  H15A 5320   6.139   0.157   5.950 -0.9217 -0.1736 -0.6055
   40POPC  H15B 5321   6.066   0.294   6.005 -0.2248 -0.4740  2.4253
   40POPC  H15C 5322   5.960   0.160   5.942  0.6887 -0.6771 -2.0309
   40POPC   C11 5323   6.301   0.142   6.185 -0.1493 -0.3111  0.3129
   40POPC  H11A 5324   6.372   0.200   6.248 -0.3154  1.5694 -1.1913
   40POPC  H11B 5325   6.315   0.176   6.080  0.0014 -0.5155  0.2680
   40POPC     P 5326   6.339  -0.095   6.309 -0.2541  0.2604 -0.1255
   40POPC   O13 5327   6.476  -0.089   6.354 -0.7903 -0.4687 -0.5806
   40POPC   O14 5328   6.298  -0.231   6.273 -0.2694  0.4380 -0.7679
   40POPC   O12 5329   6.321   0.002   6.181 -0.4364  0.5444  0.1230
   40POPC   O11 5330   6.230  -0.039   6.416 -0.1790 -0.0447  0.0503
   40POPC    C1 5331   6.271   0.008   6.552 -0.1475 -0.8201  0.9308
   40POPC    HA 5332   6.217   0.105   6.563 -1.7741 -1.3446 -1.7661
   40POPC    HB 5333   6.380   0.031   6.545 -0.1292 -1.5998 -2.0070
   40POPC    C2 5334   6.245  -0.087   6.668 -0.1088  0.5024  0.2968
   40POPC    HS 5335   6.317  -0.171   6.656 -1.9704 -1.2871  1.3324
   40POPC   O21 5336   6.110  -0.132   6.663  0.4110 -0.1677 -0.0961
   40POPC   C21 5337   6.097  -0.260   6.695 -0.2724  1.0424 -0.5945
   40POPC   O22 5338   6.190  -0.344   6.697  0.0794 -0.3011 -0.1783
   40POPC   C22 5339   5.948  -0.287   6.721  0.2331  0.7680 -0.1470
   40POPC   H2R 5340   5.894  -0.275   6.625  0.9679 -1.7219 -0.9307
   40POPC   H2S 5341   5.914  -0.214   6.798  0.4451  0.6190  0.0939
   40POPC    C3 5342   6.262  -0.018   6.805 -0.2455 -0.3477  0.6523
   40POPC    HX 5343   6.160   0.019   6.829 -1.0169  0.0437 -2.9660
   40POPC    HY 5344   6.333   0.068   6.806 -0.7326  0.1078 -1.6435
   40POPC   O31 5345   6.319  -0.114   6.897  0.2361  0.3472  0.6227
   40POPC   C31 5346   6.232  -0.157   6.987 -0.1493 -0.3056 -0.3339
   40POPC   O32 5347   6.109  -0.148   6.981  0.0855 -0.1636 -0.4582
   40POPC   C32 5348   6.305  -0.177   7.125 -0.1063 -0.2436 -0.2312
   40POPC   H2X 5349   6.358  -0.081   7.144 -1.3874  0.3244  0.5926
   40POPC   H2Y 5350   6.377  -0.259   7.109  2.1114  1.7829 -1.0016
   40POPC   C23 5351   5.935  -0.428   6.774  0.1815 -0.3095  0.1703
   40POPC   H3R 5352   6.013  -0.445   6.850 -0.4606  0.0104  0.9077
   40POPC   H3S 5353   5.968  -0.507   6.703 -0.1639  0.5923 -1.0210
   40POPC   C24 5354   5.795  -0.462   6.831 -0.3244 -0.6181  0.8474
   40POPC   H4R 5355   5.790  -0.568   6.865  1.4317 -1.4096 -1.2802
   40POPC   H4S 5356   5.714  -0.435   6.760  0.4968  0.7972  0.4318
   40POPC   C25 5357   5.780  -0.384   6.962  0.5976 -0.5509  0.1542
   40POPC   H5R 5358   5.776  -0.275   6.942  1.9946 -0.8227 -1.8415
   40POPC   H5S 5359   5.872  -0.399   7.022  0.9835  2.0896  0.2733
   40POPC   C26 5360   5.665  -0.437   7.054 -0.1227 -0.4435  0.1292
   40POPC   H6R 5361   5.691  -0.542   7.078  0.0118 -0.5580 -0.5093
   40POPC   H6S 5362   5.569  -0.434   6.997  0.3093  0.5180 -0.5866
   40POPC   C27 5363   5.643  -0.354   7.180  0.2596 -0.0608  0.4086
   40POPC   H7R 5364   5.570  -0.400   7.251  1.1414  0.4763  1.6874
   40POPC   H7S 5365   5.589  -0.268   7.136  2.1760  0.2002 -1.5082
   40POPC   C28 5366   5.776  -0.318   7.258 -0.2902  0.1836 -0.1529
   40POPC   H8R 5367   5.749  -0.251   7.342  2.3216  2.7570 -1.2670
   40POPC   H8S 5368   5.837  -0.261   7.185 -0.0654  0.6501  0.3981
   40POPC   C29 5369   5.850  -0.447   7.290  0.2148 -0.1425 -0.5117
   40POPC   H91 5370   5.935  -0.471   7.224  0.6064  2.3954 -0.9569
   40POPC  C210 5371   5.817  -0.523   7.400  0.9684 -0.4464 -0.2926
   40POPC  H101 5372   5.878  -0.611   7.426  2.2957  0.6240  0.3459
   40POPC  C211 5373   5.710  -0.495   7.510  0.0675 -0.4067 -0.3556
   40POPC  H11R 5374   5.643  -0.584   7.508 -0.9799  0.4026 -2.2256
   40POPC  H11S 5375   5.644  -0.408   7.490 -0.1498 -0.8516 -1.6004
   40POPC  C212 5376   5.778  -0.462   7.641  0.5592  0.0799 -0.5441
   40POPC  H12R 5377   5.822  -0.360   7.641  0.0442  0.3048 -0.0518
   40POPC  H12S 5378   5.863  -0.530   7.666  0.0472  0.4267  2.2744
   40POPC  C213 5379   5.673  -0.469   7.757  0.2187 -0.8414 -0.3588
   40POPC  H13R 5380   5.630  -0.571   7.752 -1.8482  0.0235 -0.3991
   40POPC  H13S 5381   5.596  -0.398   7.720  1.2789  1.0864  1.0172
   40POPC  C214 5382   5.709  -0.427   7.908 -0.4353 -0.6988  0.5754
   40POPC  H14R 5383   5.733  -0.320   7.926  0.0928 -0.8282  0.6517
   40POPC  H14S 5384   5.792  -0.494   7.938 -0.2008 -1.4471 -1.6541
   40POPC  C215 5385   5.588  -0.473   7.996  0.1764  0.4454 -0.0421
   40POPC  H15R 5386   5.537  -0.566   7.964 -1.2360  1.4903 -0.8296
   40POPC  H15S 5387   5.513  -0.393   7.981  0.6510  0.6772 -1.1989
   40POPC  C216 5388   5.630  -0.488   8.145  0.6071  0.7627 -0.4084
   40POPC  H16R 5389   5.685  -0.400   8.185  1.5091  0.3013 -0.6118
   40POPC  H16S 5390   5.699  -0.574   8.132  0.9269  1.0891 -0.8917
   40POPC  C217 5391   5.513  -0.532   8.230 -0.1151  0.2520  0.5755
   40POPC  H17R 5392   5.429  -0.462   8.211 -0.6214  0.0165  1.8970
   40POPC  H17S 5393   5.545  -0.533   8.336 -1.3117 -1.6432  0.9383
   40POPC  C218 5394   5.467  -0.679   8.194 -0.1733  0.1329 -0.3003
   40POPC  H18R 5395   5.552  -0.749   8.183 -0.1315 -0.1343  1.4767
   40POPC  H18S 5396   5.420  -0.679   8.094  0.8334  0.9792 -0.7872
   40POPC  H18T 5397   5.401  -0.717   8.276 -0.7319 -3.3317 -2.2777
   40POPC   C33 5398   6.209  -0.214   7.242 -0.6303  0.3543  0.5156
   40POPC   H3X 5399   6.193  -0.324   7.249  0.0394  0.2992  1.2469
   40POPC   H3Y 5400   6.112  -0.159   7.239  0.1150  1.6122 -1.4942
   40POPC   C34 5401   6.264  -0.176   7.382 -0.7786  0.6815 -0.4237
   40POPC   H4X 5402   6.277  -0.066   7.391 -0.9812  0.5791  1.3488
   40POPC   H4Y 5403   6.353  -0.235   7.413 -1.1320  0.0258 -0.6393
   40POPC   C35 5404   6.152  -0.202   7.487  0.9339 -0.1719 -0.2707
   40POPC   H5X 5405   6.141  -0.312   7.480 -1.3008 -0.1189  1.8742
   40POPC   H5Y 5406   6.053  -0.157   7.464  0.8910  0.1784  0.5794
   40POPC   C36 5407   6.193  -0.156   7.630 -0.0117 -0.7804  0.4495
   40POPC   H6X 5408   6.205  -0.046   7.620 -0.3512 -0.8980 -1.3173
   40POPC   H6Y 5409   6.286  -0.212   7.653  0.4013 -0.9835 -1.6221
   40POPC   C37 5410   6.076  -0.176   7.730 -0.0004  0.3984 -0.0689
   40POPC   H7X 5411   6.045  -0.282   7.721 -0.6151  0.7013 -1.6729
   40POPC   H7Y 5412   5.984  -0.116   7.712 -1.8178 -1.8688  1.4337
   40POPC   C38 5413   6.115  -0.146   7.876  0.4029  0.6784 -0.3853
   40POPC   H8X 5414   6.155  -0.043   7.888 -0.9642  1.1974 -0.1534
   40POPC   H8Y 5415   6.191  -0.226   7.886 -1.3079 -0.7953  1.2466
   40POPC   C39 5416   6.007  -0.150   7.984 -0.3238 -0.0553  0.7980
   40POPC   H9X 5417   6.051  -0.166   8.085 -0.4078  0.4897  0.9232
   40POPC   H9Y 5418   5.931  -0.228   7.962 -0.3630  0.1100  0.3446
   40POPC  C310 5419   5.935  -0.018   7.991  0.0629  0.1974  0.4177
   40POPC  H10X 5420   5.881  -0.001   7.895 -0.6093 -2.0669  0.3684
   40POPC  H10Y 5421   6.007   0.062   8.017  0.9674  0.3557 -2.4336
   40POPC  C311 5422   5.825  -0.016   8.097 -0.2950  0.0066  0.0671
   40POPC  H11X 5423   5.879  -0.033   8.193  1.6980 -1.6129 -1.2888
   40POPC  H11Y 5424   5.748  -0.096   8.090 -0.5695  0.2820 -0.0566
   40POPC  C312 5425   5.747   0.116   8.107  0.5278  0.0711  0.2695
   40POPC  H12X 5426   5.690   0.115   8.012  0.2914  1.8436  0.3708
   40POPC  H12Y 5427   5.811   0.208   8.106 -0.4237  0.8082  2.8968
   40POPC  C313 5428   5.661   0.132   8.230 -0.6915  0.2773 -0.0669
   40POPC  H13X 5429   5.730   0.126   8.317  1.3228  1.7346 -1.5207
   40POPC  H13Y 5430   5.593   0.044   8.234 -0.9711  0.3286 -2.6447
   40POPC  C314 5431   5.588   0.262   8.238  0.0892 -0.0949  0.1905
   40POPC  H14X 5432   5.659   0.348   8.237  0.3168 -0.2598 -2.7152
   40POPC  H14Y 5433   5.530   0.266   8.332  0.3996 -2.8685  0.5287
   40POPC  C315 5434   5.491   0.284   8.117 -0.2546 -0.2898 -0.3549
   40POPC  H15X 5435   5.555   0.301   8.028 -0.2812 -1.2951 -0.5728
   40POPC  H15Y 5436   5.428   0.370   8.148  2.1801  1.0080  1.2057
   40POPC  C316 5437   5.396   0.167   8.088 -0.6065 -0.0429 -0.2345
   40POPC  H16X 5438   5.456   0.075   8.073 -0.5584  0.1366 -1.1814
   40POPC  H16Y 5439   5.329   0.188   8.002 -2.0284  0.6544  1.0189
   40POPC  H16Z 5440   5.328   0.147   8.174  0.2785 -1.7085  0.1032
   41CHL1    C3 5441   5.148   2.827   9.925 -0.4484 -0.6742  0.2160
   41CHL1    H3 5442   5.254   2.797   9.938 -0.8339 -1.2244  2.2409
   41CHL1    O3 5443   5.095   2.844  10.057 -0.8314 -0.2464  0.1209
   41CHL1   H3' 5444   4.999   2.844  10.059 -0.9768  0.2888 -3.1283
   41CHL1    C4 5445   5.151   2.958   9.849 -0.0917  0.7137 -0.0656
   41CHL1   H4A 5446   5.047   2.995   9.856 -1.1238 -1.5427 -2.4888
   41CHL1   H4B 5447   5.203   3.045   9.895  0.4637  0.7396 -0.7229
   41CHL1    C5 5448   5.200   2.935   9.710 -0.2249  0.5883  0.0100
   41CHL1    C6 5449   5.295   3.010   9.658 -0.0270  0.2543 -0.2872
   41CHL1    H6 5450   5.336   3.094   9.716  0.7010 -0.1591 -0.1935
   41CHL1    C7 5451   5.349   3.005   9.519  0.8625 -0.1667 -0.9204
   41CHL1   H7A 5452   5.369   3.107   9.481  2.3476 -0.6223 -1.3934
   41CHL1   H7B 5453   5.447   2.954   9.518  1.3228  0.6362  1.0006
   41CHL1    C8 5454   5.264   2.923   9.423  0.0033  0.1460 -0.1489
   41CHL1    H8 5455   5.178   2.978   9.379  0.3697 -0.1768 -1.2760
   41CHL1   C14 5456   5.343   2.882   9.300  0.3636  0.6354 -0.4426
   41CHL1   H14 5457   5.430   2.819   9.327  0.2471 -0.1142 -1.7518
   41CHL1   C15 5458   5.407   2.992   9.221  0.3916  0.3546 -0.1265
   41CHL1  H15A 5459   5.337   3.078   9.205  0.4342  0.1755 -1.3334
   41CHL1  H15B 5460   5.499   3.030   9.271  0.5674  0.5604 -0.6021
   41CHL1   C16 5461   5.450   2.925   9.085 -0.0312  0.1803  0.2070
   41CHL1  H16A 5462   5.399   2.996   9.017 -0.5289 -0.2082  0.1659
   41CHL1  H16B 5463   5.559   2.924   9.065 -0.1507 -0.3238 -0.4312
   41CHL1   C17 5464   5.381   2.782   9.081  0.1144  0.6031  0.6247
   41CHL1   H17 5465   5.458   2.708   9.113 -0.9635 -0.7476  0.1194
   41CHL1   C13 5466   5.273   2.796   9.191 -0.1122  0.2619 -0.1601
   41CHL1   C18 5467   5.145   2.858   9.130  0.0283  0.4907 -0.2080
   41CHL1  H18A 5468   5.062   2.877   9.202  0.6845  1.4553  0.3097
   41CHL1  H18B 5469   5.170   2.959   9.089 -0.4920  0.7593  0.1177
   41CHL1  H18C 5470   5.101   2.796   9.049  0.8653  0.7263 -0.8511
   41CHL1   C12 5471   5.238   2.663   9.266  0.4510  0.4827  0.4289
   41CHL1  H12A 5472   5.169   2.609   9.198  0.5361  0.6346  0.2209
   41CHL1  H12B 5473   5.328   2.599   9.272  0.0767 -0.2295 -1.2916
   41CHL1   C11 5474   5.150   2.675   9.395 -0.1826  1.0872 -0.1038
   41CHL1  H11A 5475   5.045   2.693   9.362 -0.7633 -2.7682 -0.6315
   41CHL1  H11B 5476   5.147   2.575   9.443  0.2070  0.8196 -0.6310
   41CHL1    C9 5477   5.211   2.790   9.497 -0.0384 -0.4846 -0.4979
   41CHL1    H9 5478   5.314   2.754   9.519  0.0444  0.9459  1.5991
   41CHL1   C10 5479   5.139   2.824   9.626  0.7097 -0.2050  0.9972
   41CHL1   C19 5480   4.999   2.868   9.589  0.0919  0.2734 -0.4977
   41CHL1  H19A 5481   5.002   2.952   9.515  1.1746  0.2125 -0.5387
   41CHL1  H19B 5482   4.948   2.784   9.537  0.3572 -0.2303  0.0658
   41CHL1  H19C 5483   4.917   2.888   9.661 -0.4639  1.7417 -1.4942
   41CHL1    C1 5484   5.122   2.694   9.716 -0.4895  0.0361  0.2356
   41CHL1   H1A 5485   5.048   2.628   9.665 -0.1778  1.0159 -1.5212
   41CHL1   H1B 5486   5.219   2.639   9.717 -1.8884 -2.6122 -1.7822
   41CHL1    C2 5487   5.064   2.725   9.858  0.0330  0.1207 -0.3065
   41CHL1   H2A 5488   5.075   2.634   9.921  0.2728  0.6916  0.4766
   41CHL1   H2B 5489   4.959   2.761   9.849 -0.2810 -1.1576 -2.2120
   41CHL1   C20 5490   5.337   2.751   8.941 -0.8290 -0.0129  0.0561
   41CHL1   H20 5491   5.264   2.827   8.907 -1.2702 -1.3595 -2.0812
   41CHL1   C21 5492   5.265   2.616   8.938  0.1143  0.1439  0.5885
   41CHL1  H21A 5493   5.166   2.611   8.989  0.3687  5.9808  2.0338
   41CHL1  H21B 5494   5.326   2.541   8.993 -0.5941 -1.4323 -0.7494
   41CHL1  H21C 5495   5.246   2.593   8.831  0.2191  1.7809  0.2022
   41CHL1   C22 5496   5.451   2.750   8.841  0.4327 -0.3068  0.0586
   41CHL1  H22A 5497   5.418   2.710   8.743 -1.4791 -1.2569  1.0804
   41CHL1  H22B 5498   5.495   2.850   8.820  1.5830 -0.7119  0.4986
   41CHL1   C23 5499   5.574   2.664   8.874 -0.5914  0.4306  0.0621
   41CHL1  H23A 5500   5.617   2.702   8.969  2.2806  2.7402 -2.0382
   41CHL1  H23B 5501   5.547   2.562   8.909  1.8299 -0.5680 -0.8326
   41CHL1   C24 5502   5.683   2.669   8.771  0.5002 -0.2852  0.0318
   41CHL1  H24A 5503   5.640   2.629   8.676  2.1769 -2.7696  0.2638
   41CHL1  H24B 5504   5.719   2.773   8.755  0.1523 -0.2665 -0.6664
   41CHL1   C25 5505   5.820   2.608   8.807  0.5475 -0.1946 -0.3996
   41CHL1   H25 5506   5.787   2.522   8.870  2.2965  0.6620  1.7381
   41CHL1   C26 5507   5.904   2.561   8.687 -0.1444  0.3731 -0.0162
   41CHL1  H26A 5508   5.998   2.518   8.727  0.3855  1.2147 -0.3445
   41CHL1  H26B 5509   5.845   2.495   8.619  0.6601  0.6404 -0.9837
   41CHL1  H26C 5510   5.917   2.656   8.630 -1.4403  0.8444  0.4453
   41CHL1   C27 5511   5.901   2.687   8.908  0.0131 -0.1212  0.5016
   41CHL1  H27A 5512   5.937   2.781   8.861  0.2833  0.2510  1.4334
   41CHL1  H27B 5513   5.836   2.728   8.988  0.5313  3.1273 -0.6748
   41CHL1  H27C 5514   5.987   2.633   8.953  1.0495  0.5423 -0.6590
   42CHL1    C3 5515   4.868   2.022   9.917 -0.2727  0.1487 -0.8309
   42CHL1    H3 5516   4.972   2.057   9.901  0.0665  0.5617  1.9741
   42CHL1    O3 5517   4.845   1.998  10.051  0.0962 -0.2044 -0.6364
   42CHL1   H3' 5518   4.751   1.980  10.062 -0.3103  1.8853 -0.5177
   42CHL1    C4 5519   4.774   2.135   9.855  0.5266  0.5489  0.4142
   42CHL1   H4A 5520   4.666   2.109   9.853  0.4628  0.8132  0.4997
   42CHL1   H4B 5521   4.789   2.221   9.923  4.2050  0.0842  0.2867
   42CHL1    C5 5522   4.824   2.163   9.717  0.3906  0.0770  1.0954
   42CHL1    C6 5523   4.880   2.282   9.679 -1.2542  0.0630  0.4286
   42CHL1    H6 5524   4.895   2.367   9.748  0.4600  1.3843 -1.5197
   42CHL1    C7 5525   4.929   2.309   9.543 -0.3332 -0.6907 -0.1694
   42CHL1   H7A 5526   4.896   2.407   9.502 -1.3085  0.8964  4.1260
   42CHL1   H7B 5527   5.038   2.324   9.551 -0.5459  3.6554 -3.1632
   42CHL1    C8 5528   4.901   2.199   9.430  0.3547 -0.8028  0.3879
   42CHL1    H8 5529   4.801   2.237   9.400  0.6447  0.7032  1.2814
   42CHL1   C14 5530   5.005   2.210   9.319  0.2874 -0.1665  0.1562
   42CHL1   H14 5531   5.100   2.173   9.365 -1.5327 -2.1756  2.4685
   42CHL1   C15 5532   5.044   2.355   9.267 -0.4504 -0.3232 -0.5400
   42CHL1  H15A 5533   4.953   2.416   9.252  0.2749  1.4109  1.7681
   42CHL1  H15B 5534   5.102   2.403   9.349 -1.7725 -0.6828  0.6254
   42CHL1   C16 5535   5.113   2.319   9.131 -0.1943 -1.0091  0.4280
   42CHL1  H16A 5536   5.077   2.398   9.062  3.8714 -0.0711 -0.7700
   42CHL1  H16B 5537   5.224   2.332   9.133 -0.1539 -1.4940  2.9892
   42CHL1   C17 5538   5.088   2.173   9.104 -0.3197  0.7551  0.4397
   42CHL1   H17 5539   5.175   2.116   9.141 -1.0772  0.2556  1.4552
   42CHL1   C13 5540   4.978   2.119   9.198 -0.4897 -0.2077 -0.3024
   42CHL1   C18 5541   4.838   2.162   9.140 -0.2163  0.3780 -0.1625
   42CHL1  H18A 5542   4.754   2.174   9.212 -0.0388  0.9517 -0.0468
   42CHL1  H18B 5543   4.843   2.260   9.087  2.1054  0.5286  0.3077
   42CHL1  H18C 5544   4.806   2.085   9.067  0.0415  2.1350 -2.1777
   42CHL1   C12 5545   4.987   1.973   9.252 -0.0716  0.4192 -0.1624
   42CHL1  H12A 5546   4.965   1.901   9.170  1.6651 -0.5849  0.2476
   42CHL1  H12B 5547   5.087   1.954   9.294 -0.2289  1.3489  0.6521
   42CHL1   C11 5548   4.879   1.949   9.369  0.7023 -0.1013  1.2863
   42CHL1  H11A 5549   4.778   1.955   9.324  0.9280 -0.0831  0.7676
   42CHL1  H11B 5550   4.877   1.848   9.415  2.4993 -0.3511  0.8919
   42CHL1    C9 5551   4.896   2.054   9.484 -0.4208 -0.3642 -0.1134
   42CHL1    H9 5552   4.999   2.042   9.525 -0.0287 -0.1500 -1.0341
   42CHL1   C10 5553   4.809   2.036   9.612  0.1138 -0.3813 -0.5606
   42CHL1   C19 5554   4.670   2.028   9.575  0.6085 -0.0444 -0.7503
   42CHL1  H19A 5555   4.644   2.115   9.511  1.7152  1.5420  0.9077
   42CHL1  H19B 5556   4.643   1.933   9.524 -0.1011 -0.2475 -0.0022
   42CHL1  H19C 5557   4.592   2.038   9.654  1.7995  0.8643  0.3359
   42CHL1    C1 5558   4.856   1.911   9.690 -0.4474  0.6564 -0.3611
   42CHL1   H1A 5559   4.823   1.818   9.638 -2.0806  0.9502  0.1249
   42CHL1   H1B 5560   4.967   1.912   9.684 -0.4474 -0.9490 -1.0334
   42CHL1    C2 5561   4.827   1.891   9.835 -0.6445 -0.0910 -0.2531
   42CHL1   H2A 5562   4.880   1.810   9.890 -2.4585  0.1417  1.9273
   42CHL1   H2B 5563   4.717   1.876   9.841 -0.6291  0.7209  2.7420
   42CHL1   C20 5564   5.066   2.154   8.949 -0.4557  0.0525 -0.4514
   42CHL1   H20 5565   4.971   2.205   8.922 -0.3998  0.9825  1.0587
   42CHL1   C21 5566   5.044   2.007   8.918 -0.0006  0.3605  0.0799
   42CHL1  H21A 5567   5.111   1.935   8.970  1.5877  1.4503 -0.4206
   42CHL1  H21B 5568   5.064   1.983   8.812  4.6508  3.1968  0.1844
   42CHL1  H21C 5569   4.942   1.979   8.953 -0.6680  1.4296 -0.9608
   42CHL1   C22 5570   5.175   2.220   8.861  0.2062  0.3587 -0.7244
   42CHL1  H22A 5571   5.158   2.192   8.755 -0.2126 -0.3400 -0.4726
   42CHL1  H22B 5572   5.184   2.330   8.875 -2.3388  0.3511  1.3163
   42CHL1   C23 5573   5.310   2.171   8.891  0.8380 -0.5554  0.1306
   42CHL1  H23A 5574   5.333   2.178   9.000  0.1796  0.7243  0.1899
   42CHL1  H23B 5575   5.297   2.064   8.863  2.6975 -0.7470 -0.0254
   42CHL1   C24 5576   5.422   2.236   8.810 -0.5588 -0.4419  0.1596
   42CHL1  H24A 5577   5.440   2.338   8.851  0.8357 -1.0425  1.0576
   42CHL1  H24B 5578   5.513   2.179   8.838 -0.0572  1.0875  1.7425
   42CHL1   C25 5579   5.408   2.254   8.661  0.2995 -0.3326 -0.2742
   42CHL1   H25 5580   5.306   2.295   8.646 -0.0056 -0.9482  0.0920
   42CHL1   C26 5581   5.507   2.354   8.596  0.4469  0.2837 -0.0096
   42CHL1  H26A 5582   5.495   2.454   8.644 -1.9175 -1.0360  2.2255
   42CHL1  H26B 5583   5.608   2.309   8.608  0.1552 -0.3463  0.0563
   42CHL1  H26C 5584   5.491   2.381   8.489 -0.4687 -1.3393 -0.2882
   42CHL1   C27 5585   5.424   2.112   8.596 -0.1824 -0.4252  0.1131
   42CHL1  H27A 5586   5.392   2.112   8.490  2.1338 -0.4722 -0.6056
   42CHL1  H27B 5587   5.525   2.066   8.598 -0.8231 -1.9115 -0.6559
   42CHL1  H27C 5588   5.364   2.034   8.649 -0.2382 -0.1444  0.4622
   43CHL1    C3 5589   5.475   2.403  10.080  0.1396 -0.3859  0.0054
   43CHL1    H3 5590   5.575   2.451  10.085  0.2413 -0.6199  0.1937
   43CHL1    O3 5591   5.410   2.427  10.201 -0.4396 -0.3204 -0.0081
   43CHL1   H3' 5592   5.456   2.375  10.267 -0.3150 -0.6339 -0.3356
   43CHL1    C4 5593   5.398   2.478   9.962 -0.2742  0.5724  0.3846
   43CHL1   H4A 5594   5.295   2.441   9.984 -0.0438 -0.1067  0.3406
   43CHL1   H4B 5595   5.401   2.584   9.994  2.5209  0.6927 -0.1718
   43CHL1    C5 5596   5.444   2.447   9.821 -0.1389  0.0799 -0.8398
   43CHL1    C6 5597   5.470   2.549   9.739 -0.1736  0.3183  0.0403
   43CHL1    H6 5598   5.448   2.650   9.776  1.8127  0.7363  0.1590
   43CHL1    C7 5599   5.525   2.530   9.607 -0.2430  0.2414  0.1188
   43CHL1   H7A 5600   5.468   2.605   9.547 -1.2366  0.3898  1.2276
   43CHL1   H7B 5601   5.633   2.556   9.609 -0.1092 -0.4099  3.8396
   43CHL1    C8 5602   5.496   2.386   9.557  0.1088 -0.2144 -0.0454
   43CHL1    H8 5603   5.389   2.370   9.534  0.8271 -2.4871 -1.9073
   43CHL1   C14 5604   5.585   2.366   9.437  0.3910 -0.6347 -0.2538
   43CHL1   H14 5605   5.690   2.377   9.472 -0.8561 -1.4178  4.0785
   43CHL1   C15 5606   5.575   2.460   9.313 -0.0461  0.3824  0.0018
   43CHL1  H15A 5607   5.471   2.477   9.276 -0.3531  2.7438  1.8366
   43CHL1  H15B 5608   5.624   2.556   9.338  0.9621 -0.2000  0.2961
   43CHL1   C16 5609   5.647   2.384   9.195  0.1616  0.0538  0.5798
   43CHL1  H16A 5610   5.571   2.376   9.114 -0.4925 -1.4467  1.3245
   43CHL1  H16B 5611   5.738   2.440   9.164  1.3770 -1.6057  1.0942
   43CHL1   C17 5612   5.670   2.237   9.245  0.4520 -0.0305 -0.1825
   43CHL1   H17 5613   5.770   2.240   9.292 -0.5443  1.7695  1.9676
   43CHL1   C13 5614   5.582   2.216   9.379  0.1053  0.0174 -0.1932
   43CHL1   C18 5615   5.438   2.179   9.330  0.0705  0.5649  0.5703
   43CHL1  H18A 5616   5.428   2.078   9.285  0.4156  1.4548 -1.5832
   43CHL1  H18B 5617   5.363   2.202   9.408 -1.7452 -2.2120 -0.2615
   43CHL1  H18C 5618   5.416   2.248   9.245  1.0323  2.1658  1.5914
   43CHL1   C12 5619   5.635   2.125   9.489  0.2167  0.1356 -0.5009
   43CHL1  H12A 5620   5.636   2.021   9.450 -0.1999 -0.2038  0.3756
   43CHL1  H12B 5621   5.739   2.159   9.505 -0.2963  1.6665 -0.2909
   43CHL1   C11 5622   5.549   2.143   9.614 -0.3089  0.1486 -0.0074
   43CHL1  H11A 5623   5.450   2.102   9.588  0.0434 -0.6367 -0.1423
   43CHL1  H11B 5624   5.600   2.079   9.690  0.8306  1.0920  0.0411
   43CHL1    C9 5625   5.544   2.290   9.666 -0.2033 -0.0595 -0.8739
   43CHL1    H9 5626   5.650   2.305   9.696 -0.8066  1.0510  0.7518
   43CHL1   C10 5627   5.458   2.301   9.800  0.3462 -0.4677 -0.2122
   43CHL1   C19 5628   5.313   2.242   9.782  0.6951 -0.1263 -0.1025
   43CHL1  H19A 5629   5.259   2.290   9.698  0.4177 -0.1763  0.0481
   43CHL1  H19B 5630   5.315   2.133   9.761  1.8894 -0.1627  0.1574
   43CHL1  H19C 5631   5.247   2.250   9.871 -0.3055  0.2045 -0.8638
   43CHL1    C1 5632   5.538   2.230   9.911 -0.1295  0.3317 -0.3739
   43CHL1   H1A 5633   5.525   2.121   9.895  1.5887 -0.2410  1.8640
   43CHL1   H1B 5634   5.648   2.233   9.894 -0.1399 -0.2587 -0.5518
   43CHL1    C2 5635   5.485   2.255  10.048 -0.0619 -0.5277 -0.3278
   43CHL1   H2A 5636   5.558   2.207  10.117  1.5879 -0.1692 -1.7862
   43CHL1   H2B 5637   5.388   2.208  10.072 -0.8406  1.6656  0.9833
   43CHL1   C20 5638   5.656   2.129   9.132  0.0670 -0.4976  0.7041
   43CHL1   H20 5639   5.563   2.136   9.072 -1.5758 -1.6723  3.0038
   43CHL1   C21 5640   5.670   1.982   9.179  0.2409 -0.2230  0.1381
   43CHL1  H21A 5641   5.681   1.913   9.093 -0.9699 -0.8171  0.4439
   43CHL1  H21B 5642   5.588   1.950   9.247  0.5067 -0.0525  0.5408
   43CHL1  H21C 5643   5.758   1.969   9.246  0.8873 -1.0300 -0.8525
   43CHL1   C22 5644   5.776   2.161   9.039  0.2833  0.5235 -0.1376
   43CHL1  H22A 5645   5.767   2.271   9.020 -0.7722  0.2637 -1.2443
   43CHL1  H22B 5646   5.879   2.148   9.077 -0.0060  1.3604  0.9655
   43CHL1   C23 5647   5.769   2.084   8.908 -0.0029  0.0584 -0.1857
   43CHL1  H23A 5648   5.806   1.980   8.924  0.5981  0.2794 -0.1327
   43CHL1  H23B 5649   5.671   2.053   8.867  0.0652 -0.9715  0.3907
   43CHL1   C24 5650   5.843   2.156   8.787 -0.0445 -0.3970 -0.2043
   43CHL1  H24A 5651   5.771   2.239   8.771  0.7802 -0.0916 -2.5940
   43CHL1  H24B 5652   5.943   2.186   8.826 -0.2375  0.6583 -0.5050
   43CHL1   C25 5653   5.862   2.070   8.665 -0.8050  0.2158  0.3442
   43CHL1   H25 5654   5.768   2.016   8.641  0.2358 -2.7333  2.5229
   43CHL1   C26 5655   5.891   2.148   8.541 -0.5690 -0.0872  0.1278
   43CHL1  H26A 5656   5.915   2.077   8.460  0.6145  0.1594  0.2623
   43CHL1  H26B 5657   5.797   2.199   8.509  0.3969  0.1666 -2.4087
   43CHL1  H26C 5658   5.970   2.226   8.543  1.3749 -2.0414  1.4050
   43CHL1   C27 5659   5.982   1.969   8.692  0.7360  0.2167  0.2532
   43CHL1  H27A 5660   5.995   1.898   8.608 -1.4585 -0.2733  0.2894
   43CHL1  H27B 5661   6.076   2.021   8.718  1.5111 -1.5818  1.1650
   43CHL1  H27C 5662   5.955   1.897   8.773 -0.0053 -0.3394 -0.4864
   44CHL1    C3 5663   5.657   2.841  10.302  0.1212 -0.9761 -0.1622
   44CHL1    H3 5664   5.746   2.775  10.297 -0.4478 -1.6367 -2.2773
   44CHL1    O3 5665   5.584   2.836  10.424 -0.1865 -0.6419  0.3233
   44CHL1   H3' 5666   5.574   2.926  10.454 -0.8592 -0.6616  0.1746
   44CHL1    C4 5667   5.709   2.981  10.269  0.5639  0.2791 -0.3125
   44CHL1   H4A 5668   5.625   3.051  10.290 -0.7551 -0.8702 -1.6064
   44CHL1   H4B 5669   5.784   3.013  10.344  0.7567  0.3387 -0.5301
   44CHL1    C5 5670   5.766   2.985  10.121  0.4190  0.1488 -0.1974
   44CHL1    C6 5671   5.892   3.028  10.092  0.5615 -0.4272  0.4186
   44CHL1    H6 5672   5.966   3.056  10.168  2.1329 -2.9082 -0.1390
   44CHL1    C7 5673   5.940   3.059   9.950 -0.0778 -0.5644 -0.8356
   44CHL1   H7A 5674   5.987   3.160   9.948  0.5779 -0.8169  0.6598
   44CHL1   H7B 5675   6.022   2.987   9.928 -0.9944 -1.6782 -0.6905
   44CHL1    C8 5676   5.832   3.049   9.841  0.2038 -0.1956  0.2114
   44CHL1    H8 5677   5.784   3.149   9.839 -0.9190 -0.7384 -0.9822
   44CHL1   C14 5678   5.902   3.034   9.702 -0.5442 -0.2956  0.3236
   44CHL1   H14 5679   5.958   2.939   9.706 -1.7539 -1.0029  0.5662
   44CHL1   C15 5680   5.994   3.146   9.659  0.4290 -0.0634 -0.4728
   44CHL1  H15A 5681   5.951   3.247   9.672 -0.8809 -0.5872 -0.7326
   44CHL1  H15B 5682   6.089   3.145   9.718  1.4588 -0.0557 -2.0827
   44CHL1   C16 5683   6.005   3.125   9.503 -0.3797 -0.5660 -0.7626
   44CHL1  H16A 5684   5.971   3.212   9.443 -0.2701  1.0330  1.4321
   44CHL1  H16B 5685   6.107   3.102   9.466  1.2338  1.1853  2.3375
   44CHL1   C17 5686   5.900   3.014   9.463  0.4008  0.5451 -0.4483
   44CHL1   H17 5687   5.965   2.924   9.472  0.9122  0.6321 -3.0508
   44CHL1   C13 5688   5.809   3.017   9.579  0.3756 -0.0177  0.0290
   44CHL1   C18 5689   5.724   3.144   9.566 -0.6923  0.0523 -0.3578
   44CHL1  H18A 5690   5.788   3.228   9.533  0.2751 -0.7084 -0.4545
   44CHL1  H18B 5691   5.639   3.122   9.498 -1.6470  1.1613  0.4506
   44CHL1  H18C 5692   5.693   3.173   9.669  2.0038  0.3392  0.3983
   44CHL1   C12 5693   5.713   2.907   9.608 -0.1347  0.6333 -0.5733
   44CHL1  H12A 5694   5.634   2.901   9.530 -0.0802 -0.6198 -0.5511
   44CHL1  H12B 5695   5.769   2.811   9.602  0.2143  0.7171  1.1841
   44CHL1   C11 5696   5.639   2.925   9.741  0.2383 -0.1110  0.3689
   44CHL1  H11A 5697   5.560   3.002   9.739 -0.7399 -1.1186 -0.1217
   44CHL1  H11B 5698   5.587   2.827   9.748 -1.8697  0.8518 -1.5015
   44CHL1    C9 5699   5.738   2.937   9.867  0.3062  1.0310 -0.8154
   44CHL1    H9 5700   5.802   2.846   9.860 -0.2348  0.5363  0.5082
   44CHL1   C10 5701   5.667   2.947  10.012 -0.3475  0.3387  0.1569
   44CHL1   C19 5702   5.555   3.057   9.990  0.3090  0.4068  0.2982
   44CHL1  H19A 5703   5.602   3.149   9.948 -0.0486  0.8964  0.9586
   44CHL1  H19B 5704   5.467   3.023   9.933  1.3165 -0.3274 -0.8459
   44CHL1  H19C 5705   5.524   3.091  10.092  2.5543  1.4406  0.6769
   44CHL1    C1 5706   5.611   2.807  10.051 -0.7535 -0.0823  0.2303
   44CHL1   H1A 5707   5.530   2.793   9.976  1.0228 -2.3065 -1.3359
   44CHL1   H1B 5708   5.692   2.733  10.033  1.0955  1.7867  0.6518
   44CHL1    C2 5709   5.557   2.794  10.194 -0.6649 -0.5277  0.5895
   44CHL1   H2A 5710   5.525   2.689  10.206 -2.5337 -0.1256 -0.6249
   44CHL1   H2B 5711   5.466   2.857  10.188  0.4312  0.9222 -2.1094
   44CHL1   C20 5712   5.852   3.031   9.321 -0.4067  0.2045 -0.2118
   44CHL1   H20 5713   5.776   3.112   9.321 -0.5579  0.0666  0.4670
   44CHL1   C21 5714   5.785   2.898   9.272  0.0541  0.3308  0.1266
   44CHL1  H21A 5715   5.740   2.918   9.172 -0.5288  2.5725  0.8061
   44CHL1  H21B 5716   5.703   2.861   9.337 -0.8593 -0.0233 -1.1986
   44CHL1  H21C 5717   5.865   2.821   9.275  2.6353  2.8884 -0.5560
   44CHL1   C22 5718   5.955   3.084   9.219 -0.5994  0.4203 -0.4257
   44CHL1  H22A 5719   5.900   3.087   9.122 -0.2589  0.5672 -0.6130
   44CHL1  H22B 5720   5.984   3.190   9.231 -0.5434  0.3869 -0.2792
   44CHL1   C23 5721   6.079   3.005   9.207 -0.2115  0.3357  0.3773
   44CHL1  H23A 5722   6.131   2.988   9.304 -0.1402  2.7038  0.7669
   44CHL1  H23B 5723   6.055   2.904   9.166  1.0064  0.8984 -1.8044
   44CHL1   C24 5724   6.165   3.070   9.095 -0.5525 -0.4122  0.3895
   44CHL1  H24A 5725   6.095   3.094   9.012  0.6207  1.5353 -0.0641
   44CHL1  H24B 5726   6.210   3.161   9.140  0.5009  0.0080 -1.4490
   44CHL1   C25 5727   6.284   2.976   9.044 -0.2158 -0.5359  0.2713
   44CHL1   H25 5728   6.347   3.045   8.983 -0.9728  0.4673  0.6119
   44CHL1   C26 5729   6.362   2.917   9.158 -0.7123  0.1913 -0.6794
   44CHL1  H26A 5730   6.296   2.851   9.218 -0.2119  0.9131  0.6777
   44CHL1  H26B 5731   6.448   2.857   9.121 -2.2490 -2.0323 -0.7154
   44CHL1  H26C 5732   6.407   2.996   9.222  1.0499 -0.6419 -0.8570
   44CHL1   C27 5733   6.221   2.866   8.962  0.2729 -0.1012 -0.6671
   44CHL1  H27A 5734   6.288   2.810   8.893 -1.7345 -2.8164 -0.4876
   44CHL1  H27B 5735   6.172   2.785   9.020  0.8707 -1.0146 -1.4197
   44CHL1  H27C 5736   6.150   2.908   8.887  0.9789 -0.1593 -1.3683
   45CHL1    C3 5737   2.718   1.508  10.222  0.3073 -0.8081  0.0587
   45CHL1    H3 5738   2.776   1.419  10.253  1.4119  0.7082  2.4331
   45CHL1    O3 5739   2.663   1.570  10.335 -0.7731  0.2025 -0.2635
   45CHL1   H3' 5740   2.691   1.661  10.349  0.4663 -0.2886  0.4747
   45CHL1    C4 5741   2.817   1.609  10.154  0.8192  0.6325 -0.0437
   45CHL1   H4A 5742   2.763   1.704  10.137 -1.1980 -0.7374 -1.5546
   45CHL1   H4B 5743   2.892   1.624  10.235 -1.2816 -1.0707  2.3393
   45CHL1    C5 5744   2.874   1.537  10.030  0.1609 -0.1607  0.1742
   45CHL1    C6 5745   3.007   1.535  10.020 -0.6156 -0.3830 -0.1253
   45CHL1    H6 5746   3.061   1.574  10.108 -0.9624 -1.1757  0.4428
   45CHL1    C7 5747   3.089   1.473   9.909  0.3198 -0.2748  0.4383
   45CHL1   H7A 5748   3.164   1.540   9.862 -0.9526  1.3987  0.7589
   45CHL1   H7B 5749   3.145   1.386   9.949  0.7227 -0.4814 -0.5430
   45CHL1    C8 5750   3.006   1.404   9.789  0.3484  0.4568  0.3082
   45CHL1    H8 5751   3.048   1.303   9.769 -1.7394 -0.2928 -0.5198
   45CHL1   C14 5752   3.013   1.472   9.651  0.3869  0.3366  0.8885
   45CHL1   H14 5753   2.962   1.569   9.669 -0.4939  0.1575 -0.5901
   45CHL1   C15 5754   3.154   1.496   9.589 -0.1979  0.3473 -0.6937
   45CHL1  H15A 5755   3.184   1.603   9.600 -0.8230  0.3630  1.0444
   45CHL1  H15B 5756   3.228   1.434   9.645 -0.3323 -0.1926 -1.1094
   45CHL1   C16 5757   3.143   1.455   9.448  0.3093 -0.1082 -0.1630
   45CHL1  H16A 5758   3.107   1.548   9.398  3.7345  1.6680  0.5507
   45CHL1  H16B 5759   3.237   1.428   9.397  0.0051 -1.2260 -0.1457
   45CHL1   C17 5760   3.037   1.352   9.439 -0.2177  0.7497  0.3181
   45CHL1   H17 5761   3.080   1.270   9.500  1.1345  1.8912  0.9305
   45CHL1   C13 5762   2.931   1.392   9.541  0.2175 -1.0103  0.0232
   45CHL1   C18 5763   2.838   1.499   9.469 -0.3639  0.4397  0.5214
   45CHL1  H18A 5764   2.761   1.531   9.543  0.1047 -0.4739  1.4291
   45CHL1  H18B 5765   2.898   1.587   9.439  0.7634 -0.6934 -0.6038
   45CHL1  H18C 5766   2.776   1.454   9.389  2.0122  1.3807 -1.9179
   45CHL1   C12 5767   2.846   1.272   9.594 -0.7549 -0.3164  0.2993
   45CHL1  H12A 5768   2.789   1.240   9.504  0.8189  1.0792 -1.2406
   45CHL1  H12B 5769   2.917   1.192   9.623  0.7739  2.0380  3.3457
   45CHL1   C11 5770   2.767   1.307   9.722  0.3176 -0.3036 -0.0842
   45CHL1  H11A 5771   2.676   1.366   9.702  0.9857  0.1435 -1.9422
   45CHL1  H11B 5772   2.718   1.212   9.751  1.3858 -1.5754 -2.2649
   45CHL1    C9 5773   2.858   1.375   9.835  0.1369  0.0266  0.4178
   45CHL1    H9 5774   2.888   1.289   9.898  1.4662 -0.5451 -0.9682
   45CHL1   C10 5775   2.779   1.472   9.929 -0.0544 -0.2263  0.4192
   45CHL1   C19 5776   2.714   1.594   9.857  0.5385  0.1589 -0.0681
   45CHL1  H19A 5777   2.779   1.646   9.784 -0.1167  0.1316 -0.6785
   45CHL1  H19B 5778   2.633   1.560   9.789  1.7829 -0.9790 -0.9913
   45CHL1  H19C 5779   2.665   1.666   9.927  0.7400  0.7958 -0.5712
   45CHL1    C1 5780   2.664   1.396  10.004  0.6295  0.3515 -0.0411
   45CHL1   H1A 5781   2.582   1.371   9.933  2.5974 -1.7386 -1.6145
   45CHL1   H1B 5782   2.700   1.302  10.053  2.6167  1.7484  1.2275
   45CHL1    C2 5783   2.607   1.463  10.129 -0.5894 -0.3753  0.4314
   45CHL1   H2A 5784   2.525   1.402  10.174  0.9842 -0.6554  2.9991
   45CHL1   H2B 5785   2.548   1.555  10.106  0.0233  0.7699  3.1975
   45CHL1   C20 5786   3.002   1.290   9.304  0.0197  0.2016 -0.0237
   45CHL1   H20 5787   2.903   1.241   9.315 -0.0185  0.6207  1.6090
   45CHL1   C21 5788   3.111   1.188   9.266 -0.0801 -0.0128 -0.0316
   45CHL1  H21A 5789   3.111   1.120   9.353  1.4225  1.1004  0.8804
   45CHL1  H21B 5790   3.212   1.234   9.276 -0.4154  0.3901  1.5759
   45CHL1  H21C 5791   3.092   1.123   9.178  0.0820  2.3396 -1.8732
   45CHL1   C22 5792   2.990   1.394   9.191  0.1168 -0.3769  0.1001
   45CHL1  H22A 5793   2.935   1.482   9.232  1.5237  1.0635 -1.0205
   45CHL1  H22B 5794   3.090   1.426   9.155 -0.9162  0.1294 -2.5044
   45CHL1   C23 5795   2.911   1.348   9.068 -0.1129 -0.1420  0.4011
   45CHL1  H23A 5796   2.945   1.243   9.055  1.1027  0.4260 -1.2005
   45CHL1  H23B 5797   2.801   1.338   9.076 -0.1605 -0.5960 -0.7832
   45CHL1   C24 5798   2.937   1.430   8.942  0.3898 -0.0710 -0.7346
   45CHL1  H24A 5799   2.929   1.539   8.964 -2.1146 -0.4463  0.4403
   45CHL1  H24B 5800   3.043   1.405   8.917  0.3369 -1.7548  0.6435
   45CHL1   C25 5801   2.843   1.395   8.818 -0.1317  0.2427 -0.0394
   45CHL1   H25 5802   2.738   1.411   8.851  0.0822  2.1712 -0.2309
   45CHL1   C26 5803   2.875   1.509   8.720  0.2524 -0.2632  0.6456
   45CHL1  H26A 5804   2.830   1.604   8.755  1.3193  1.0874 -1.5236
   45CHL1  H26B 5805   2.985   1.515   8.706  0.0351  0.1692 -0.9892
   45CHL1  H26C 5806   2.822   1.484   8.626  0.2616 -1.1029  0.8631
   45CHL1   C27 5807   2.871   1.254   8.769  0.1270  0.1962  0.9239
   45CHL1  H27A 5808   2.978   1.251   8.739 -0.1871 -0.0685 -0.1776
   45CHL1  H27B 5809   2.845   1.177   8.845 -2.1158  0.2170  0.2090
   45CHL1  H27C 5810   2.808   1.231   8.681 -2.2587  1.0269  2.3556
   46CHL1    C3 5811   5.832   6.249  10.133  0.4584  0.5305 -0.2201
   46CHL1    H3 5812   5.789   6.147  10.138  2.1148 -0.1272  0.7571
   46CHL1    O3 5813   5.871   6.303  10.260  0.9992  0.0098  0.4509
   46CHL1   H3' 5814   5.791   6.326  10.309 -0.0030  1.4272 -1.7314
   46CHL1    C4 5815   5.964   6.255  10.051 -0.0696 -0.1255  0.3055
   46CHL1   H4A 5816   6.009   6.354  10.075 -0.2158 -0.1524  0.6923
   46CHL1   H4B 5817   6.029   6.176  10.094  0.5969 -0.1774 -0.7779
   46CHL1    C5 5818   5.940   6.229   9.901  0.2709 -0.7583  0.0105
   46CHL1    C6 5819   6.011   6.133   9.842 -0.1150 -0.5945 -0.1509
   46CHL1    H6 5820   6.086   6.079   9.901 -0.5363 -0.9352  0.0773
   46CHL1    C7 5821   5.996   6.098   9.693  0.5218 -0.5796 -0.3788
   46CHL1   H7A 5822   6.097   6.093   9.647  1.0926 -1.4660  0.9508
   46CHL1   H7B 5823   5.942   6.003   9.676 -0.2062  0.3367 -3.6679
   46CHL1    C8 5824   5.916   6.199   9.615 -0.0573 -0.2941 -0.2799
   46CHL1    H8 5825   5.976   6.292   9.605 -1.4573  0.5641 -0.9080
   46CHL1   C14 5826   5.850   6.144   9.487  0.1895  0.7941 -0.1450
   46CHL1   H14 5827   5.766   6.079   9.521  2.1260 -1.6080  0.1917
   46CHL1   C15 5828   5.930   6.046   9.395 -0.1080 -0.5140 -0.4212
   46CHL1  H15A 5829   6.030   6.085   9.369 -0.7126  1.9720  0.8321
   46CHL1  H15B 5830   5.953   5.946   9.437  3.6847  0.4761  0.0579
   46CHL1   C16 5831   5.842   6.033   9.266 -0.1038  0.6912 -0.3716
   46CHL1  H16A 5832   5.909   6.044   9.178  1.9246  1.2574  1.2186
   46CHL1  H16B 5833   5.809   5.928   9.256 -1.4405  0.9134  1.3790
   46CHL1   C17 5834   5.737   6.149   9.275  0.9596 -0.2449 -0.6041
   46CHL1   H17 5835   5.639   6.113   9.314 -0.2195  1.2308 -2.0705
   46CHL1   C13 5836   5.783   6.240   9.391  0.2115  0.5989  0.6548
   46CHL1   C18 5837   5.885   6.345   9.338 -0.5971 -0.1374  0.2979
   46CHL1  H18A 5838   5.973   6.290   9.298 -1.5534 -2.2725  1.0416
   46CHL1  H18B 5839   5.835   6.403   9.257 -1.2053 -2.3130 -0.9178
   46CHL1  H18C 5840   5.926   6.418   9.411  0.1198  0.6908 -0.9116
   46CHL1   C12 5841   5.667   6.319   9.470 -0.7882  0.5907 -0.9279
   46CHL1  H12A 5842   5.627   6.404   9.411 -1.8146 -0.8234 -2.3259
   46CHL1  H12B 5843   5.588   6.244   9.493 -0.4530 -0.4255 -2.9138
   46CHL1   C11 5844   5.723   6.364   9.611 -0.1754  0.1748  0.1072
   46CHL1  H11A 5845   5.807   6.432   9.588 -1.3927  1.1628 -1.4834
   46CHL1  H11B 5846   5.651   6.421   9.673  0.9796  4.8797 -2.6242
   46CHL1    C9 5847   5.796   6.257   9.697  0.6001 -0.7416  0.0564
   46CHL1    H9 5848   5.730   6.169   9.710  0.9441 -1.0408 -0.2087
   46CHL1   C10 5849   5.830   6.316   9.839  0.3641  0.6154 -0.4063
   46CHL1   C19 5850   5.907   6.452   9.834 -0.0277 -0.0633 -0.7355
   46CHL1  H19A 5851   5.932   6.497   9.933 -1.8387 -1.1675  0.2410
   46CHL1  H19B 5852   5.998   6.431   9.773  1.6188  1.3438  1.1788
   46CHL1  H19C 5853   5.845   6.525   9.776 -0.5434 -2.1771 -2.9156
   46CHL1    C1 5854   5.698   6.317   9.926  0.1278  0.2725  0.0910
   46CHL1   H1A 5855   5.619   6.384   9.884  0.7057  1.3333  0.6830
   46CHL1   H1B 5856   5.658   6.215   9.906  1.9264  0.0056 -2.2972
   46CHL1    C2 5857   5.724   6.341  10.075 -0.5074  0.8485 -0.7812
   46CHL1   H2A 5858   5.622   6.334  10.119  0.5964 -0.6352  1.6683
   46CHL1   H2B 5859   5.750   6.449  10.077 -2.4111  1.3249 -0.4436
   46CHL1   C20 5860   5.698   6.203   9.131 -0.1290  0.5908  0.8284
   46CHL1   H20 5861   5.782   6.258   9.085 -0.7417 -0.2803 -1.4014
   46CHL1   C21 5862   5.574   6.293   9.145  0.0591  0.3907  0.3796
   46CHL1  H21A 5863   5.489   6.248   9.201  0.0412  1.0675  0.9085
   46CHL1  H21B 5864   5.534   6.340   9.053  0.5320  2.2432  1.0851
   46CHL1  H21C 5865   5.608   6.387   9.193 -0.7865  0.7873  0.2187
   46CHL1   C22 5866   5.648   6.090   9.036  0.3770  0.0999  0.9058
   46CHL1  H22A 5867   5.716   6.003   9.046  0.9064  0.6118  1.8430
   46CHL1  H22B 5868   5.548   6.047   9.058  0.6065 -0.9834 -0.0866
   46CHL1   C23 5869   5.649   6.123   8.890  0.3663  0.0302 -0.2953
   46CHL1  H23A 5870   5.564   6.194   8.879  1.2686  1.5250  2.1281
   46CHL1  H23B 5871   5.745   6.174   8.866 -0.7837  1.4113 -2.1126
   46CHL1   C24 5872   5.626   6.007   8.797  0.5668  0.1202  0.8817
   46CHL1  H24A 5873   5.685   5.918   8.830  1.4661  0.8456  1.2295
   46CHL1  H24B 5874   5.520   5.974   8.804  0.7337 -1.0034 -1.4735
   46CHL1   C25 5875   5.658   6.037   8.648  0.2301  0.6604  0.0932
   46CHL1   H25 5876   5.761   6.077   8.644  0.5579 -0.2290 -0.4186
   46CHL1   C26 5877   5.661   5.911   8.564 -0.0932 -0.5719 -0.1357
   46CHL1  H26A 5878   5.563   5.859   8.564  1.1093 -2.8892 -1.2032
   46CHL1  H26B 5879   5.699   5.927   8.461  0.2361 -3.6726 -0.5476
   46CHL1  H26C 5880   5.729   5.831   8.601  1.3250  0.0588 -1.3484
   46CHL1   C27 5881   5.564   6.142   8.586  0.1619 -0.6480 -0.2954
   46CHL1  H27A 5882   5.571   6.237   8.641 -0.3743 -0.7775 -0.0002
   46CHL1  H27B 5883   5.610   6.157   8.486  1.2923 -0.0085  0.3151
   46CHL1  H27C 5884   5.461   6.099   8.587  0.1026 -0.5107  1.6929
   47CHL1    C3 5885   6.016   2.308  10.121  0.1248 -0.5649 -1.0128
   47CHL1    H3 5886   6.074   2.396  10.158  0.0701 -0.5532 -0.9529
   47CHL1    O3 5887   5.947   2.269  10.238  0.5202  0.0893  1.0596
   47CHL1   H3' 5888   5.889   2.199  10.207 -1.2239  1.0514  2.0700
   47CHL1    C4 5889   5.910   2.353  10.022  0.7809  0.1785  0.0344
   47CHL1   H4A 5890   5.830   2.275  10.015  0.6370  0.3440 -0.1679
   47CHL1   H4B 5891   5.861   2.445  10.061  1.3527  0.2347  0.6314
   47CHL1    C5 5892   5.955   2.374   9.882 -0.3240 -0.3499 -0.6366
   47CHL1    C6 5893   5.916   2.486   9.821  0.0495 -1.0033  0.0640
   47CHL1    H6 5894   5.855   2.553   9.882 -0.0803 -1.2725  0.2285
   47CHL1    C7 5895   5.947   2.516   9.676  0.0048 -0.2341 -0.2432
   47CHL1   H7A 5896   5.855   2.557   9.629 -0.0900 -0.9237 -0.6529
   47CHL1   H7B 5897   6.028   2.592   9.675 -1.3185  1.2229 -0.8556
   47CHL1    C8 5898   6.004   2.389   9.597  0.0605  0.7704 -0.9757
   47CHL1    H8 5899   5.918   2.322   9.575 -0.6576  1.1028  0.7454
   47CHL1   C14 5900   6.077   2.431   9.472  0.6196  0.5405  0.4745
   47CHL1   H14 5901   6.147   2.506   9.515  1.4389 -0.4410  0.8703
   47CHL1   C15 5902   5.997   2.518   9.368 -0.4236 -0.4150  0.2786
   47CHL1  H15A 5903   5.900   2.469   9.346 -0.1484 -0.7703 -0.1613
   47CHL1  H15B 5904   5.975   2.618   9.412  0.0377  0.0763 -0.6032
   47CHL1   C16 5905   6.098   2.526   9.253 -0.3846  1.0331  0.3711
   47CHL1  H16A 5906   6.038   2.511   9.160  0.4802 -0.1430 -0.0064
   47CHL1  H16B 5907   6.149   2.624   9.248  1.6182  0.0043  0.3981
   47CHL1   C17 5908   6.211   2.423   9.283  0.3930 -0.2272 -0.2583
   47CHL1   H17 5909   6.289   2.488   9.328 -2.0265  1.8538  1.0307
   47CHL1   C13 5910   6.158   2.334   9.397  0.5898 -0.1130  0.1636
   47CHL1   C18 5911   6.056   2.225   9.344 -0.5092  0.4667 -0.8992
   47CHL1  H18A 5912   5.988   2.260   9.264 -2.3678  0.0941  0.4740
   47CHL1  H18B 5913   6.116   2.135   9.317 -1.0733 -0.0922 -0.3302
   47CHL1  H18C 5914   5.999   2.181   9.430  2.2798 -0.7518  0.3830
   47CHL1   C12 5915   6.265   2.286   9.492 -0.3743 -0.5638 -0.0334
   47CHL1  H12A 5916   6.331   2.208   9.449  0.1217  0.5757 -1.3386
   47CHL1  H12B 5917   6.330   2.374   9.510 -1.5818  0.3506 -0.0715
   47CHL1   C11 5918   6.206   2.234   9.623  0.3766  0.3750 -0.3555
   47CHL1  H11A 5919   6.159   2.136   9.602 -0.2532  1.4140 -4.1059
   47CHL1  H11B 5920   6.291   2.200   9.686 -0.3348 -1.6829 -0.4601
   47CHL1    C9 5921   6.108   2.327   9.695  0.1389  0.0352  0.5849
   47CHL1    H9 5922   6.165   2.421   9.715  1.2835 -0.4614 -0.3122
   47CHL1   C10 5923   6.046   2.267   9.824  0.5657  0.4020  0.3382
   47CHL1   C19 5924   5.965   2.140   9.787 -0.8283  0.4894  0.2055
   47CHL1  H19A 5925   6.033   2.058   9.755 -2.6368 -1.0492  0.2560
   47CHL1  H19B 5926   5.914   2.108   9.880 -2.6809  2.6354 -0.0180
   47CHL1  H19C 5927   5.893   2.158   9.704 -0.2288 -2.4653 -1.0154
   47CHL1    C1 5928   6.155   2.236   9.928 -0.0617  0.1296 -0.6958
   47CHL1   H1A 5929   6.238   2.173   9.890  0.0918  1.2514 -2.3193
   47CHL1   H1B 5930   6.209   2.332   9.940  0.3880 -0.3769  1.4563
   47CHL1    C2 5931   6.100   2.194  10.068 -0.4811  0.2290 -0.0692
   47CHL1   H2A 5932   6.182   2.173  10.139  0.5287 -1.5228 -1.6943
   47CHL1   H2B 5933   6.041   2.100  10.062 -0.5637  0.0509  2.7964
   47CHL1   C20 5934   6.286   2.367   9.158  0.7095  0.6539 -0.8240
   47CHL1   H20 5935   6.311   2.261   9.181 -0.7913  0.6264  0.7218
   47CHL1   C21 5936   6.425   2.433   9.150 -0.0368  0.3578  0.1597
   47CHL1  H21A 5937   6.465   2.449   9.253 -0.1894 -1.3036  0.4882
   47CHL1  H21B 5938   6.414   2.530   9.096  2.8907 -0.4093 -1.9095
   47CHL1  H21C 5939   6.495   2.364   9.098  0.8892  1.5679 -0.2284
   47CHL1   C22 5940   6.215   2.367   9.023  0.6242 -0.1491 -0.1668
   47CHL1  H22A 5941   6.119   2.310   9.021  0.9777 -0.7700  0.4313
   47CHL1  H22B 5942   6.188   2.474   9.009  2.6165  0.3077 -0.6829
   47CHL1   C23 5943   6.305   2.320   8.909 -0.4836  0.3411 -0.6362
   47CHL1  H23A 5944   6.400   2.377   8.915 -0.4004 -0.0301  2.3559
   47CHL1  H23B 5945   6.339   2.214   8.913  0.8473  0.6899 -2.0535
   47CHL1   C24 5946   6.235   2.344   8.767  0.4681  0.8103  0.0739
   47CHL1  H24A 5947   6.151   2.272   8.754  1.7742 -0.7942  0.4038
   47CHL1  H24B 5948   6.200   2.450   8.765 -0.8691  0.4245  1.5076
   47CHL1   C25 5949   6.330   2.318   8.648  0.4300  0.4277  0.2767
   47CHL1   H25 5950   6.429   2.363   8.669  0.6000  0.1056  0.1667
   47CHL1   C26 5951   6.378   2.173   8.631  0.3671 -0.5914  0.0639
   47CHL1  H26A 5952   6.437   2.141   8.720 -1.9496 -0.5019  1.6859
   47CHL1  H26B 5953   6.439   2.158   8.539  2.9205  2.9434  1.0609
   47CHL1  H26C 5954   6.294   2.102   8.647 -1.1173  1.1066 -0.0430
   47CHL1   C27 5955   6.274   2.379   8.519 -0.1535 -0.6357 -0.3468
   47CHL1  H27A 5956   6.339   2.366   8.430  0.0564  1.3332 -0.4985
   47CHL1  H27B 5957   6.183   2.318   8.503 -0.3283 -0.1912 -1.0617
   47CHL1  H27C 5958   6.244   2.485   8.531 -2.4818 -1.5644  2.8728
   48CHL1    C3 5959   0.128   2.618  10.040 -0.2836 -0.4851 -0.2711
   48CHL1    H3 5960   0.023   2.594  10.013 -1.2649  2.5104  0.7515
   48CHL1    O3 5961   0.128   2.650  10.174 -0.2620 -0.1445 -0.7721
   48CHL1   H3' 5962   0.219   2.652  10.204 -0.1826 -2.9185 -0.7769
   48CHL1    C4 5963   0.221   2.500  10.018 -0.2366  0.6255  0.9680
   48CHL1   H4A 5964   0.318   2.535  10.060  0.9910 -1.2844 -0.2291
   48CHL1   H4B 5965   0.197   2.409  10.076  0.8550 -1.0078 -1.0889
   48CHL1    C5 5966   0.239   2.451   9.873  0.4502 -0.1804  0.4106
   48CHL1    C6 5967   0.228   2.321   9.833  0.6491 -0.0400  0.0411
   48CHL1    H6 5968   0.217   2.245   9.912  0.5014  0.1481  0.2008
   48CHL1    C7 5969   0.246   2.271   9.695  0.2835 -0.5033  0.0055
   48CHL1   H7A 5970   0.317   2.186   9.690  2.1316  1.0943 -2.0937
   48CHL1   H7B 5971   0.146   2.238   9.661  0.7840 -0.4990 -1.4891
   48CHL1    C8 5972   0.294   2.386   9.601 -0.9229 -0.0894  0.0990
   48CHL1    H8 5973   0.403   2.392   9.621 -1.2979  2.0072  1.6123
   48CHL1   C14 5974   0.262   2.352   9.454 -0.1561  0.4645 -0.6377
   48CHL1   H14 5975   0.151   2.364   9.454 -0.2043  0.1352  1.2968
   48CHL1   C15 5976   0.296   2.209   9.416  0.5304 -0.9762 -0.1675
   48CHL1  H15A 5977   0.390   2.164   9.454  0.6854 -0.6222 -0.1374
   48CHL1  H15B 5978   0.208   2.152   9.453  0.1828 -0.5679 -0.3476
   48CHL1   C16 5979   0.305   2.212   9.255  0.5513  0.0677 -0.4847
   48CHL1  H16A 5980   0.404   2.174   9.223  1.1651  1.6998 -0.6096
   48CHL1  H16B 5981   0.224   2.145   9.220  0.0567  0.5393 -0.2573
   48CHL1   C17 5982   0.278   2.360   9.222 -0.2767 -0.1714  0.3318
   48CHL1   H17 5983   0.168   2.371   9.212 -0.1158 -1.5161 -4.0135
   48CHL1   C13 5984   0.320   2.440   9.348 -0.1180 -0.4617 -0.4556
   48CHL1   C18 5985   0.479   2.446   9.353  0.0112 -0.5299 -0.5060
   48CHL1  H18A 5986   0.517   2.342   9.343  0.0467 -0.7251  1.3728
   48CHL1  H18B 5987   0.517   2.515   9.274 -0.2609  1.0095  0.6683
   48CHL1  H18C 5988   0.526   2.485   9.447 -2.0787 -0.4956  0.5544
   48CHL1   C12 5989   0.263   2.582   9.377  0.3360  0.3410  0.0551
   48CHL1  H12A 5990   0.316   2.655   9.312 -2.4985  0.9127 -1.6971
   48CHL1  H12B 5991   0.155   2.596   9.356 -0.0644  1.6060  2.7140
   48CHL1   C11 5992   0.286   2.626   9.523 -0.8724 -0.0997 -0.1058
   48CHL1  H11A 5993   0.392   2.655   9.538 -0.5601 -1.2558  0.0237
   48CHL1  H11B 5994   0.218   2.713   9.535 -0.6453  0.0207  0.3080
   48CHL1    C9 5995   0.241   2.524   9.634 -0.2103  0.0503  0.6259
   48CHL1    H9 5996   0.131   2.517   9.624 -0.2049 -0.2895  0.8256
   48CHL1   C10 5997   0.269   2.566   9.785  0.2074  0.9705 -0.0866
   48CHL1   C19 5998   0.420   2.605   9.807 -0.4212 -0.0995  0.0994
   48CHL1  H19A 5999   0.474   2.520   9.763  2.0866  1.5500 -0.1109
   48CHL1  H19B 6000   0.431   2.703   9.755 -1.9862 -1.8597 -3.7375
   48CHL1  H19C 6001   0.443   2.623   9.914  0.8991  0.8334 -0.3291
   48CHL1    C1 6002   0.172   2.686   9.805  0.4443  0.2329  0.0899
   48CHL1   H1A 6003   0.211   2.776   9.752 -0.0593  0.2099 -0.3154
   48CHL1   H1B 6004   0.068   2.667   9.772  1.4376 -1.4640 -2.1467
   48CHL1    C2 6005   0.170   2.735   9.955 -0.0719  0.0263 -0.0889
   48CHL1   H2A 6006   0.084   2.802   9.974  0.2648  0.5514 -0.3892
   48CHL1   H2B 6007   0.269   2.768   9.994 -0.5037 -1.1940  2.1132
   48CHL1   C20 6008   0.331   2.399   9.087  0.5213  0.1470  0.3146
   48CHL1   H20 6009   0.442   2.405   9.086  0.5899 -1.0406  0.4181
   48CHL1   C21 6010   0.283   2.539   9.046 -0.5770 -0.2531  0.2261
   48CHL1  H21A 6011   0.351   2.573   8.964  1.0578 -2.1057  0.7871
   48CHL1  H21B 6012   0.289   2.608   9.132  0.6347 -0.8079  0.5969
   48CHL1  H21C 6013   0.179   2.536   9.006  0.7606 -3.5567 -3.3701
   48CHL1   C22 6014   0.292   2.314   8.967 -0.2922 -0.0041  0.9822
   48CHL1  H22A 6015   0.257   2.213   8.997 -0.9786 -0.2937 -0.7064
   48CHL1  H22B 6016   0.207   2.351   8.905  0.4751  1.6262  0.8804
   48CHL1   C23 6017   0.414   2.306   8.873  0.3299 -0.0781 -0.3038
   48CHL1  H23A 6018   0.455   2.409   8.866  1.8566 -0.7441 -1.3213
   48CHL1  H23B 6019   0.484   2.248   8.938 -2.4392 -0.2980  2.5805
   48CHL1   C24 6020   0.406   2.223   8.748 -0.4577  0.3021 -0.8268
   48CHL1  H24A 6021   0.379   2.119   8.777 -0.9507  0.6451 -0.0546
   48CHL1  H24B 6022   0.330   2.255   8.673  0.2392  1.7347 -0.9219
   48CHL1   C25 6023   0.543   2.211   8.665  0.0443 -0.1233 -0.6053
   48CHL1   H25 6024   0.624   2.171   8.730 -0.5506  0.6094  0.6173
   48CHL1   C26 6025   0.538   2.099   8.556 -0.4850  0.0717 -0.1196
   48CHL1  H26A 6026   0.513   1.997   8.592  0.5632  0.1276  0.7943
   48CHL1  H26B 6027   0.479   2.131   8.467  1.0120  0.9327 -0.8107
   48CHL1  H26C 6028   0.635   2.083   8.505 -0.0818 -1.5401  1.1075
   48CHL1   C27 6029   0.574   2.346   8.605  0.2103 -0.1310 -0.3064
   48CHL1  H27A 6030   0.677   2.342   8.565 -0.2306 -0.3729 -1.4352
   48CHL1  H27B 6031   0.510   2.356   8.515  0.4595  0.6467 -0.3951
   48CHL1  H27C 6032   0.560   2.430   8.675 -0.3079 -0.6152  0.1837
   49CHL1    C3 6033   5.279   4.842  10.097  0.2307  0.1121  0.0035
   49CHL1    H3 6034   5.188   4.897  10.066 -1.2613 -1.6600  1.1761
   49CHL1    O3 6035   5.262   4.821  10.235  0.1785  0.0576  0.2872
   49CHL1   H3' 6036   5.205   4.894  10.257  0.2314 -0.1073  0.9821
   49CHL1    C4 6037   5.284   4.710  10.020  0.0816  0.2995  0.2705
   49CHL1   H4A 6038   5.375   4.654  10.050 -0.3467 -0.2784  0.5051
   49CHL1   H4B 6039   5.202   4.640  10.048  0.9472 -1.5654 -1.6780
   49CHL1    C5 6040   5.290   4.739   9.870 -0.6019 -0.2058 -1.0018
   49CHL1    C6 6041   5.190   4.698   9.798 -0.4381 -0.1687 -0.4129
   49CHL1    H6 6042   5.121   4.627   9.846 -1.3117  1.2089  0.3903
   49CHL1    C7 6043   5.207   4.702   9.648 -0.0512  0.4346  0.2269
   49CHL1   H7A 6044   5.179   4.601   9.610 -1.3042  0.9009 -0.1095
   49CHL1   H7B 6045   5.145   4.788   9.614  1.1047  1.3591  0.4064
   49CHL1    C8 6046   5.348   4.736   9.593 -0.7916 -0.5792  0.4088
   49CHL1    H8 6047   5.410   4.645   9.605 -1.6767 -1.1650  0.5475
   49CHL1   C14 6048   5.339   4.769   9.443 -0.2860  0.3875  0.6565
   49CHL1   H14 6049   5.267   4.853   9.435 -0.9103 -0.1770  0.3810
   49CHL1   C15 6050   5.288   4.655   9.356  0.0265 -0.1852  0.0903
   49CHL1  H15A 6051   5.354   4.572   9.392 -0.3197 -0.6733 -0.3959
   49CHL1  H15B 6052   5.187   4.614   9.376  0.5678 -0.1322  3.1247
   49CHL1   C16 6053   5.346   4.688   9.214 -0.7909 -0.4708 -0.3536
   49CHL1  H16A 6054   5.413   4.604   9.186 -0.7572 -1.7743  3.3927
   49CHL1  H16B 6055   5.270   4.711   9.135 -0.1974  3.4238  0.0725
   49CHL1   C17 6056   5.435   4.818   9.234 -0.0266  0.0372  0.2282
   49CHL1   H17 6057   5.371   4.908   9.221  1.1669  0.4495 -3.4432
   49CHL1   C13 6058   5.473   4.815   9.381  0.8270  0.3766 -0.2069
   49CHL1   C18 6059   5.589   4.709   9.395  0.6399  0.3097  0.0643
   49CHL1  H18A 6060   5.609   4.694   9.503 -0.5103  1.7811  0.4993
   49CHL1  H18B 6061   5.556   4.611   9.354 -0.1543  1.5200 -2.2905
   49CHL1  H18C 6062   5.670   4.757   9.337  0.8020 -1.5191 -1.2539
   49CHL1   C12 6063   5.503   4.947   9.453  0.6369  0.1435  0.4363
   49CHL1  H12A 6064   5.595   5.002   9.423 -0.3195  1.2426 -0.5727
   49CHL1  H12B 6065   5.428   5.023   9.422 -0.0085 -0.1920  1.1690
   49CHL1   C11 6066   5.512   4.927   9.604  0.1049 -0.1328  0.1642
   49CHL1  H11A 6067   5.608   4.876   9.628  0.9341  2.0073  1.6554
   49CHL1  H11B 6068   5.513   5.030   9.647  0.8244  0.4114 -1.1220
   49CHL1    C9 6069   5.398   4.856   9.669 -0.1497 -0.2768  0.6435
   49CHL1    H9 6070   5.312   4.926   9.663  0.8656  1.0292  0.8615
   49CHL1   C10 6071   5.409   4.822   9.821  0.6549  0.4871  0.3193
   49CHL1   C19 6072   5.543   4.753   9.835 -0.3215 -0.5872 -0.1196
   49CHL1  H19A 6073   5.550   4.706   9.936  0.8105 -0.1105  0.0211
   49CHL1  H19B 6074   5.563   4.686   9.749 -1.6555 -0.2608 -0.6954
   49CHL1  H19C 6075   5.625   4.827   9.829 -0.3312 -0.5701 -0.0472
   49CHL1    C1 6076   5.419   4.946   9.908 -0.8958 -0.1279  0.1958
   49CHL1   H1A 6077   5.506   5.011   9.885 -1.0879  0.2784  0.6183
   49CHL1   H1B 6078   5.324   5.003   9.894 -0.5850  0.4345  0.3566
   49CHL1    C2 6079   5.411   4.923  10.063 -0.1718  0.0614  0.9755
   49CHL1   H2A 6080   5.415   5.018  10.120 -0.3858  1.7065 -1.6943
   49CHL1   H2B 6081   5.500   4.861  10.088 -1.0893 -2.0295 -0.7623
   49CHL1   C20 6082   5.545   4.822   9.126 -0.1451  0.3954  0.2289
   49CHL1   H20 6083   5.627   4.748   9.126  0.7004  1.2706 -2.2722
   49CHL1   C21 6084   5.611   4.960   9.143 -0.4070 -0.0932 -0.3276
   49CHL1  H21A 6085   5.673   4.957   9.235 -0.4178  0.1675 -0.3127
   49CHL1  H21B 6086   5.542   5.046   9.159  0.9661  0.2523  4.2950
   49CHL1  H21C 6087   5.680   4.994   9.062  0.1659  2.8774  1.3494
   49CHL1   C22 6088   5.484   4.808   8.983  0.0969 -0.7558 -0.0278
   49CHL1  H22A 6089   5.564   4.825   8.908 -0.5700  0.2416 -0.5193
   49CHL1  H22B 6090   5.458   4.702   8.962 -1.1613 -0.9845  2.5631
   49CHL1   C23 6091   5.368   4.913   8.954 -0.1741 -0.2344  0.2851
   49CHL1  H23A 6092   5.272   4.900   9.008 -0.3859  0.9413  0.2091
   49CHL1  H23B 6093   5.393   5.011   9.002 -1.7141  0.2298  0.1520
   49CHL1   C24 6094   5.338   4.939   8.804 -0.7565 -0.1627 -0.2113
   49CHL1  H24A 6095   5.238   4.988   8.804 -1.0519 -0.7575 -1.3124
   49CHL1  H24B 6096   5.414   5.010   8.763 -0.0514 -0.7596  0.0528
   49CHL1   C25 6097   5.325   4.816   8.716 -0.7618 -0.3802 -0.3923
   49CHL1   H25 6098   5.429   4.779   8.703  0.1006  2.5537 -2.3067
   49CHL1   C26 6099   5.226   4.711   8.775  0.0245 -0.0848  0.6369
   49CHL1  H26A 6100   5.256   4.676   8.876  0.7604 -0.5182  0.2744
   49CHL1  H26B 6101   5.125   4.757   8.772  1.2094  2.5854  0.2102
   49CHL1  H26C 6102   5.223   4.628   8.701  1.7574  2.3908 -2.3380
   49CHL1   C27 6103   5.275   4.863   8.574 -0.3644  0.4026 -0.5203
   49CHL1  H27A 6104   5.185   4.922   8.599  0.2755  1.1858 -0.0198
   49CHL1  H27B 6105   5.346   4.940   8.539 -0.9692  1.4401  0.5120
   49CHL1  H27C 6106   5.261   4.787   8.494 -0.5716 -0.1044 -0.0067
   50CHL1    C3 6107   1.532   0.610  10.006  0.3190 -0.1152  0.1397
   50CHL1    H3 6108   1.427   0.578   9.985  0.2014  0.4957 -0.2222
   50CHL1    O3 6109   1.561   0.601  10.136 -0.0301  0.0390 -0.5107
   50CHL1   H3' 6110   1.494   0.648  10.186  1.0884 -2.0753  3.1910
   50CHL1    C4 6111   1.612   0.504   9.933  0.3238 -0.1688  0.3400
   50CHL1   H4A 6112   1.721   0.514   9.953  0.4512 -0.3565 -0.2286
   50CHL1   H4B 6113   1.578   0.404   9.969  0.0705  0.4981  1.9720
   50CHL1    C5 6114   1.590   0.508   9.784 -0.3777 -0.4576 -0.3650
   50CHL1    C6 6115   1.538   0.399   9.719 -0.5738  0.0363  0.4103
   50CHL1    H6 6116   1.549   0.305   9.775 -1.7357  0.0922  0.7301
   50CHL1    C7 6117   1.505   0.395   9.571  0.4558 -0.3336 -0.2293
   50CHL1   H7A 6118   1.541   0.297   9.531 -0.5422 -0.5842 -0.5252
   50CHL1   H7B 6119   1.394   0.395   9.569  0.4498  1.5508 -1.2562
   50CHL1    C8 6120   1.574   0.510   9.493 -0.8072  0.0907  1.0443
   50CHL1    H8 6121   1.682   0.489   9.486 -0.9420 -0.1024 -0.7561
   50CHL1   C14 6122   1.514   0.519   9.355 -0.3460 -0.3803 -0.0734
   50CHL1   H14 6123   1.407   0.540   9.373 -0.3619 -0.8748  0.4389
   50CHL1   C15 6124   1.542   0.397   9.270  0.5777  0.7619 -0.4625
   50CHL1  H15A 6125   1.650   0.372   9.267  0.7440  1.3720  0.3833
   50CHL1  H15B 6126   1.480   0.306   9.287  1.8609 -0.4740 -2.1764
   50CHL1   C16 6127   1.516   0.448   9.128 -0.2862 -0.3640  0.5977
   50CHL1  H16A 6128   1.588   0.409   9.053  1.0911  0.1956  1.6278
   50CHL1  H16B 6129   1.421   0.399   9.096 -0.7256 -0.1610  1.5770
   50CHL1   C17 6130   1.507   0.601   9.131 -0.4587  0.1032 -0.4115
   50CHL1   H17 6131   1.402   0.637   9.139 -0.5330  0.0098 -0.9448
   50CHL1   C13 6132   1.568   0.637   9.270  0.5924 -0.0866 -0.4233
   50CHL1   C18 6133   1.720   0.643   9.262 -0.4599  0.4337 -0.0529
   50CHL1  H18A 6134   1.755   0.736   9.212  1.1207  0.1958  0.5781
   50CHL1  H18B 6135   1.777   0.631   9.357 -0.4634 -0.2801 -0.1439
   50CHL1  H18C 6136   1.750   0.550   9.210 -2.1161 -0.4802  0.6015
   50CHL1   C12 6137   1.518   0.765   9.339 -0.1508  0.4409 -0.7509
   50CHL1  H12A 6138   1.557   0.855   9.287 -2.4109  2.1174  0.3495
   50CHL1  H12B 6139   1.407   0.768   9.339 -0.1351  1.1213 -0.3021
   50CHL1   C11 6140   1.565   0.775   9.486  0.0748 -0.1776  0.3057
   50CHL1  H11A 6141   1.673   0.802   9.481  0.0448 -0.0926  0.1133
   50CHL1  H11B 6142   1.514   0.857   9.541  0.5434  1.7634 -2.0725
   50CHL1    C9 6143   1.544   0.640   9.568  0.8042 -0.5200 -0.1499
   50CHL1    H9 6144   1.434   0.630   9.578  0.7365  0.0069 -0.3138
   50CHL1   C10 6145   1.599   0.642   9.713  0.4677 -0.3897  0.4386
   50CHL1   C19 6146   1.751   0.666   9.701  0.2363  0.1640 -0.2470
   50CHL1  H19A 6147   1.803   0.662   9.799  0.2048 -1.2220 -0.2771
   50CHL1  H19B 6148   1.795   0.585   9.639 -1.8680 -1.7804  0.6907
   50CHL1  H19C 6149   1.786   0.759   9.653  2.4730 -0.7430 -0.4375
   50CHL1    C1 6150   1.521   0.753   9.798  0.1044 -0.9487  0.1767
   50CHL1   H1A 6151   1.549   0.856   9.767 -1.2164 -0.5315  0.3332
   50CHL1   H1B 6152   1.419   0.715   9.778 -0.4881  0.0440  1.2611
   50CHL1    C2 6153   1.566   0.747   9.948  0.1234 -0.4837  0.5208
   50CHL1   H2A 6154   1.514   0.832   9.997  2.0130  0.2920  1.2536
   50CHL1   H2B 6155   1.674   0.769   9.962  0.1575  0.7055 -1.4588
   50CHL1   C20 6156   1.559   0.672   9.000 -0.2006  0.0211 -0.3605
   50CHL1   H20 6157   1.669   0.661   9.006 -0.3757 -2.5549 -1.2347
   50CHL1   C21 6158   1.533   0.822   9.006 -0.3419  0.0868  0.4931
   50CHL1  H21A 6159   1.551   0.877   8.910  1.5563  0.7266  1.1861
   50CHL1  H21B 6160   1.595   0.870   9.084  0.7483 -1.6137  0.7074
   50CHL1  H21C 6161   1.426   0.849   9.021 -0.6483  0.1386 -1.5639
   50CHL1   C22 6162   1.498   0.618   8.871  0.2520  0.3690 -0.2588
   50CHL1  H22A 6163   1.539   0.668   8.781 -2.0836  1.5329 -0.7217
   50CHL1  H22B 6164   1.529   0.513   8.855  2.7660  0.4522  3.4055
   50CHL1   C23 6165   1.352   0.623   8.863 -0.3116 -0.1452  0.5048
   50CHL1  H23A 6166   1.312   0.558   8.943 -0.8512  1.7938  1.8557
   50CHL1  H23B 6167   1.304   0.723   8.870 -1.0906 -0.4131 -0.8855
   50CHL1   C24 6168   1.311   0.542   8.735 -0.7773 -0.5127 -0.0278
   50CHL1  H24A 6169   1.349   0.600   8.648 -0.6639 -1.7834 -0.8432
   50CHL1  H24B 6170   1.362   0.443   8.740 -1.6093 -0.8758  1.6656
   50CHL1   C25 6171   1.162   0.523   8.713 -0.4931 -0.0678 -1.3313
   50CHL1   H25 6172   1.108   0.615   8.746  2.0165  1.4737 -1.3653
   50CHL1   C26 6173   1.136   0.523   8.560  0.0637  0.7616 -0.3038
   50CHL1  H26A 6174   1.027   0.526   8.538  0.5463 -0.8072 -3.2281
   50CHL1  H26B 6175   1.183   0.608   8.506  1.9382  0.3428  0.6213
   50CHL1  H26C 6176   1.188   0.434   8.518  2.0875  2.1784 -0.8609
   50CHL1   C27 6177   1.108   0.405   8.783  0.0417  0.0651  0.1635
   50CHL1  H27A 6178   0.997   0.406   8.781 -0.0074 -2.6535 -1.1493
   50CHL1  H27B 6179   1.128   0.307   8.734  0.2393 -1.1885  2.6609
   50CHL1  H27C 6180   1.147   0.397   8.887  0.8894 -0.8846 -0.2082
   51CHL1    C3 6181   2.281   3.215  10.151  0.0075  0.8380 -0.5086
   51CHL1    H3 6182   2.262   3.107  10.134  3.1099 -0.2990  2.6788
   51CHL1    O3 6183   2.290   3.239  10.286 -0.3467 -0.0840 -0.5393
   51CHL1   H3' 6184   2.273   3.333  10.297  1.0124  0.1663 -0.4963
   51CHL1    C4 6185   2.413   3.255  10.086  0.5354 -0.5129 -0.2232
   51CHL1   H4A 6186   2.422   3.365  10.095 -2.0608 -0.4474  2.2711
   51CHL1   H4B 6187   2.502   3.204  10.129 -1.3466 -2.1541  1.8405
   51CHL1    C5 6188   2.404   3.219   9.942 -0.5561  0.0696 -0.1003
   51CHL1    C6 6189   2.499   3.138   9.889 -0.1373 -0.6623 -0.5655
   51CHL1    H6 6190   2.579   3.098   9.953 -0.9116 -1.0317  0.1902
   51CHL1    C7 6191   2.498   3.101   9.747 -0.6691  0.4804 -0.1149
   51CHL1   H7A 6192   2.601   3.104   9.706 -0.4705 -2.5266  0.0989
   51CHL1   H7B 6193   2.467   2.997   9.726 -2.3664  1.1546 -1.0857
   51CHL1    C8 6194   2.405   3.199   9.666 -0.2996  0.1509 -0.2828
   51CHL1    H8 6195   2.455   3.298   9.658  0.4885 -0.0730  1.5435
   51CHL1   C14 6196   2.387   3.143   9.526  0.6094  0.1920 -0.1868
   51CHL1   H14 6197   2.339   3.046   9.553  0.4388  0.7119  1.4649
   51CHL1   C15 6198   2.511   3.116   9.442  0.0922  0.0825 -0.0023
   51CHL1  H15A 6199   2.588   3.195   9.454 -0.0005  0.1652  0.0419
   51CHL1  H15B 6200   2.554   3.018   9.472 -0.1744 -0.5674 -1.6562
   51CHL1   C16 6201   2.455   3.111   9.293  0.5101 -0.8073 -0.1828
   51CHL1  H16A 6202   2.503   3.191   9.232  0.5318  1.7516  3.0112
   51CHL1  H16B 6203   2.471   3.020   9.232  1.6741  0.8196 -2.3442
   51CHL1   C17 6204   2.310   3.129   9.305 -0.8140 -0.4261 -0.2996
   51CHL1   H17 6205   2.259   3.032   9.326  0.2875 -0.7317  1.0767
   51CHL1   C13 6206   2.282   3.209   9.439 -0.1980 -0.4152  0.6176
   51CHL1   C18 6207   2.321   3.359   9.418 -0.1307  0.3150 -0.3800
   51CHL1  H18A 6208   2.233   3.403   9.368 -1.6076 -2.4324 -0.3221
   51CHL1  H18B 6209   2.338   3.425   9.506 -0.1682 -1.8284  1.2831
   51CHL1  H18C 6210   2.409   3.362   9.350  1.3473 -1.1403  1.3766
   51CHL1   C12 6211   2.146   3.189   9.507  0.4168  0.5009 -0.4224
   51CHL1  H12A 6212   2.061   3.243   9.459 -1.0098  0.4937  2.0053
   51CHL1  H12B 6213   2.124   3.081   9.509  2.5669  0.0600  0.7955
   51CHL1   C11 6214   2.155   3.255   9.649  0.7950 -0.0438  0.7677
   51CHL1  H11A 6215   2.168   3.364   9.635 -0.2275  0.3804  2.9033
   51CHL1  H11B 6216   2.056   3.242   9.698  0.0665  1.5110 -0.2381
   51CHL1    C9 6217   2.267   3.204   9.736  0.0284  0.3786 -0.3267
   51CHL1    H9 6218   2.244   3.096   9.748 -1.5710  1.0903  3.5685
   51CHL1   C10 6219   2.279   3.274   9.870  0.0723  0.5204 -0.4961
   51CHL1   C19 6220   2.316   3.421   9.846  0.0674 -0.6441 -0.4850
   51CHL1  H19A 6221   2.320   3.478   9.941 -0.2034 -2.4466  0.6405
   51CHL1  H19B 6222   2.417   3.435   9.802 -0.8419  0.9919 -2.1026
   51CHL1  H19C 6223   2.239   3.475   9.787 -0.5757  0.9971  1.7939
   51CHL1    C1 6224   2.148   3.263   9.949 -0.0077 -0.6950 -0.3695
   51CHL1   H1A 6225   2.065   3.319   9.901 -0.6076 -0.7372  0.6188
   51CHL1   H1B 6226   2.112   3.158   9.958  0.9019 -0.8578  1.5024
   51CHL1    C2 6227   2.157   3.291  10.097 -0.1871  0.6573  0.4043
   51CHL1   H2A 6228   2.063   3.275  10.155  0.4744 -2.4233  0.7263
   51CHL1   H2B 6229   2.182   3.399  10.108  0.1460  0.5637  0.5617
   51CHL1   C20 6230   2.247   3.188   9.175 -0.3624  0.0182  0.4235
   51CHL1   H20 6231   2.278   3.293   9.155 -3.9069  0.1870 -5.4909
   51CHL1   C21 6232   2.093   3.190   9.179  0.7369 -0.0509  0.1401
   51CHL1  H21A 6233   2.072   3.271   9.253 -3.6445 -1.5204  0.6628
   51CHL1  H21B 6234   2.044   3.095   9.211  0.0565 -0.3819 -1.8060
   51CHL1  H21C 6235   2.041   3.225   9.087  0.4766  0.4534  0.4744
   51CHL1   C22 6236   2.301   3.105   9.048  0.0296 -0.2635  0.2416
   51CHL1  H22A 6237   2.410   3.112   9.033  0.0071 -0.7606 -0.1898
   51CHL1  H22B 6238   2.285   2.996   9.063  0.2068 -0.0420  2.1233
   51CHL1   C23 6239   2.242   3.152   8.916  0.0194  0.4508  0.1445
   51CHL1  H23A 6240   2.190   3.246   8.944 -1.1712 -0.2204  0.2040
   51CHL1  H23B 6241   2.332   3.188   8.862 -0.5280 -1.3204 -1.9960
   51CHL1   C24 6242   2.159   3.045   8.853  0.1006 -0.5003 -0.2905
   51CHL1  H24A 6243   2.213   2.948   8.842  0.7842 -0.0333 -1.1515
   51CHL1  H24B 6244   2.058   3.036   8.897  0.4306 -1.9952  0.2134
   51CHL1   C25 6245   2.132   3.084   8.705  0.6130 -0.8983  0.4898
   51CHL1   H25 6246   2.228   3.116   8.659 -1.1088  1.4172 -1.6782
   51CHL1   C26 6247   2.084   2.966   8.623  0.1548 -0.8873 -0.0042
   51CHL1  H26A 6248   1.985   2.939   8.665  0.5256 -1.3254  0.6046
   51CHL1  H26B 6249   2.083   2.994   8.515 -0.7620 -1.2504 -0.0985
   51CHL1  H26C 6250   2.149   2.876   8.625  0.5245 -0.5955  2.6111
   51CHL1   C27 6251   2.029   3.205   8.693  0.3440  0.1508  1.2909
   51CHL1  H27A 6252   2.058   3.302   8.739  0.3119  0.7831 -0.0037
   51CHL1  H27B 6253   2.012   3.225   8.586 -1.8979 -0.2989  1.5442
   51CHL1  H27C 6254   1.942   3.174   8.756 -1.9911  0.6706 -1.5857
   52CHL1    C3 6255   5.914   1.170  10.058  0.0633 -0.9654  0.3246
   52CHL1    H3 6256   5.855   1.084  10.018 -0.9024 -0.8750  1.5093
   52CHL1    O3 6257   5.890   1.196  10.197 -0.2088  0.1459  0.1518
   52CHL1   H3' 6258   5.947   1.269  10.220  1.1682 -1.3123  1.5548
   52CHL1    C4 6259   6.059   1.121  10.046 -0.4985  0.6075  0.0197
   52CHL1   H4A 6260   6.127   1.187  10.104  1.1459  1.8806 -3.2119
   52CHL1   H4B 6261   6.050   1.022  10.096 -0.8753  0.5397 -0.1833
   52CHL1    C5 6262   6.109   1.109   9.903 -0.2763 -0.0574 -0.5010
   52CHL1    C6 6263   6.171   0.999   9.853 -0.2319  1.0114  0.3071
   52CHL1    H6 6264   6.181   0.916   9.924 -0.3375  1.7039  1.1397
   52CHL1    C7 6265   6.215   0.982   9.715  0.8744 -0.4235  0.1250
   52CHL1   H7A 6266   6.313   0.930   9.726  1.0659 -0.4638 -1.5403
   52CHL1   H7B 6267   6.150   0.907   9.665  0.1239  0.2429  0.0964
   52CHL1    C8 6268   6.227   1.113   9.629 -0.0053  0.5902 -0.1834
   52CHL1    H8 6269   6.319   1.162   9.667  1.6504 -2.7975  0.4097
   52CHL1   C14 6270   6.233   1.089   9.486  0.1858  0.6499  1.0208
   52CHL1   H14 6271   6.136   1.050   9.449  1.1786  0.4023 -1.4034
   52CHL1   C15 6272   6.341   0.985   9.431 -0.0963 -0.0159 -0.2805
   52CHL1  H15A 6273   6.440   0.993   9.482 -1.1623 -1.0533  2.0412
   52CHL1  H15B 6274   6.294   0.885   9.444  1.0189 -0.7026 -1.3419
   52CHL1   C16 6275   6.373   1.029   9.287  0.6717 -1.1506 -0.2472
   52CHL1  H16A 6276   6.480   1.057   9.292  0.6090 -0.7125 -1.2581
   52CHL1  H16B 6277   6.352   0.941   9.222  0.0097 -0.7355 -0.6078
   52CHL1   C17 6278   6.278   1.147   9.264  1.1183 -0.4526  0.0216
   52CHL1   H17 6279   6.175   1.115   9.237  0.8680  0.2212  0.1761
   52CHL1   C13 6280   6.255   1.217   9.401  0.2365 -0.6540 -0.2925
   52CHL1   C18 6281   6.377   1.303   9.439 -1.1101 -0.2369 -0.7228
   52CHL1  H18A 6282   6.473   1.249   9.422  0.7739  2.5482  0.6169
   52CHL1  H18B 6283   6.377   1.397   9.378 -1.2382 -1.1955 -2.2250
   52CHL1  H18C 6284   6.376   1.330   9.547 -0.1904  0.7613 -0.9556
   52CHL1   C12 6285   6.125   1.299   9.415 -0.4148 -0.3133 -0.6643
   52CHL1  H12A 6286   6.137   1.397   9.364 -0.5730  0.3446  0.5406
   52CHL1  H12B 6287   6.034   1.246   9.378 -0.8480 -0.0623  0.0303
   52CHL1   C11 6288   6.096   1.331   9.565 -0.9595  0.1602  0.5733
   52CHL1  H11A 6289   6.167   1.409   9.600 -1.5030 -0.0111  2.0754
   52CHL1  H11B 6290   5.994   1.375   9.571 -0.1674  1.8296  2.1321
   52CHL1    C9 6291   6.099   1.204   9.661  0.4473 -0.6053  0.1144
   52CHL1    H9 6292   6.012   1.142   9.630  0.8079 -1.9068  1.6485
   52CHL1   C10 6293   6.080   1.234   9.818  0.0853 -0.6563  0.3523
   52CHL1   C19 6294   6.168   1.354   9.871  0.1227  0.3513  0.1658
   52CHL1  H19A 6295   6.137   1.444   9.813  0.3338  0.3471  0.0448
   52CHL1  H19B 6296   6.170   1.364   9.981 -0.8481  2.1920  0.0389
   52CHL1  H19C 6297   6.274   1.344   9.837  0.0558  1.7265 -0.5323
   52CHL1    C1 6298   5.931   1.276   9.829  0.2525  0.0456 -0.8196
   52CHL1   H1A 6299   5.910   1.375   9.783 -0.7363  0.1300 -0.2037
   52CHL1   H1B 6300   5.870   1.204   9.771 -0.2950 -0.2760  0.1486
   52CHL1    C2 6301   5.890   1.302   9.974 -0.2460 -0.6044 -0.2966
   52CHL1   H2A 6302   5.782   1.328   9.970 -0.2384 -0.4447  0.4750
   52CHL1   H2B 6303   5.944   1.384  10.025 -0.7092 -0.7949  0.5035
   52CHL1   C20 6304   6.324   1.229   9.144 -0.4761 -0.3110 -0.5748
   52CHL1   H20 6305   6.421   1.278   9.169  1.2403 -2.6301 -2.4935
   52CHL1   C21 6306   6.218   1.344   9.116 -0.3146 -0.7723  0.0321
   52CHL1  H21A 6307   6.207   1.422   9.194  1.5003  0.1810 -0.6525
   52CHL1  H21B 6308   6.115   1.315   9.086 -0.4536  1.9189 -2.2357
   52CHL1  H21C 6309   6.255   1.410   9.035  1.6165 -0.7441  0.9045
   52CHL1   C22 6310   6.345   1.137   9.020  0.7498 -0.7811  0.2270
   52CHL1  H22A 6311   6.437   1.077   9.038  1.8462  1.0414  0.9198
   52CHL1  H22B 6312   6.263   1.064   9.003 -1.3577  1.0623  2.1110
   52CHL1   C23 6313   6.383   1.214   8.890 -0.2012 -0.2287 -0.4160
   52CHL1  H23A 6314   6.284   1.256   8.863  0.3075  1.6886  0.6249
   52CHL1  H23B 6315   6.448   1.299   8.919 -2.4640  1.1774  0.5885
   52CHL1   C24 6316   6.431   1.104   8.786 -0.3435  0.5455 -0.0604
   52CHL1  H24A 6317   6.522   1.059   8.832 -2.0320 -0.3253  2.5937
   52CHL1  H24B 6318   6.355   1.024   8.778  0.7402 -0.3891 -1.0194
   52CHL1   C25 6319   6.470   1.168   8.650  0.8894  0.2238 -0.6146
   52CHL1   H25 6320   6.377   1.213   8.610  0.5740  0.3928  0.2927
   52CHL1   C26 6321   6.581   1.277   8.655  0.1932 -0.7803  0.7259
   52CHL1  H26A 6322   6.534   1.357   8.717  0.5203 -0.3978  0.4730
   52CHL1  H26B 6323   6.670   1.238   8.708  0.5418 -1.6127 -0.4652
   52CHL1  H26C 6324   6.603   1.328   8.559  0.2754  0.0151  1.1580
   52CHL1   C27 6325   6.510   1.056   8.555  0.3622  0.1582 -0.1268
   52CHL1  H27A 6326   6.607   1.023   8.597 -0.7605 -2.1750  0.7659
   52CHL1  H27B 6327   6.442   0.968   8.565 -0.3146  0.6084 -0.7491
   52CHL1  H27C 6328   6.514   1.089   8.449  0.4592 -1.8396 -0.7757
   53CHL1    C3 6329   0.398   1.424   9.971 -0.1036  0.0166  0.7984
   53CHL1    H3 6330   0.471   1.503   9.945  1.2199 -1.5469 -0.3292
   53CHL1    O3 6331   0.337   1.446  10.095  0.5557  0.2358  0.0770
   53CHL1   H3' 6332   0.408   1.470  10.156  0.3053 -1.2193  0.9670
   53CHL1    C4 6333   0.295   1.428   9.862 -0.2680 -0.3800  1.4716
   53CHL1   H4A 6334   0.232   1.342   9.890 -2.8013  0.5955 -0.9902
   53CHL1   H4B 6335   0.237   1.521   9.877  1.1550  0.5704  1.2349
   53CHL1    C5 6336   0.347   1.411   9.718 -0.0659  0.1213  0.0375
   53CHL1    C6 6337   0.321   1.502   9.620  0.6517 -0.5671 -0.2178
   53CHL1    H6 6338   0.264   1.592   9.648  2.1799  0.4708 -0.3987
   53CHL1    C7 6339   0.360   1.495   9.476  0.1554 -0.2777  0.3954
   53CHL1   H7A 6340   0.278   1.537   9.414 -2.0276 -1.4978  2.3618
   53CHL1   H7B 6341   0.456   1.550   9.463 -0.4811  0.8930  0.5666
   53CHL1    C8 6342   0.401   1.349   9.453 -0.1836 -0.8279  0.2523
   53CHL1    H8 6343   0.307   1.290   9.454 -0.3070 -0.6118  2.7868
   53CHL1   C14 6344   0.472   1.340   9.322 -0.2171  0.0987  0.2770
   53CHL1   H14 6345   0.555   1.412   9.333 -1.3843  1.1751  2.4286
   53CHL1   C15 6346   0.394   1.406   9.205  0.6617  0.4558 -0.3484
   53CHL1  H15A 6347   0.286   1.381   9.205  0.7770 -0.0788  0.6690
   53CHL1  H15B 6348   0.392   1.517   9.206 -2.0437  0.4579 -0.5582
   53CHL1   C16 6349   0.469   1.352   9.074  0.3457  0.5140  0.1870
   53CHL1  H16A 6350   0.396   1.313   9.000  1.9959  2.4388 -2.5598
   53CHL1  H16B 6351   0.525   1.436   9.027  0.8038 -0.0614 -0.2912
   53CHL1   C17 6352   0.562   1.246   9.133 -0.2107 -0.8637  0.4708
   53CHL1   H17 6353   0.656   1.302   9.155 -0.3252  0.3635 -2.0728
   53CHL1   C13 6354   0.514   1.205   9.278  0.2114 -0.9156  0.5629
   53CHL1   C18 6355   0.391   1.104   9.271  0.3021 -0.8021  0.1647
   53CHL1  H18A 6356   0.333   1.108   9.365 -1.2333 -1.3933 -0.7379
   53CHL1  H18B 6357   0.330   1.146   9.188 -1.1478  0.0434  1.6385
   53CHL1  H18C 6358   0.408   0.997   9.245 -0.8784 -0.7642 -0.8097
   53CHL1   C12 6359   0.616   1.162   9.377  0.2552 -0.0795  0.4379
   53CHL1  H12A 6360   0.665   1.068   9.342 -2.0003 -1.4959  0.9628
   53CHL1  H12B 6361   0.696   1.238   9.391  0.1083  0.1639 -0.0585
   53CHL1   C11 6362   0.554   1.152   9.511 -0.4590  0.7729 -0.0263
   53CHL1  H11A 6363   0.479   1.070   9.508 -0.2885  0.6527 -0.9163
   53CHL1  H11B 6364   0.624   1.124   9.593 -1.4964 -0.5213  0.4432
   53CHL1    C9 6365   0.491   1.287   9.561  0.0313  0.3863 -0.6783
   53CHL1    H9 6366   0.575   1.357   9.578 -0.8858  1.3385  0.0223
   53CHL1   C10 6367   0.419   1.284   9.696 -0.2398 -0.3636  0.5478
   53CHL1   C19 6368   0.326   1.157   9.704  0.5639 -0.5026 -0.2454
   53CHL1  H19A 6369   0.393   1.069   9.695 -1.4510 -1.8245 -2.7793
   53CHL1  H19B 6370   0.269   1.139   9.797  0.4373  0.4197 -0.1442
   53CHL1  H19C 6371   0.273   1.145   9.607  3.1163 -0.9184 -1.6613
   53CHL1    C1 6372   0.518   1.274   9.816  0.0761 -0.0272 -0.5743
   53CHL1   H1A 6373   0.553   1.169   9.811 -0.5297 -0.2911  0.4731
   53CHL1   H1B 6374   0.607   1.340   9.801  1.4351 -1.7905 -0.4223
   53CHL1    C2 6375   0.469   1.283   9.962  0.0844  0.8192  0.5581
   53CHL1   H2A 6376   0.547   1.271  10.040  1.0649  0.8219 -0.4063
   53CHL1   H2B 6377   0.390   1.210   9.990 -1.8801  1.7207 -2.3319
   53CHL1   C20 6378   0.595   1.133   9.039 -0.6329  0.3624  0.0739
   53CHL1   H20 6379   0.502   1.072   9.037  0.4991 -1.4164  0.6586
   53CHL1   C21 6380   0.703   1.041   9.088 -1.0881  0.1224 -1.0932
   53CHL1  H21A 6381   0.783   1.099   9.138  0.8418 -1.7988 -1.8863
   53CHL1  H21B 6382   0.744   0.985   9.001  2.7207 -0.5730  1.0525
   53CHL1  H21C 6383   0.658   0.963   9.153 -2.8984  1.1919 -1.0326
   53CHL1   C22 6384   0.632   1.175   8.893  0.5071  0.1447 -0.4244
   53CHL1  H22A 6385   0.564   1.259   8.867  1.7162  1.4968  0.6717
   53CHL1  H22B 6386   0.738   1.208   8.896  0.5774 -0.1356  0.2376
   53CHL1   C23 6387   0.605   1.060   8.789  0.7774 -0.4462  0.0161
   53CHL1  H23A 6388   0.643   1.080   8.686  1.6209  2.7364  0.8860
   53CHL1  H23B 6389   0.655   0.964   8.814  1.5176 -0.5015 -1.6011
   53CHL1   C24 6390   0.462   1.034   8.757  0.6577  0.8377 -0.7316
   53CHL1  H24A 6391   0.401   1.005   8.846  0.2035  1.0033 -0.9864
   53CHL1  H24B 6392   0.418   1.130   8.725 -0.3174  0.9568  0.9155
   53CHL1   C25 6393   0.446   0.928   8.633 -0.0103  0.1078 -0.1819
   53CHL1   H25 6394   0.546   0.878   8.636  0.6050  1.1609 -2.3459
   53CHL1   C26 6395   0.328   0.825   8.665  0.3198  0.3675  0.2134
   53CHL1  H26A 6396   0.360   0.742   8.732  0.9748  0.9534  0.6451
   53CHL1  H26B 6397   0.239   0.881   8.698  0.0879 -0.8073  1.6270
   53CHL1  H26C 6398   0.313   0.778   8.565 -2.3306 -1.8416  1.5834
   53CHL1   C27 6399   0.429   1.003   8.503 -0.1635  0.1557  1.1697
   53CHL1  H27A 6400   0.511   1.078   8.492 -0.4886  0.4323  0.5930
   53CHL1  H27B 6401   0.435   0.928   8.422 -1.7816  1.0393  0.2060
   53CHL1  H27C 6402   0.329   1.052   8.497  0.9589  2.3422 -0.7452
   54CHL1    C3 6403   0.594   2.220  10.239  0.2136 -0.1630  0.2749
   54CHL1    H3 6404   0.592   2.109  10.246 -1.0024 -0.1880 -0.4603
   54CHL1    O3 6405   0.545   2.279  10.359 -0.8960 -0.0360  0.5918
   54CHL1   H3' 6406   0.530   2.370  10.333 -0.0527  0.3220  1.3294
   54CHL1    C4 6407   0.738   2.269  10.202 -0.5402 -0.1212 -0.4177
   54CHL1   H4A 6408   0.745   2.380  10.208  0.6685 -0.2660  1.0120
   54CHL1   H4B 6409   0.793   2.235  10.292 -2.0341 -0.9127  0.2253
   54CHL1    C5 6410   0.792   2.221  10.071  0.2207 -0.4197 -0.5011
   54CHL1    C6 6411   0.908   2.153  10.056 -0.2297 -0.4198 -0.2192
   54CHL1    H6 6412   0.968   2.144  10.147 -1.0655 -3.5636  0.0772
   54CHL1    C7 6413   0.967   2.114   9.926 -0.4137  0.2088 -0.8681
   54CHL1   H7A 6414   1.075   2.140   9.928  0.5574 -3.3716 -1.9750
   54CHL1   H7B 6415   0.958   2.003   9.919  0.3535  0.0806  0.1626
   54CHL1    C8 6416   0.899   2.171   9.803 -0.0084 -0.3471 -0.4441
   54CHL1    H8 6417   0.945   2.269   9.778  1.1160 -1.2767 -2.1459
   54CHL1   C14 6418   0.923   2.088   9.677 -0.8465 -0.4040  0.5032
   54CHL1   H14 6419   0.877   1.989   9.697  0.0091 -0.9668 -0.3195
   54CHL1   C15 6420   1.069   2.052   9.639 -0.1858 -0.5227  0.2081
   54CHL1  H15A 6421   1.127   2.146   9.643  0.1672 -0.7924  1.8399
   54CHL1  H15B 6422   1.108   1.967   9.700 -0.7654 -0.8921  0.0698
   54CHL1   C16 6423   1.053   2.002   9.488 -0.4956 -0.6767 -0.2292
   54CHL1  H16A 6424   1.137   2.049   9.432 -1.6906  1.1061 -0.5525
   54CHL1  H16B 6425   1.075   1.893   9.494  0.4712 -0.6686 -2.9195
   54CHL1   C17 6426   0.904   2.037   9.449  0.8354 -0.5089  0.0094
   54CHL1   H17 6427   0.853   1.942   9.478  0.2137  0.1173  0.9986
   54CHL1   C13 6428   0.858   2.143   9.548 -0.3659  0.8756  0.0352
   54CHL1   C18 6429   0.923   2.274   9.514 -0.1499  0.8862  0.4885
   54CHL1  H18A 6430   0.881   2.310   9.418  0.7523 -0.8764 -0.6093
   54CHL1  H18B 6431   0.914   2.351   9.593 -0.9079  0.3671  0.9229
   54CHL1  H18C 6432   1.027   2.273   9.474  1.0384 -1.3420  3.4972
   54CHL1   C12 6433   0.713   2.140   9.571  0.6563 -0.9658  0.4304
   54CHL1  H12A 6434   0.661   2.193   9.488  2.8804  3.2602  1.6318
   54CHL1  H12B 6435   0.684   2.033   9.573  1.0912 -1.1856 -2.5940
   54CHL1   C11 6436   0.677   2.216   9.697  0.0456  0.4524  0.2179
   54CHL1  H11A 6437   0.682   2.324   9.671 -3.2657  0.8219  0.8761
   54CHL1  H11B 6438   0.568   2.200   9.713  0.1215  1.0491  1.4224
   54CHL1    C9 6439   0.747   2.182   9.828  0.0095  0.0218 -0.3288
   54CHL1    H9 6440   0.719   2.075   9.841  0.8868 -0.1042  0.5224
   54CHL1   C10 6441   0.706   2.251   9.957 -0.4267 -0.4303  0.5346
   54CHL1   C19 6442   0.732   2.397   9.917  0.2973 -0.1022 -0.8370
   54CHL1  H19A 6443   0.836   2.401   9.879  0.0493 -2.1923 -1.7696
   54CHL1  H19B 6444   0.660   2.442   9.845  0.8448  2.0756 -0.0748
   54CHL1  H19C 6445   0.712   2.461  10.006 -1.2703 -0.0291 -1.2146
   54CHL1    C1 6446   0.557   2.214   9.989 -0.7576 -0.2369 -0.6308
   54CHL1   H1A 6447   0.489   2.252   9.910 -1.6586 -0.5917 -0.0375
   54CHL1   H1B 6448   0.548   2.104  10.000 -1.7120 -0.2241 -1.2556
   54CHL1    C2 6449   0.501   2.269  10.130 -0.1611  0.2936  0.3302
   54CHL1   H2A 6450   0.405   2.216  10.142 -0.3785  0.0733 -2.1753
   54CHL1   H2B 6451   0.485   2.379  10.133 -0.0975  0.5031 -3.8150
   54CHL1   C20 6452   0.875   2.057   9.297 -0.4605  0.3949  0.1292
   54CHL1   H20 6453   0.889   2.161   9.260 -2.4157  0.5529 -0.2099
   54CHL1   C21 6454   0.725   2.013   9.277 -0.3875 -0.6296  0.6687
   54CHL1  H21A 6455   0.650   2.064   9.341 -0.2420  0.1805  0.2109
   54CHL1  H21B 6456   0.723   1.903   9.287 -0.2207 -0.5719  1.3454
   54CHL1  H21C 6457   0.692   2.041   9.174 -1.7854  1.7425  1.7000
   54CHL1   C22 6458   0.967   1.979   9.203  0.5434 -0.3359 -0.2279
   54CHL1  H22A 6459   1.073   1.999   9.228  0.2336  0.4261  0.4925
   54CHL1  H22B 6460   0.953   1.869   9.215  1.1525 -0.6606 -2.2790
   54CHL1   C23 6461   0.934   2.009   9.056 -0.7407 -0.0223  0.2344
   54CHL1  H23A 6462   0.833   1.971   9.029 -1.2510  1.4749 -0.0533
   54CHL1  H23B 6463   0.923   2.118   9.036 -2.2795 -0.2819 -0.4222
   54CHL1   C24 6464   1.031   1.944   8.959  0.1169  0.9831  0.0896
   54CHL1  H24A 6465   1.138   1.965   8.979  0.7651 -1.9971  0.0537
   54CHL1  H24B 6466   1.016   1.835   8.945  3.9794  0.6462 -2.1486
   54CHL1   C25 6467   1.026   2.014   8.817 -0.0160  0.0121 -0.1282
   54CHL1   H25 6468   1.034   2.124   8.824  1.6012 -0.2183  2.5454
   54CHL1   C26 6469   1.131   1.955   8.727 -0.0353 -0.0919 -0.3173
   54CHL1  H26A 6470   1.105   1.848   8.712  3.0306 -0.7408 -1.3983
   54CHL1  H26B 6471   1.130   2.004   8.628 -0.7976 -0.2342 -0.3822
   54CHL1  H26C 6472   1.231   1.965   8.775  0.4613  1.6675 -1.6883
   54CHL1   C27 6473   0.891   1.984   8.744  0.5262  0.4323 -0.3767
   54CHL1  H27A 6474   0.877   1.874   8.733 -1.8445  0.6711  0.0272
   54CHL1  H27B 6475   0.809   2.038   8.797  1.6443  3.4989 -1.6391
   54CHL1  H27C 6476   0.898   2.027   8.642  1.0927 -0.3349 -0.6650
   55CHL1    C3 6477   1.317   0.180  10.138  0.1365  0.1717 -0.0570
   55CHL1    H3 6478   1.283   0.279  10.100 -1.8910 -1.1492 -1.8107
   55CHL1    O3 6479   1.374   0.204  10.264 -0.0877  0.2607 -0.1962
   55CHL1   H3' 6480   1.465   0.228  10.247  0.8002 -3.1534 -0.7199
   55CHL1    C4 6481   1.191   0.084  10.152 -0.9247  0.1893  0.2994
   55CHL1   H4A 6482   1.224  -0.004  10.210  0.5478  1.4584  1.4436
   55CHL1   H4B 6483   1.128   0.144  10.221  0.8028  2.3212  0.1073
   55CHL1    C5 6484   1.136   0.047  10.018 -0.1878 -0.1203 -0.4516
   55CHL1    C6 6485   1.012   0.059   9.989 -0.2889  0.6883  0.0281
   55CHL1    H6 6486   0.945   0.090  10.070 -0.8739  0.2364 -0.2703
   55CHL1    C7 6487   0.948   0.022   9.857  0.3928 -0.3403  0.4653
   55CHL1   H7A 6488   0.852  -0.031   9.875  0.4013 -0.6574 -0.3719
   55CHL1   H7B 6489   0.920   0.112   9.799 -0.0688 -1.6075 -1.3274
   55CHL1    C8 6490   1.039  -0.068   9.770  0.2457 -0.3672  0.2800
   55CHL1    H8 6491   1.046  -0.170   9.814  0.5333 -0.8975 -0.9682
   55CHL1   C14 6492   0.984  -0.081   9.629  0.3122  0.2187  0.4389
   55CHL1   H14 6493   0.989   0.013   9.570 -0.6740  0.1232  0.1781
   55CHL1   C15 6494   0.833  -0.117   9.620 -0.8676  0.0283 -0.5488
   55CHL1  H15A 6495   0.796  -0.178   9.705  0.1581  1.3641  0.8989
   55CHL1  H15B 6496   0.773  -0.023   9.627 -2.5945 -1.0571 -0.3145
   55CHL1   C16 6497   0.827  -0.174   9.478 -0.3702 -0.3959 -0.2188
   55CHL1  H16A 6498   0.793  -0.278   9.497 -2.2192 -0.2950 -2.7713
   55CHL1  H16B 6499   0.756  -0.119   9.411 -0.1977 -0.4588 -0.4530
   55CHL1   C17 6500   0.970  -0.172   9.412 -1.0816 -0.7930 -0.3897
   55CHL1   H17 6501   0.970  -0.067   9.376  0.5314 -1.1042 -1.3394
   55CHL1   C13 6502   1.060  -0.177   9.539 -0.0073  0.1195  0.2171
   55CHL1   C18 6503   1.065  -0.319   9.592  0.1508  0.0376  0.5883
   55CHL1  H18A 6504   1.105  -0.322   9.695 -0.9458 -1.9161  0.9835
   55CHL1  H18B 6505   0.965  -0.368   9.595  1.2576 -2.3955 -0.4290
   55CHL1  H18C 6506   1.136  -0.372   9.525 -1.5589  0.3518 -1.5657
   55CHL1   C12 6507   1.205  -0.120   9.528  0.3953 -0.7586  0.3645
   55CHL1  H12A 6508   1.264  -0.168   9.446 -0.2786 -0.3056 -0.3958
   55CHL1  H12B 6509   1.192  -0.016   9.489 -0.1117 -0.7133  0.6586
   55CHL1   C11 6510   1.277  -0.102   9.667 -0.2745 -0.4008  0.2862
   55CHL1  H11A 6511   1.289  -0.209   9.695 -2.1268 -0.5939  0.4045
   55CHL1  H11B 6512   1.373  -0.048   9.654 -1.2152  0.7846 -1.9178
   55CHL1    C9 6513   1.181  -0.015   9.764  0.1806  0.2550  0.2204
   55CHL1    H9 6514   1.176   0.086   9.717  1.4626  0.3801  0.3239
   55CHL1   C10 6515   1.239  -0.008   9.910 -0.1832  0.1651  0.3983
   55CHL1   C19 6516   1.281  -0.156   9.955 -0.9895 -0.3199 -0.2150
   55CHL1  H19A 6517   1.371  -0.202   9.910 -1.7847 -1.2642 -0.8580
   55CHL1  H19B 6518   1.292  -0.158  10.066  0.2579 -0.7056 -0.3359
   55CHL1  H19C 6519   1.197  -0.228   9.946 -1.2436 -0.3126  1.8092
   55CHL1    C1 6520   1.363   0.087   9.898 -0.2470  0.1874  0.0613
   55CHL1   H1A 6521   1.443   0.057   9.828  1.8345  3.0691  1.0815
   55CHL1   H1B 6522   1.315   0.174   9.849  0.2059 -0.1531 -0.9918
   55CHL1    C2 6523   1.424   0.135  10.035  0.2526  0.1603 -0.0364
   55CHL1   H2A 6524   1.484   0.226  10.013  1.6472 -0.9111 -0.8192
   55CHL1   H2B 6525   1.498   0.064  10.079 -0.5754 -1.4166 -1.1091
   55CHL1   C20 6526   1.008  -0.265   9.294 -0.5087  0.1126  0.8015
   55CHL1   H20 6527   1.072  -0.348   9.332 -1.3676  0.3117  2.7270
   55CHL1   C21 6528   1.093  -0.189   9.192  0.1906  0.1609  0.1781
   55CHL1  H21A 6529   1.154  -0.255   9.127 -0.2321  1.1907 -1.2879
   55CHL1  H21B 6530   1.166  -0.122   9.242 -1.2272  1.6670  0.2836
   55CHL1  H21C 6531   1.036  -0.127   9.120 -0.0094 -0.0410  0.1617
   55CHL1   C22 6532   0.891  -0.325   9.225  0.0134  0.7028  0.3868
   55CHL1  H22A 6533   0.854  -0.400   9.297  1.7103 -0.8429 -0.3075
   55CHL1  H22B 6534   0.815  -0.244   9.225 -0.2393  0.4672 -0.0847
   55CHL1   C23 6535   0.909  -0.386   9.092  0.1136  0.2095 -0.0348
   55CHL1  H23A 6536   0.938  -0.308   9.019  0.7994 -0.7368 -0.7802
   55CHL1  H23B 6537   1.001  -0.449   9.094  0.1551  0.2999  1.9014
   55CHL1   C24 6538   0.788  -0.459   9.041  0.5340  0.0929  0.3839
   55CHL1  H24A 6539   0.772  -0.557   9.090 -0.8838  0.6379  1.0268
   55CHL1  H24B 6540   0.706  -0.397   9.081 -1.1541  0.2296 -3.1020
   55CHL1   C25 6541   0.780  -0.480   8.887 -0.6601 -0.0688  0.6392
   55CHL1   H25 6542   0.769  -0.381   8.838 -1.7422 -1.4407 -1.9672
   55CHL1   C26 6543   0.901  -0.553   8.831  0.1840  0.1464 -0.0439
   55CHL1  H26A 6544   0.906  -0.657   8.869  2.2133  0.4977  0.7035
   55CHL1  H26B 6545   0.899  -0.564   8.721 -0.6737  2.7906 -0.3430
   55CHL1  H26C 6546   0.990  -0.497   8.866 -0.0512  0.6861 -0.2931
   55CHL1   C27 6547   0.648  -0.555   8.849  0.5501  0.0630  1.0496
   55CHL1  H27A 6548   0.649  -0.657   8.892  1.1495 -1.3775 -2.1906
   55CHL1  H27B 6549   0.558  -0.498   8.884 -1.1388 -2.0084  0.1976
   55CHL1  H27C 6550   0.643  -0.549   8.738  0.4729  1.6668  1.1282
   56CHL1    C3 6551   5.596   5.756  10.135 -0.6248  0.0210  0.4132
   56CHL1    H3 6552   5.486   5.752  10.120 -0.8621 -0.9381  2.1860
   56CHL1    O3 6553   5.626   5.774  10.274  0.3889  0.1644 -0.0250
   56CHL1   H3' 6554   5.607   5.689  10.315 -1.2455  0.8066  0.5571
   56CHL1    C4 6555   5.646   5.621  10.089 -0.2048 -0.1777 -0.3511
   56CHL1   H4A 6556   5.753   5.626  10.117  0.6280  1.6165 -3.5729
   56CHL1   H4B 6557   5.600   5.542  10.152 -0.0790  0.7442  0.9114
   56CHL1    C5 6558   5.627   5.596   9.941  0.4982 -0.1055 -0.3890
   56CHL1    C6 6559   5.558   5.495   9.894 -0.5287 -0.0612  0.2113
   56CHL1    H6 6560   5.532   5.413   9.962  0.7106  1.3992  2.5033
   56CHL1    C7 6561   5.545   5.451   9.751  0.2580 -0.4432 -0.3160
   56CHL1   H7A 6562   5.582   5.347   9.734 -1.7546 -1.0937 -0.8176
   56CHL1   H7B 6563   5.444   5.455   9.705  0.0182 -0.5702  0.1917
   56CHL1    C8 6564   5.634   5.540   9.661 -0.1510 -0.3880  0.1853
   56CHL1    H8 6565   5.741   5.510   9.668 -0.5090 -1.5999  0.6758
   56CHL1   C14 6566   5.593   5.504   9.516  0.1610 -0.6128  0.1228
   56CHL1   H14 6567   5.488   5.538   9.513  1.0489  2.3877  1.5029
   56CHL1   C15 6568   5.586   5.360   9.473 -0.2788  0.0592 -0.1540
   56CHL1  H15A 6569   5.677   5.306   9.507  0.7188  0.0656 -2.7749
   56CHL1  H15B 6570   5.499   5.310   9.522  0.7583 -0.7075  0.9322
   56CHL1   C16 6571   5.590   5.362   9.320 -0.4069 -0.1214 -0.1965
   56CHL1  H16A 6572   5.681   5.310   9.282  0.6929 -0.2053  2.4187
   56CHL1  H16B 6573   5.502   5.311   9.277  0.1092 -1.9612  0.8607
   56CHL1   C17 6574   5.587   5.510   9.285 -0.2106  0.0473  0.2552
   56CHL1   H17 6575   5.483   5.546   9.299 -1.4097 -2.4068 -2.1350
   56CHL1   C13 6576   5.654   5.578   9.406 -0.0827  0.8330  0.4196
   56CHL1   C18 6577   5.811   5.562   9.393 -0.0930  0.1256  0.1527
   56CHL1  H18A 6578   5.866   5.600   9.481  0.1842  0.5110 -0.1881
   56CHL1  H18B 6579   5.844   5.462   9.357 -0.6711  0.0202 -0.0911
   56CHL1  H18C 6580   5.851   5.630   9.315  1.1342  1.0581  1.5785
   56CHL1   C12 6581   5.616   5.723   9.439 -0.0548  0.1681  0.2759
   56CHL1  H12A 6582   5.652   5.794   9.362  2.3811 -1.3298 -0.0227
   56CHL1  H12B 6583   5.507   5.738   9.422 -0.8643 -1.7189  3.2940
   56CHL1   C11 6584   5.671   5.768   9.577 -0.2438 -0.2314  0.4533
   56CHL1  H11A 6585   5.782   5.770   9.586  0.0178 -2.7166 -1.5131
   56CHL1  H11B 6586   5.631   5.871   9.585  0.1044 -0.0234 -0.4102
   56CHL1    C9 6587   5.622   5.688   9.696  0.8397 -0.0170  0.7388
   56CHL1    H9 6588   5.511   5.696   9.688  0.9181  0.0468 -0.2858
   56CHL1   C10 6589   5.664   5.707   9.841  0.7278 -0.4471 -0.6979
   56CHL1   C19 6590   5.824   5.715   9.847  0.3964 -0.3509 -0.1877
   56CHL1  H19A 6591   5.872   5.630   9.794 -2.5245 -1.9547 -0.3812
   56CHL1  H19B 6592   5.860   5.813   9.808 -1.4280 -0.5014 -2.3880
   56CHL1  H19C 6593   5.865   5.723   9.950  1.0102  1.5621 -0.5584
   56CHL1    C1 6594   5.605   5.835   9.907 -0.4474  0.2050  0.2241
   56CHL1   H1A 6595   5.641   5.925   9.853  0.3124 -0.1991  0.0469
   56CHL1   H1B 6596   5.494   5.837   9.900 -0.4619 -0.9083  0.0202
   56CHL1    C2 6597   5.651   5.866  10.052 -0.4847  0.3456 -0.0832
   56CHL1   H2A 6598   5.597   5.960  10.075  0.6278  1.1967 -0.8925
   56CHL1   H2B 6599   5.762   5.868  10.065 -0.3020 -1.0324 -1.2906
   56CHL1   C20 6600   5.630   5.545   9.144 -0.0340  0.8816 -0.1407
   56CHL1   H20 6601   5.740   5.537   9.134 -0.0674  1.1054 -0.7045
   56CHL1   C21 6602   5.592   5.690   9.115 -0.3920  0.5462 -0.2999
   56CHL1  H21A 6603   5.589   5.704   9.005  0.5606  0.3495 -0.3585
   56CHL1  H21B 6604   5.663   5.753   9.173  0.2210 -0.2222 -0.1896
   56CHL1  H21C 6605   5.487   5.702   9.148  0.1266  1.7226  0.9802
   56CHL1   C22 6606   5.560   5.449   9.038  0.0538  0.0396  0.2101
   56CHL1  H22A 6607   5.585   5.343   9.060 -0.7923 -0.2834 -0.3524
   56CHL1  H22B 6608   5.449   5.441   9.039  0.1980 -2.5162  1.5427
   56CHL1   C23 6609   5.597   5.469   8.894 -0.2131 -0.7731  0.1324
   56CHL1  H23A 6610   5.576   5.571   8.855 -1.9870 -0.7903  0.9527
   56CHL1  H23B 6611   5.707   5.459   8.883 -0.5538 -3.5690 -0.9391
   56CHL1   C24 6612   5.524   5.366   8.810 -0.1806  0.2283 -0.0479
   56CHL1  H24A 6613   5.519   5.272   8.868  0.7952  1.8092  2.7214
   56CHL1  H24B 6614   5.426   5.409   8.782 -0.0746  0.6954  0.2814
   56CHL1   C25 6615   5.586   5.341   8.677 -0.4137 -0.3613 -0.1045
   56CHL1   H25 6616   5.614   5.440   8.633 -0.0419 -0.2862  0.2988
   56CHL1   C26 6617   5.715   5.261   8.683 -0.3650  0.4228  0.0173
   56CHL1  H26A 6618   5.769   5.271   8.586 -1.8023 -0.1997 -0.8603
   56CHL1  H26B 6619   5.786   5.295   8.762 -1.5058  0.3933  1.0659
   56CHL1  H26C 6620   5.698   5.151   8.686  2.1029 -0.0021 -0.6325
   56CHL1   C27 6621   5.488   5.272   8.586  0.0991 -0.1634 -0.0099
   56CHL1  H27A 6622   5.530   5.260   8.483  0.5811 -1.2314  0.2953
   56CHL1  H27B 6623   5.472   5.166   8.614  0.2156 -0.8218 -2.3155
   56CHL1  H27C 6624   5.388   5.320   8.579 -0.2085 -0.8482 -0.4037
   57CHL1    C3 6625   1.587   1.268  10.118  0.0578  0.9566 -0.0167
   57CHL1    H3 6626   1.523   1.347  10.072 -0.8277 -1.7551 -3.6266
   57CHL1    O3 6627   1.554   1.256  10.256 -0.4796  0.0158  0.6425
   57CHL1   H3' 6628   1.609   1.321  10.299  0.4723 -2.0749  2.7671
   57CHL1    C4 6629   1.548   1.137  10.047 -0.2116  0.1356 -0.1728
   57CHL1   H4A 6630   1.619   1.064  10.092  0.8776  1.9240  1.0647
   57CHL1   H4B 6631   1.448   1.106  10.084  0.6050 -0.0593  1.9601
   57CHL1    C5 6632   1.551   1.148   9.892 -0.4593 -0.0297  0.4311
   57CHL1    C6 6633   1.446   1.124   9.811  0.6760 -0.3760 -0.1590
   57CHL1    H6 6634   1.354   1.105   9.867 -0.9128 -0.1111 -2.6133
   57CHL1    C7 6635   1.444   1.142   9.660  0.4967 -0.6635  0.2671
   57CHL1   H7A 6636   1.400   1.052   9.612  1.7666 -2.4628  2.3806
   57CHL1   H7B 6637   1.387   1.229   9.622 -0.2746 -0.9814  0.6964
   57CHL1    C8 6638   1.590   1.155   9.611  0.4421  0.2258  1.0982
   57CHL1    H8 6639   1.632   1.053   9.608 -1.9789 -0.7595 -1.1835
   57CHL1   C14 6640   1.579   1.219   9.473 -1.0151 -0.7130  0.4479
   57CHL1   H14 6641   1.535   1.320   9.486 -0.5971 -0.6833  1.6949
   57CHL1   C15 6642   1.488   1.153   9.370 -0.1901 -0.4097  0.1855
   57CHL1  H15A 6643   1.508   1.044   9.379  1.1134 -0.2014 -0.2069
   57CHL1  H15B 6644   1.382   1.180   9.393  0.6330  0.7107  2.7984
   57CHL1   C16 6645   1.536   1.198   9.234 -0.2786  0.2781  0.4303
   57CHL1  H16A 6646   1.545   1.109   9.168 -0.1381  0.4376  0.2353
   57CHL1  H16B 6647   1.459   1.268   9.194 -2.4471 -1.1090  2.0836
   57CHL1   C17 6648   1.668   1.274   9.261  0.0752 -0.1599  0.1824
   57CHL1   H17 6649   1.641   1.382   9.262 -0.4317 -0.2972  1.1467
   57CHL1   C13 6650   1.714   1.239   9.402 -0.5683 -0.0284  0.3459
   57CHL1   C18 6651   1.789   1.106   9.389 -0.4448 -0.7985 -0.7073
   57CHL1  H18A 6652   1.892   1.122   9.351  0.5436  1.0035  2.5363
   57CHL1  H18B 6653   1.808   1.060   9.488 -1.5069 -1.9038 -1.0016
   57CHL1  H18C 6654   1.742   1.027   9.326 -0.1522 -0.6581 -1.1037
   57CHL1   C12 6655   1.801   1.339   9.487  0.5154 -0.1178 -0.4971
   57CHL1  H12A 6656   1.902   1.357   9.445  0.4053  0.3920 -0.5514
   57CHL1  H12B 6657   1.743   1.433   9.498  1.8385  0.6243  0.3572
   57CHL1   C11 6658   1.819   1.283   9.634 -0.2526  0.2689  0.6729
   57CHL1  H11A 6659   1.880   1.191   9.625  0.1238  0.6508 -0.8990
   57CHL1  H11B 6660   1.871   1.361   9.693  0.4803  0.0127  0.3771
   57CHL1    C9 6661   1.680   1.246   9.696  0.0358 -0.6266  0.3571
   57CHL1    H9 6662   1.615   1.336   9.693  1.3337  0.3010 -2.2386
   57CHL1   C10 6663   1.686   1.197   9.843  0.1755 -0.6117 -0.3774
   57CHL1   C19 6664   1.781   1.083   9.848  0.5851  0.4348 -0.0245
   57CHL1  H19A 6665   1.881   1.120   9.817  0.3790 -0.0431 -1.2892
   57CHL1  H19B 6666   1.780   1.037   9.949  0.4862 -3.7376 -1.8092
   57CHL1  H19C 6667   1.756   1.004   9.774  0.2005  0.5204  0.0130
   57CHL1    C1 6668   1.737   1.322   9.929 -0.1114 -0.0613  0.2206
   57CHL1   H1A 6669   1.843   1.349   9.911  0.0091 -0.4462  0.3660
   57CHL1   H1B 6670   1.672   1.409   9.902  1.0075  0.1623 -1.8890
   57CHL1    C2 6671   1.728   1.310  10.082  0.3448  0.4592  0.2621
   57CHL1   H2A 6672   1.767   1.401  10.133 -0.1824 -0.9405  3.3438
   57CHL1   H2B 6673   1.785   1.231  10.136 -0.3221  0.2008  0.5999
   57CHL1   C20 6674   1.758   1.257   9.133 -0.2439  0.0940  0.5256
   57CHL1   H20 6675   1.799   1.154   9.133 -0.7292 -0.1001  0.0969
   57CHL1   C21 6676   1.884   1.350   9.148  0.3806 -0.5123  0.3971
   57CHL1  H21A 6677   1.855   1.456   9.160  0.5279 -0.4149 -0.0958
   57CHL1  H21B 6678   1.945   1.322   9.059  1.2359  0.8038  0.5625
   57CHL1  H21C 6679   1.948   1.325   9.235 -1.2961  3.0738  2.7705
   57CHL1   C22 6680   1.677   1.276   9.005  0.1161 -0.0097  0.5205
   57CHL1  H22A 6681   1.607   1.191   8.992  0.6841 -0.4901  0.5810
   57CHL1  H22B 6682   1.631   1.377   9.015  1.2701  0.5872 -0.0675
   57CHL1   C23 6683   1.755   1.286   8.875 -0.1458  0.0002 -0.0246
   57CHL1  H23A 6684   1.812   1.380   8.862 -1.3153  0.4089 -2.4529
   57CHL1  H23B 6685   1.829   1.204   8.892  0.1699  0.4659  0.8420
   57CHL1   C24 6686   1.651   1.254   8.764 -0.0768  0.5290 -0.4640
   57CHL1  H24A 6687   1.705   1.259   8.666  2.8174 -1.2917  0.9577
   57CHL1  H24B 6688   1.601   1.156   8.777  0.4757  0.5484  2.1015
   57CHL1   C25 6689   1.537   1.361   8.748 -0.2837 -0.6745 -0.2475
   57CHL1   H25 6690   1.480   1.349   8.842 -2.3614  0.6606 -1.3142
   57CHL1   C26 6691   1.592   1.505   8.730 -0.0084 -0.2349  0.2919
   57CHL1  H26A 6692   1.673   1.529   8.802 -0.4844 -2.3789  1.5921
   57CHL1  H26B 6693   1.629   1.501   8.626 -0.0265 -1.6595  0.3236
   57CHL1  H26C 6694   1.515   1.585   8.735  0.7670  0.7145 -2.3097
   57CHL1   C27 6695   1.440   1.320   8.636 -0.2408 -0.4210 -0.5846
   57CHL1  H27A 6696   1.360   1.397   8.632  1.6149  1.7512  1.8155
   57CHL1  H27B 6697   1.495   1.308   8.540  1.1524 -1.0096  0.2788
   57CHL1  H27C 6698   1.397   1.219   8.652  1.8704 -1.2618  0.0262
   58CHL1    C3 6699   3.664   6.036  10.101  0.2903 -0.3286  0.0011
   58CHL1    H3 6700   3.570   5.976  10.095 -0.7892  1.2907  0.4995
   58CHL1    O3 6701   3.677   6.055  10.240 -0.0619  0.5022  0.4205
   58CHL1   H3' 6702   3.742   6.125  10.250  0.3542  0.1230  0.4036
   58CHL1    C4 6703   3.787   5.964  10.034 -0.0844 -0.3428 -1.0677
   58CHL1   H4A 6704   3.880   6.005  10.078 -1.2069  2.1409 -0.8952
   58CHL1   H4B 6705   3.780   5.857  10.065  1.2636  0.6571  2.9585
   58CHL1    C5 6706   3.774   5.970   9.882 -0.2350  0.9752 -0.3971
   58CHL1    C6 6707   3.790   5.850   9.822 -0.6142 -0.5782 -0.7255
   58CHL1    H6 6708   3.816   5.766   9.887  2.7849  1.1285  0.2555
   58CHL1    C7 6709   3.792   5.830   9.672  0.7231  0.0119  0.2661
   58CHL1   H7A 6710   3.877   5.768   9.639 -0.2644 -1.5592  0.6406
   58CHL1   H7B 6711   3.694   5.783   9.649  0.6616  1.0824 -1.8195
   58CHL1    C8 6712   3.796   5.956   9.590  0.0007 -0.3578 -0.2295
   58CHL1    H8 6713   3.898   6.000   9.588 -0.7911  1.8347  2.8898
   58CHL1   C14 6714   3.757   5.928   9.445  0.0366 -0.2910 -0.1503
   58CHL1   H14 6715   3.651   5.897   9.451  0.4174 -1.4589  0.8875
   58CHL1   C15 6716   3.848   5.825   9.382  0.0486 -0.5724 -0.3564
   58CHL1  H15A 6717   3.958   5.843   9.391 -0.0909 -0.1951  0.7567
   58CHL1  H15B 6718   3.814   5.723   9.411  2.4807 -1.2975  0.1329
   58CHL1   C16 6719   3.807   5.847   9.234  0.0739  0.3257  0.1527
   58CHL1  H16A 6720   3.895   5.849   9.166  0.5649 -0.1735  0.7717
   58CHL1  H16B 6721   3.731   5.771   9.205 -0.8146  0.8188  1.1661
   58CHL1   C17 6722   3.731   5.984   9.224  1.0090  0.1784  0.6005
   58CHL1   H17 6723   3.624   5.962   9.244  0.4768  0.9856 -1.2846
   58CHL1   C13 6724   3.764   6.052   9.360  0.4704  0.4943  0.5315
   58CHL1   C18 6725   3.920   6.102   9.348 -0.0923  0.0733 -0.9398
   58CHL1  H18A 6726   3.977   6.095   9.443 -2.0011  0.0771  0.2283
   58CHL1  H18B 6727   3.966   6.049   9.262 -0.2732 -2.2095  0.3313
   58CHL1  H18C 6728   3.919   6.208   9.314 -0.9954  0.4288  0.1591
   58CHL1   C12 6729   3.679   6.159   9.413  0.6245 -0.5894  0.0242
   58CHL1  H12A 6730   3.684   6.256   9.359 -3.9770  0.1581  0.7234
   58CHL1  H12B 6731   3.573   6.125   9.412  0.1844  0.6417  2.0723
   58CHL1   C11 6732   3.698   6.187   9.566 -1.0138 -0.4811  0.4029
   58CHL1  H11A 6733   3.794   6.241   9.576 -0.1611 -1.2670 -2.9279
   58CHL1  H11B 6734   3.619   6.259   9.596 -2.0812 -1.9566  1.1744
   58CHL1    C9 6735   3.700   6.058   9.651  0.0143 -0.2996 -0.6065
   58CHL1    H9 6736   3.598   6.014   9.652  0.3928 -1.2118 -1.1921
   58CHL1   C10 6737   3.741   6.092   9.798  0.2040 -0.1329 -0.0275
   58CHL1   C19 6738   3.864   6.178   9.806 -1.0262  0.1290 -0.2262
   58CHL1  H19A 6739   3.841   6.279   9.766 -1.6759  0.6127  1.3444
   58CHL1  H19B 6740   3.910   6.204   9.904 -2.6432  1.9584  0.0752
   58CHL1  H19C 6741   3.941   6.136   9.737 -2.4127  0.0389 -1.7293
   58CHL1    C1 6742   3.626   6.162   9.871  0.0558  0.3075 -0.1892
   58CHL1   H1A 6743   3.595   6.263   9.838 -3.5557  0.2592  2.7404
   58CHL1   H1B 6744   3.531   6.109   9.850 -0.0690  0.6672 -0.5466
   58CHL1    C2 6745   3.644   6.174  10.023 -0.2936  0.5527  0.0192
   58CHL1   H2A 6746   3.559   6.222  10.077  0.0737  2.0726 -0.7324
   58CHL1   H2B 6747   3.728   6.245  10.043 -0.1428  0.5103 -0.4635
   58CHL1   C20 6748   3.752   6.049   9.085 -0.4555  0.2044 -0.2176
   58CHL1   H20 6749   3.862   6.063   9.076 -0.2259 -0.5186  1.4113
   58CHL1   C21 6750   3.693   6.186   9.075  0.4491 -0.5241 -0.4248
   58CHL1  H21A 6751   3.699   6.225   8.971 -2.7685 -0.3906 -0.6164
   58CHL1  H21B 6752   3.743   6.266   9.135 -0.3771 -0.8806  0.7597
   58CHL1  H21C 6753   3.582   6.180   9.076  0.4714 -0.8290  0.5055
   58CHL1   C22 6754   3.704   5.963   8.963 -0.6317  0.2689 -0.3598
   58CHL1  H22A 6755   3.736   5.856   8.964 -0.0657  0.4285 -0.6312
   58CHL1  H22B 6756   3.594   5.962   8.974 -0.4947 -2.4064  1.0452
   58CHL1   C23 6757   3.744   6.002   8.817 -0.4912 -0.2597 -0.0259
   58CHL1  H23A 6758   3.725   6.109   8.793  2.6708  0.6700  1.3264
   58CHL1  H23B 6759   3.852   5.984   8.799 -0.5793 -0.1926 -0.6464
   58CHL1   C24 6760   3.674   5.922   8.709 -0.3356 -0.7520  0.0988
   58CHL1  H24A 6761   3.713   5.818   8.703 -0.4007 -0.7746  0.0662
   58CHL1  H24B 6762   3.564   5.919   8.726 -0.3552  0.0639  0.1413
   58CHL1   C25 6763   3.682   5.983   8.571 -0.0747 -0.1133 -0.0765
   58CHL1   H25 6764   3.674   6.093   8.584  1.1284 -0.0262 -0.0410
   58CHL1   C26 6765   3.820   5.952   8.512 -0.0494  0.2799  0.2972
   58CHL1  H26A 6766   3.901   5.997   8.574  0.7701  0.5040 -0.8982
   58CHL1  H26B 6767   3.835   5.842   8.506  3.0072  0.4915  2.6493
   58CHL1  H26C 6768   3.834   5.992   8.409 -2.2946  2.1339  0.6765
   58CHL1   C27 6769   3.573   5.933   8.476 -0.7893  0.2771 -0.1028
   58CHL1  H27A 6770   3.570   5.987   8.379  0.8761  2.1605  0.8682
   58CHL1  H27B 6771   3.579   5.822   8.469  0.5607  0.2452  1.3795
   58CHL1  H27C 6772   3.471   5.958   8.512 -0.9309  0.9439 -0.9356
   59CHL1    C3 6773   2.939   5.386  10.272  0.5736 -0.1505  0.7470
   59CHL1    H3 6774   2.834   5.423  10.265  1.0404  0.7928 -1.5786
   59CHL1    O3 6775   2.979   5.389  10.406  0.8413  0.0667 -0.0067
   59CHL1   H3' 6776   2.979   5.482  10.431 -0.6842  0.0635  0.0149
   59CHL1    C4 6777   2.957   5.244  10.212  0.5733  0.1191  0.3991
   59CHL1   H4A 6778   3.061   5.207  10.224 -0.4356 -2.5306  1.3867
   59CHL1   H4B 6779   2.897   5.167  10.266 -1.4444  0.4988 -1.2231
   59CHL1    C5 6780   2.917   5.249  10.066  0.2392  0.9994 -0.0571
   59CHL1    C6 6781   2.836   5.158  10.014  0.1901  0.8815 -0.2865
   59CHL1    H6 6782   2.787   5.081  10.075  0.3014  0.0496 -1.2389
   59CHL1    C7 6783   2.806   5.159   9.863 -0.1220 -0.0568  0.3349
   59CHL1   H7A 6784   2.801   5.053   9.833  1.1408 -0.3162  1.0175
   59CHL1   H7B 6785   2.705   5.191   9.830 -0.2048 -1.1488 -0.4949
   59CHL1    C8 6786   2.918   5.222   9.777  1.1048  0.2154 -0.5097
   59CHL1    H8 6787   3.004   5.152   9.776  0.1388 -1.0923  2.1930
   59CHL1   C14 6788   2.879   5.238   9.632  0.6066  0.0345 -0.2235
   59CHL1   H14 6789   2.790   5.302   9.616  0.5121  0.0520  0.3584
   59CHL1   C15 6790   2.830   5.115   9.559  1.3324 -0.5529 -0.6693
   59CHL1  H15A 6791   2.896   5.029   9.584 -0.6867 -1.8614  0.2993
   59CHL1  H15B 6792   2.726   5.079   9.575  1.6098 -0.8399  0.5882
   59CHL1   C16 6793   2.858   5.146   9.410  1.0999  0.7747 -0.1891
   59CHL1  H16A 6794   2.928   5.068   9.372  0.3623 -0.7397  1.4860
   59CHL1  H16B 6795   2.767   5.156   9.346  1.6673  2.2654 -0.7773
   59CHL1   C17 6796   2.923   5.290   9.405  0.2617 -0.4148 -0.2081
   59CHL1   H17 6797   2.843   5.368   9.402  0.6317  0.0226  1.1484
   59CHL1   C13 6798   2.979   5.308   9.541  0.5206  0.4961  0.2405
   59CHL1   C18 6799   3.112   5.228   9.529  0.0625 -0.3066  0.4417
   59CHL1  H18A 6800   3.095   5.127   9.484 -0.9580  0.6250 -1.2970
   59CHL1  H18B 6801   3.192   5.277   9.470 -1.1055 -2.4114 -3.0469
   59CHL1  H18C 6802   3.164   5.205   9.625 -0.8713  0.9250  1.2460
   59CHL1   C12 6803   3.000   5.447   9.596  0.1935  0.3365  0.3446
   59CHL1  H12A 6804   3.068   5.500   9.527 -0.3492  1.4835  0.6747
   59CHL1  H12B 6805   2.910   5.511   9.606 -1.9039 -2.5317  0.6229
   59CHL1   C11 6806   3.048   5.440   9.745  0.8083  0.2493 -0.3379
   59CHL1  H11A 6807   3.154   5.409   9.747  0.2704 -1.8755 -2.4412
   59CHL1  H11B 6808   3.049   5.549   9.769 -1.8312  0.3231 -0.3607
   59CHL1    C9 6809   2.953   5.360   9.834  0.1520  0.8178 -0.3094
   59CHL1    H9 6810   2.858   5.417   9.833 -0.0974  0.4191  0.2687
   59CHL1   C10 6811   2.993   5.360   9.987  0.2231  0.8438  0.5290
   59CHL1   C19 6812   3.145   5.313   9.980  0.0430 -0.2603  0.1390
   59CHL1  H19A 6813   3.206   5.397   9.941  2.1878 -2.1362 -0.6600
   59CHL1  H19B 6814   3.193   5.293  10.079 -0.5729 -4.1192 -0.2683
   59CHL1  H19C 6815   3.170   5.228   9.914 -1.0310  0.1488 -0.8039
   59CHL1    C1 6816   2.977   5.504  10.048  0.7443 -0.3515 -0.3210
   59CHL1   H1A 6817   3.032   5.586   9.998 -0.3545  1.4525  1.3280
   59CHL1   H1B 6818   2.868   5.524  10.041  0.5324 -1.1774  0.4863
   59CHL1    C2 6819   3.016   5.501  10.200  0.3510 -0.5001  0.1161
   59CHL1   H2A 6820   2.987   5.595  10.250  2.6615  0.3476 -0.0969
   59CHL1   H2B 6821   3.126   5.491  10.208  0.2877 -0.3679  1.1644
   59CHL1   C20 6822   2.999   5.314   9.276  0.0149 -0.3764  0.5107
   59CHL1   H20 6823   3.100   5.267   9.273  0.1775  0.0621 -2.2290
   59CHL1   C21 6824   3.037   5.473   9.263  0.5600 -0.9717 -0.1660
   59CHL1  H21A 6825   3.058   5.502   9.158 -1.0613  0.4035 -0.1294
   59CHL1  H21B 6826   3.121   5.511   9.327 -0.7529 -1.1909  1.7280
   59CHL1  H21C 6827   2.944   5.530   9.284  1.4936  0.8129 -0.7038
   59CHL1   C22 6828   2.928   5.277   9.151 -0.3131  0.6112 -0.2614
   59CHL1  H22A 6829   2.879   5.178   9.156  0.5267  0.2386  0.5447
   59CHL1  H22B 6830   2.851   5.353   9.124  0.0052  0.4304 -1.7568
   59CHL1   C23 6831   3.031   5.260   9.032 -0.1118  0.1641 -0.0646
   59CHL1  H23A 6832   3.086   5.355   9.016 -0.2209  0.4514  1.1765
   59CHL1  H23B 6833   3.099   5.175   9.056  0.3970  1.2468  2.5070
   59CHL1   C24 6834   2.972   5.219   8.899  0.5144 -0.3871  0.2103
   59CHL1  H24A 6835   2.920   5.122   8.917  0.3530 -0.0136  1.8434
   59CHL1  H24B 6836   2.896   5.290   8.860  0.2672  0.1361  1.5978
   59CHL1   C25 6837   3.075   5.213   8.779 -0.1213  0.2555 -0.4922
   59CHL1   H25 6838   3.160   5.147   8.806 -0.3372  0.2228  0.1251
   59CHL1   C26 6839   2.998   5.147   8.663 -0.4613 -0.0878 -0.3338
   59CHL1  H26A 6840   3.066   5.134   8.576  0.7964 -0.5529  0.7007
   59CHL1  H26B 6841   2.953   5.055   8.706 -1.2624 -0.4177 -1.8436
   59CHL1  H26C 6842   2.918   5.216   8.628 -1.7838 -0.4003  2.0215
   59CHL1   C27 6843   3.150   5.339   8.740 -0.7856 -0.4660  0.0235
   59CHL1  H27A 6844   3.243   5.326   8.680  0.5408  2.3291  1.3855
   59CHL1  H27B 6845   3.089   5.396   8.666 -0.9446 -0.1375  0.4091
   59CHL1  H27C 6846   3.187   5.406   8.820  0.8396  1.7208 -2.4662
   60CHL1    C3 6847   2.456   4.315  10.222  0.6198  0.2184  0.4065
   60CHL1    H3 6848   2.426   4.405  10.165 -1.3506  0.5642  1.9236
   60CHL1    O3 6849   2.482   4.363  10.353 -0.4134 -0.4629 -0.2163
   60CHL1   H3' 6850   2.464   4.284  10.403 -0.8503  0.0247  0.3918
   60CHL1    C4 6851   2.333   4.220  10.229 -0.7610  0.1256 -0.6227
   60CHL1   H4A 6852   2.373   4.145  10.301 -0.6411 -1.9802 -2.8284
   60CHL1   H4B 6853   2.249   4.278  10.274 -1.3027  0.7515 -2.3859
   60CHL1    C5 6854   2.297   4.156  10.096  0.4048 -0.0208  0.8799
   60CHL1    C6 6855   2.178   4.169  10.043  0.4807 -0.3858  0.2879
   60CHL1    H6 6856   2.110   4.230  10.104  2.7423  2.0606  0.4411
   60CHL1    C7 6857   2.138   4.115   9.909 -0.6385  0.3336 -0.6026
   60CHL1   H7A 6858   2.045   4.055   9.925  0.1347 -0.6630  0.2546
   60CHL1   H7B 6859   2.110   4.192   9.834  0.6303  1.8781  0.5096
   60CHL1    C8 6860   2.247   4.021   9.855  0.6659 -0.7316 -0.1718
   60CHL1    H8 6861   2.245   3.932   9.922  1.2496  0.6729  1.7623
   60CHL1   C14 6862   2.230   3.992   9.710  0.1887  0.4015 -0.8724
   60CHL1   H14 6863   2.262   4.081   9.651  1.9259 -0.5029 -1.3409
   60CHL1   C15 6864   2.093   3.976   9.647 -0.1467 -0.0884 -0.5035
   60CHL1  H15A 6865   2.012   3.916   9.694 -1.4076  0.0473 -2.4416
   60CHL1  H15B 6866   2.054   4.078   9.625  0.1616  0.0831 -0.2550
   60CHL1   C16 6867   2.119   3.908   9.514 -0.0084 -0.7116 -0.3013
   60CHL1  H16A 6868   2.072   3.808   9.516  2.7159 -2.1134 -2.7548
   60CHL1  H16B 6869   2.084   3.965   9.426  1.5348 -1.8336 -1.6584
   60CHL1   C17 6870   2.272   3.876   9.511  0.2964  0.0058  0.5333
   60CHL1   H17 6871   2.319   3.964   9.463 -2.4516  1.7785  1.0009
   60CHL1   C13 6872   2.318   3.877   9.656  0.5306  0.3834  0.6119
   60CHL1   C18 6873   2.284   3.741   9.724  1.0461  0.4702  0.8697
   60CHL1  H18A 6874   2.354   3.663   9.689 -1.1050 -1.2565  0.2980
   60CHL1  H18B 6875   2.279   3.748   9.835 -0.9288  1.4390  0.7420
   60CHL1  H18C 6876   2.187   3.711   9.679  0.9558  2.1071 -0.0881
   60CHL1   C12 6877   2.461   3.927   9.668 -0.1837  0.3331 -0.4976
   60CHL1  H12A 6878   2.541   3.861   9.628  0.5529 -0.1927  1.7975
   60CHL1  H12B 6879   2.461   4.021   9.608 -0.5613  0.7978  0.2234
   60CHL1   C11 6880   2.491   3.964   9.815  0.2292  0.0832 -0.8806
   60CHL1  H11A 6881   2.487   3.871   9.876  1.6749 -0.0319 -0.9395
   60CHL1  H11B 6882   2.596   3.998   9.827 -0.7754  2.6654  0.8477
   60CHL1    C9 6883   2.393   4.064   9.875  0.3944  0.8512  0.4469
   60CHL1    H9 6884   2.405   4.154   9.811 -0.3784  0.1021 -0.7864
   60CHL1   C10 6885   2.415   4.092  10.023  0.1146  0.0437  0.2778
   60CHL1   C19 6886   2.447   3.959  10.100 -0.0981  0.8632  0.0241
   60CHL1  H19A 6887   2.535   3.907  10.057 -1.3496 -0.1536 -1.3629
   60CHL1  H19B 6888   2.459   3.987  10.207 -0.0708  2.9608 -0.4960
   60CHL1  H19C 6889   2.374   3.878  10.083  0.0184  1.3353 -3.0586
   60CHL1    C1 6890   2.542   4.185  10.027  0.5283  0.7779 -0.6890
   60CHL1   H1A 6891   2.627   4.125   9.989 -1.1220 -1.5687 -0.8134
   60CHL1   H1B 6892   2.530   4.269   9.956 -2.1873  0.5213 -0.6038
   60CHL1    C2 6893   2.575   4.234  10.170  0.2050  0.1736 -0.1684
   60CHL1   H2A 6894   2.664   4.300  10.163 -0.4730  1.1375  0.2801
   60CHL1   H2B 6895   2.597   4.149  10.238 -2.3542 -0.7210 -0.3920
   60CHL1   C20 6896   2.315   3.760   9.421  0.2592  0.0880 -0.1770
   60CHL1   H20 6897   2.256   3.673   9.458  0.9867 -0.2180  0.2838
   60CHL1   C21 6898   2.462   3.715   9.427 -0.9263 -0.1299  0.0538
   60CHL1  H21A 6899   2.483   3.672   9.527  0.0264  3.5979  1.5588
   60CHL1  H21B 6900   2.541   3.789   9.400  0.3555 -1.3321  0.4133
   60CHL1  H21C 6901   2.488   3.629   9.362  0.5402 -0.5352  1.1326
   60CHL1   C22 6902   2.280   3.780   9.268  1.0106  0.4392 -0.0612
   60CHL1  H22A 6903   2.319   3.692   9.213 -0.4440 -1.1224  1.3160
   60CHL1  H22B 6904   2.170   3.764   9.265  1.0887 -0.0746 -0.1269
   60CHL1   C23 6905   2.307   3.919   9.199  0.7589 -0.4586  0.6642
   60CHL1  H23A 6906   2.252   3.995   9.259  1.8621 -0.4899  1.7491
   60CHL1  H23B 6907   2.414   3.950   9.208  0.8369  0.4423 -2.9637
   60CHL1   C24 6908   2.259   3.921   9.052  0.3613  0.2400 -0.0103
   60CHL1  H24A 6909   2.285   3.821   9.011 -0.7786 -0.0367 -0.0482
   60CHL1  H24B 6910   2.149   3.930   9.048  0.2823 -1.2709 -1.6604
   60CHL1   C25 6911   2.322   4.025   8.959  0.0947 -0.6973  0.1018
   60CHL1   H25 6912   2.277   4.000   8.860  0.2427  0.3540 -0.2395
   60CHL1   C26 6913   2.285   4.166   9.002  0.6072  0.5782  0.5157
   60CHL1  H26A 6914   2.316   4.247   8.932  1.1918  1.2830  1.5651
   60CHL1  H26B 6915   2.175   4.174   9.009  0.2917 -0.1415 -3.0044
   60CHL1  H26C 6916   2.338   4.186   9.098  0.1122 -0.5782  1.0242
   60CHL1   C27 6917   2.481   4.009   8.950  0.2177 -0.0785 -0.8068
   60CHL1  H27A 6918   2.504   3.902   8.935  2.4956  0.4085 -0.9230
   60CHL1  H27B 6919   2.512   4.070   8.862 -0.9978  1.4421 -0.2102
   60CHL1  H27C 6920   2.537   4.034   9.042 -1.3683 -0.9495  0.4117
   61CHL1    C3 6921   6.343   4.015  10.186  1.0282 -0.4654  0.0446
   61CHL1    H3 6922   6.288   4.111  10.196 -0.8689 -1.2305 -2.6545
   61CHL1    O3 6923   6.382   3.965  10.314 -0.2297  0.0564 -0.1997
   61CHL1   H3' 6924   6.395   4.044  10.366 -0.1257 -0.0583 -0.0480
   61CHL1    C4 6925   6.259   3.910  10.108  0.3220  0.1181  0.5037
   61CHL1   H4A 6926   6.305   3.810  10.120 -1.9429 -0.9646  0.5644
   61CHL1   H4B 6927   6.168   3.901  10.171  0.3811 -4.3613  0.1441
   61CHL1    C5 6928   6.228   3.933   9.962 -0.4988  0.6355 -0.3714
   61CHL1    C6 6929   6.100   3.939   9.917 -0.5114  0.2774  0.0699
   61CHL1    H6 6930   6.016   3.914   9.984  0.4108  1.4305  1.6837
   61CHL1    C7 6931   6.064   3.967   9.772  0.1975  0.4963 -0.3374
   61CHL1   H7A 6932   5.985   3.894   9.745  0.8873  0.2463 -1.7132
   61CHL1   H7B 6933   6.042   4.076   9.764  0.0775  0.3709 -1.9925
   61CHL1    C8 6934   6.187   3.946   9.674  0.6566 -0.7847 -0.1642
   61CHL1    H8 6935   6.205   3.837   9.674  0.1735 -0.8723 -1.2015
   61CHL1   C14 6936   6.155   4.006   9.537  0.2326  0.9833  0.4007
   61CHL1   H14 6937   6.159   4.115   9.556 -1.7678  1.2679 -0.7621
   61CHL1   C15 6938   6.026   3.966   9.476 -0.0074 -0.0870 -0.5613
   61CHL1  H15A 6939   6.003   3.858   9.492  1.4127 -0.1653  1.0705
   61CHL1  H15B 6940   5.935   4.019   9.513 -0.2455 -2.6129  2.7207
   61CHL1   C16 6941   6.045   3.991   9.329  1.0542  0.0429  0.1652
   61CHL1  H16A 6942   6.032   3.897   9.271 -1.5105  0.1092  0.6055
   61CHL1  H16B 6943   5.972   4.063   9.286  0.2394 -0.5076  0.6244
   61CHL1   C17 6944   6.192   4.044   9.313  0.1824 -0.4093  0.4548
   61CHL1   H17 6945   6.173   4.153   9.315  0.4989 -0.3601  1.1921
   61CHL1   C13 6946   6.270   3.984   9.433  1.0620  0.6922  0.5096
   61CHL1   C18 6947   6.297   3.831   9.412 -0.4330  0.5087  1.0611
   61CHL1  H18A 6948   6.369   3.831   9.327  0.0370 -0.7669  1.4424
   61CHL1  H18B 6949   6.340   3.783   9.502  1.2551 -0.6734 -0.3454
   61CHL1  H18C 6950   6.209   3.769   9.386  0.9266 -0.2789 -1.9048
   61CHL1   C12 6951   6.397   4.050   9.484  0.5570  0.3663 -0.0269
   61CHL1  H12A 6952   6.489   4.033   9.424  0.7865 -0.1042  0.4481
   61CHL1  H12B 6953   6.380   4.160   9.479 -0.5973  0.1700 -0.3608
   61CHL1   C11 6954   6.431   4.006   9.633 -0.2185 -0.0234 -0.3599
   61CHL1  H11A 6955   6.493   3.914   9.629 -1.9234 -1.1201 -1.6096
   61CHL1  H11B 6956   6.502   4.087   9.664  1.5778 -1.7741  0.2122
   61CHL1    C9 6957   6.312   4.012   9.737  0.0987  0.7893  0.1474
   61CHL1    H9 6958   6.286   4.119   9.748 -1.7566  0.3765  0.0602
   61CHL1   C10 6959   6.356   3.962   9.878 -0.5133 -0.4061 -0.3944
   61CHL1   C19 6960   6.437   3.835   9.862  0.5113  0.3368 -0.4159
   61CHL1  H19A 6961   6.458   3.782   9.958 -0.0282 -0.4517 -0.7255
   61CHL1  H19B 6962   6.382   3.768   9.793  0.9825 -0.0373 -0.4359
   61CHL1  H19C 6963   6.540   3.844   9.821  0.1780  2.0279 -0.9205
   61CHL1    C1 6964   6.443   4.075   9.948  0.0468  0.7484  0.5038
   61CHL1   H1A 6965   6.543   4.088   9.902  0.5157 -1.4326  0.8404
   61CHL1   H1B 6966   6.382   4.167   9.931 -0.8004  0.1614  0.3213
   61CHL1    C2 6967   6.466   4.044  10.099 -0.1539  0.3088 -0.7139
   61CHL1   H2A 6968   6.526   4.124  10.147  0.2232 -0.2066 -0.3209
   61CHL1   H2B 6969   6.521   3.948  10.110 -0.1037  0.3225 -0.8432
   61CHL1   C20 6970   6.243   4.007   9.168  0.3976 -0.2583 -0.8048
   61CHL1   H20 6971   6.263   3.898   9.162  0.4588 -0.1695 -2.2136
   61CHL1   C21 6972   6.378   4.083   9.145  0.5533 -0.5734 -0.0119
   61CHL1  H21A 6973   6.423   4.060   9.046 -2.0394 -0.9618 -1.1410
   61CHL1  H21B 6974   6.456   4.047   9.215  0.8737 -0.3362 -0.2418
   61CHL1  H21C 6975   6.375   4.191   9.173  0.3781 -0.1270 -1.6853
   61CHL1   C22 6976   6.135   4.051   9.061  0.2260  0.0660 -0.2475
   61CHL1  H22A 6977   6.042   3.991   9.071 -0.5212  1.0447 -1.2016
   61CHL1  H22B 6978   6.103   4.153   9.092 -1.5024 -0.4119 -0.3869
   61CHL1   C23 6979   6.185   4.051   8.917 -0.4504  0.4449 -1.1106
   61CHL1  H23A 6980   6.100   4.099   8.863 -0.6038 -1.0187 -2.1848
   61CHL1  H23B 6981   6.272   4.118   8.902  0.2293  0.3087  1.9000
   61CHL1   C24 6982   6.206   3.903   8.875  0.9512 -0.3468  0.1810
   61CHL1  H24A 6983   6.301   3.869   8.921  0.0199 -2.4689  0.5932
   61CHL1  H24B 6984   6.120   3.841   8.907 -0.5661  0.8785 -1.4515
   61CHL1   C25 6985   6.198   3.883   8.723 -0.2068 -0.1882  0.1808
   61CHL1   H25 6986   6.182   3.778   8.691 -0.4336 -0.1652  0.2118
   61CHL1   C26 6987   6.076   3.957   8.659 -0.4592 -0.6120  0.5890
   61CHL1  H26A 6988   6.059   3.911   8.559  1.0495 -1.9257  0.9052
   61CHL1  H26B 6989   5.990   3.935   8.726 -1.7896  2.2730 -0.0978
   61CHL1  H26C 6990   6.089   4.066   8.647  0.9917 -0.8546 -0.1642
   61CHL1   C27 6991   6.332   3.938   8.660 -0.7521  0.0144  0.7716
   61CHL1  H27A 6992   6.365   4.030   8.714 -1.3572  0.0650  1.0565
   61CHL1  H27B 6993   6.419   3.869   8.660 -0.5638  0.2522  0.3004
   61CHL1  H27C 6994   6.308   3.955   8.553 -0.1634 -1.9649  0.3030
   62CHL1    C3 6995   1.157   0.766  10.082  0.0028 -0.2649  0.2478
   62CHL1    H3 6996   1.262   0.761  10.048 -0.6066 -2.0298 -1.4752
   62CHL1    O3 6997   1.143   0.840  10.206  0.5549 -0.0229  0.2756
   62CHL1   H3' 6998   1.069   0.803  10.254  1.2276 -0.1739  1.2357
   62CHL1    C4 6999   1.061   0.824   9.974 -1.3788  0.4299  0.0821
   62CHL1   H4A 7000   0.957   0.817  10.011 -1.1740 -1.0065  0.4247
   62CHL1   H4B 7001   1.089   0.931   9.963  1.1733  0.0171  1.9768
   62CHL1    C5 7002   1.063   0.748   9.851 -0.6435  0.2966  0.3637
   62CHL1    C6 7003   1.100   0.807   9.737  0.0588 -0.2351  0.2272
   62CHL1    H6 7004   1.118   0.915   9.735 -1.7819  0.0930  0.8310
   62CHL1    C7 7005   1.101   0.750   9.596  0.0711  0.3139  0.3278
   62CHL1   H7A 7006   1.052   0.819   9.523  1.3512 -0.6663 -1.5126
   62CHL1   H7B 7007   1.204   0.729   9.560  0.7855  3.6301  0.2371
   62CHL1    C8 7008   1.032   0.614   9.600  0.1076  0.1997 -0.3859
   62CHL1    H8 7009   0.921   0.629   9.600  0.2227  1.5236 -4.3707
   62CHL1   C14 7010   1.067   0.542   9.471  0.1563  0.6063  0.6959
   62CHL1   H14 7011   1.175   0.516   9.464  0.2653  1.4294 -0.8720
   62CHL1   C15 7012   1.055   0.628   9.343 -0.1543  0.2808  0.0707
   62CHL1  H15A 7013   0.964   0.691   9.354 -0.6893 -0.4513 -0.0865
   62CHL1  H15B 7014   1.139   0.699   9.328 -0.5367  1.0639  1.5436
   62CHL1   C16 7015   1.035   0.525   9.233  0.6837  0.4371  0.4094
   62CHL1  H16A 7016   0.946   0.548   9.170 -1.4851 -2.1296  2.4507
   62CHL1  H16B 7017   1.123   0.515   9.165  0.6882 -0.5550  0.5556
   62CHL1   C17 7018   1.039   0.384   9.305 -0.3364  0.1909  0.1898
   62CHL1   H17 7019   1.148   0.366   9.308 -0.4185 -0.2653  0.5186
   62CHL1   C13 7020   1.001   0.411   9.448 -1.0792 -0.6789  0.3399
   62CHL1   C18 7021   0.844   0.414   9.438  0.1896  0.5146 -0.3886
   62CHL1  H18A 7022   0.808   0.313   9.408 -2.4358  1.2693  0.0193
   62CHL1  H18B 7023   0.804   0.429   9.541  0.6708 -0.5582 -0.0431
   62CHL1  H18C 7024   0.795   0.483   9.366  0.4378 -0.4196 -1.4513
   62CHL1   C12 7025   1.046   0.314   9.554 -0.6775 -0.1509 -0.3787
   62CHL1  H12A 7026   0.990   0.219   9.545 -0.6411 -0.4657  2.5349
   62CHL1  H12B 7027   1.154   0.289   9.543 -0.2889  0.5615  1.5812
   62CHL1   C11 7028   1.022   0.372   9.698 -0.4963  0.6434  0.0464
   62CHL1  H11A 7029   0.912   0.364   9.711 -0.4907  0.4012 -0.0476
   62CHL1  H11B 7030   1.067   0.305   9.775  0.9816  0.8906 -0.5803
   62CHL1    C9 7031   1.067   0.527   9.720 -0.6754 -0.5953 -0.8589
   62CHL1    H9 7032   1.175   0.511   9.701 -0.5938 -1.9201  0.6481
   62CHL1   C10 7033   1.035   0.597   9.861 -1.0961 -1.1340 -0.1711
   62CHL1   C19 7034   0.889   0.581   9.895 -0.6704 -0.9345 -0.1921
   62CHL1  H19A 7035   0.829   0.634   9.818 -0.4709  0.1078  0.3579
   62CHL1  H19B 7036   0.862   0.474   9.905 -0.0791 -1.1729 -1.0470
   62CHL1  H19C 7037   0.867   0.637   9.988  3.1591  0.9200 -0.3335
   62CHL1    C1 7038   1.115   0.530   9.977  0.1773  0.0965  0.2775
   62CHL1   H1A 7039   1.066   0.437  10.012  0.9576 -0.3022  0.3235
   62CHL1   H1B 7040   1.220   0.516   9.943  0.1708 -0.4584  0.4779
   62CHL1    C2 7041   1.120   0.614  10.108 -0.5123 -0.0287 -0.0479
   62CHL1   H2A 7042   1.201   0.569  10.169 -0.6319  0.1243  0.2289
   62CHL1   H2B 7043   1.025   0.611  10.165 -0.3665 -2.6982  0.0800
   62CHL1   C20 7044   1.000   0.257   9.234  0.6208  0.4222  0.0531
   62CHL1   H20 7045   0.964   0.189   9.314  0.3057 -0.8937 -1.1905
   62CHL1   C21 7046   1.132   0.192   9.174  0.4768  0.3792  0.1024
   62CHL1  H21A 7047   1.183   0.167   9.270  0.1891  3.0411  0.9985
   62CHL1  H21B 7048   1.189   0.265   9.112  2.4776 -0.9631  0.2994
   62CHL1  H21C 7049   1.096   0.100   9.124  1.2459 -0.6970  1.4810
   62CHL1   C22 7050   0.885   0.271   9.134  0.4019  0.4648 -0.0193
   62CHL1  H22A 7051   0.820   0.361   9.145 -0.1350  0.2532 -1.3523
   62CHL1  H22B 7052   0.927   0.271   9.031 -2.0932  1.1607 -1.0943
   62CHL1   C23 7053   0.772   0.155   9.141 -0.3887  0.3990  0.5587
   62CHL1  H23A 7054   0.815   0.054   9.133 -2.2850 -0.3308 -0.8912
   62CHL1  H23B 7055   0.727   0.160   9.242  3.2533  3.2387  2.1427
   62CHL1   C24 7056   0.655   0.176   9.039  0.4812 -0.5367  0.8094
   62CHL1  H24A 7057   0.568   0.116   9.075 -0.5885 -0.4789 -1.6026
   62CHL1  H24B 7058   0.621   0.282   9.040  4.2741  0.7675  0.7624
   62CHL1   C25 7059   0.679   0.146   8.892 -0.1795 -0.5606  0.2950
   62CHL1   H25 7060   0.772   0.198   8.863 -1.0345  0.1351 -1.2550
   62CHL1   C26 7061   0.698  -0.009   8.873  0.1377  0.4528  0.1537
   62CHL1  H26A 7062   0.599  -0.050   8.903  0.9538 -1.6659  0.0230
   62CHL1  H26B 7063   0.710  -0.033   8.765 -2.0941  1.8742 -0.4435
   62CHL1  H26C 7064   0.785  -0.042   8.932  0.0623 -1.3529 -0.7261
   62CHL1   C27 7065   0.563   0.192   8.804  0.5390 -0.1955 -0.3601
   62CHL1  H27A 7066   0.597   0.185   8.698 -0.4900 -0.2989 -0.6831
   62CHL1  H27B 7067   0.467   0.137   8.818 -0.6702  1.5957 -1.5156
   62CHL1  H27C 7068   0.547   0.298   8.831  0.7259 -0.3205  0.2464
   63CHL1    C3 7069   2.693   2.428  10.349  0.4611  0.4682 -0.8173
   63CHL1    H3 7070   2.780   2.496  10.333  0.7717 -0.2511 -2.2719
   63CHL1    O3 7071   2.654   2.409  10.482  0.2424  0.1429 -0.0109
   63CHL1   H3' 7072   2.584   2.343  10.485  0.9218 -0.5780  0.2041
   63CHL1    C4 7073   2.575   2.498  10.289  0.0711  0.0453  0.1560
   63CHL1   H4A 7074   2.486   2.432  10.297 -1.5948  2.4599  2.4896
   63CHL1   H4B 7075   2.544   2.585  10.350 -4.4952 -2.1251  1.1563
   63CHL1    C5 7076   2.604   2.544  10.145 -0.4393  0.8339  0.8343
   63CHL1    C6 7077   2.602   2.670  10.107  0.0002 -0.6216 -0.3720
   63CHL1    H6 7078   2.584   2.756  10.173  0.3240 -0.0992 -0.9556
   63CHL1    C7 7079   2.630   2.702   9.964 -0.6611  0.0346  0.0025
   63CHL1   H7A 7080   2.558   2.782   9.938 -1.0352  0.4877  2.3378
   63CHL1   H7B 7081   2.729   2.753   9.966 -0.3458 -0.5407 -0.7516
   63CHL1    C8 7082   2.623   2.590   9.861  1.0569 -0.0202  0.3417
   63CHL1    H8 7083   2.515   2.572   9.843  0.8744  1.0607  0.3297
   63CHL1   C14 7084   2.690   2.633   9.728 -0.7173 -0.1390  0.4562
   63CHL1   H14 7085   2.799   2.639   9.749 -0.2788 -1.0644 -1.4403
   63CHL1   C15 7086   2.645   2.769   9.667 -0.0811  0.4955  0.4220
   63CHL1  H15A 7087   2.534   2.771   9.669 -0.3220 -3.0333 -3.4241
   63CHL1  H15B 7088   2.692   2.858   9.714 -0.0882  0.5316  0.3592
   63CHL1   C16 7089   2.693   2.754   9.526 -0.2185  0.1583 -0.1080
   63CHL1  H16A 7090   2.603   2.766   9.461 -1.2035  0.0996  1.2181
   63CHL1  H16B 7091   2.770   2.830   9.499  2.0549 -2.3419 -0.7723
   63CHL1   C17 7092   2.749   2.613   9.505  0.1006  0.2871 -0.2360
   63CHL1   H17 7093   2.860   2.618   9.518  0.0911 -1.6763  0.8612
   63CHL1   C13 7094   2.687   2.525   9.617 -0.2331 -0.4237 -0.6983
   63CHL1   C18 7095   2.547   2.487   9.569 -0.1692 -0.2942  0.1228
   63CHL1  H18A 7096   2.486   2.451   9.654  0.1427 -0.9875  0.0623
   63CHL1  H18B 7097   2.504   2.570   9.509 -1.4697 -0.1011  1.3280
   63CHL1  H18C 7098   2.551   2.396   9.506  2.7165 -0.8946  1.0896
   63CHL1   C12 7099   2.773   2.410   9.668  0.3568  0.5077  0.0641
   63CHL1  H12A 7100   2.780   2.330   9.591 -0.0783  2.0985 -1.6916
   63CHL1  H12B 7101   2.873   2.454   9.690  0.4135 -0.9025  2.7550
   63CHL1   C11 7102   2.717   2.360   9.806 -0.6487  0.1048  0.3842
   63CHL1  H11A 7103   2.619   2.313   9.785 -0.7098  0.3816  0.0415
   63CHL1  H11B 7104   2.776   2.273   9.843 -0.2333 -0.6202 -1.8975
   63CHL1    C9 7105   2.690   2.463   9.916 -0.8053 -0.3537  0.7640
   63CHL1    H9 7106   2.797   2.488   9.933 -0.3137 -1.3797 -0.7146
   63CHL1   C10 7107   2.634   2.423  10.058  0.3527 -0.4118  0.0800
   63CHL1   C19 7108   2.502   2.347  10.033  0.7477 -0.5498  0.5927
   63CHL1  H19A 7109   2.430   2.426   9.999  0.2360 -1.8587 -1.4929
   63CHL1  H19B 7110   2.503   2.273   9.950  0.1353  0.0407  0.0502
   63CHL1  H19C 7111   2.476   2.308  10.133  1.4826 -0.1392  0.9459
   63CHL1    C1 7112   2.738   2.330  10.124  0.3598 -0.7485 -0.3235
   63CHL1   H1A 7113   2.750   2.238  10.062  2.8814 -0.9232  0.4021
   63CHL1   H1B 7114   2.840   2.371  10.113 -0.0018  0.0440 -0.7551
   63CHL1    C2 7115   2.713   2.295  10.270  0.2661 -0.2166  0.5411
   63CHL1   H2A 7116   2.784   2.222  10.313  2.7912  0.6256 -2.0572
   63CHL1   H2B 7117   2.618   2.238  10.279 -0.2255  0.8782  2.6596
   63CHL1   C20 7118   2.743   2.561   9.359  0.7072  0.1279 -0.6813
   63CHL1   H20 7119   2.634   2.559   9.337  0.4295 -1.6490  0.7731
   63CHL1   C21 7120   2.797   2.424   9.336 -0.7859 -0.4203  0.1100
   63CHL1  H21A 7121   2.904   2.422   9.364 -0.6108  0.7476 -0.4480
   63CHL1  H21B 7122   2.794   2.395   9.229  2.6641 -2.6575  0.5349
   63CHL1  H21C 7123   2.740   2.343   9.387 -2.3599 -0.4827 -1.6823
   63CHL1   C22 7124   2.809   2.663   9.262  0.0313 -0.8750  0.3501
   63CHL1  H22A 7125   2.832   2.759   9.313  0.7730 -1.8067  1.8330
   63CHL1  H22B 7126   2.912   2.626   9.239  0.3923  0.3484 -0.0145
   63CHL1   C23 7127   2.748   2.681   9.118 -0.3666 -0.2823 -0.4657
   63CHL1  H23A 7128   2.756   2.586   9.060 -0.6467 -0.4880 -0.1705
   63CHL1  H23B 7129   2.642   2.711   9.127 -1.2233 -2.2619 -3.4101
   63CHL1   C24 7130   2.823   2.789   9.037  0.2583 -0.4581  0.3345
   63CHL1  H24A 7131   2.836   2.882   9.097 -1.3777 -0.8604  1.3417
   63CHL1  H24B 7132   2.923   2.747   9.014  0.8608  2.0511 -1.9211
   63CHL1   C25 7133   2.759   2.822   8.904  0.2276 -0.4520 -0.6610
   63CHL1   H25 7134   2.736   2.727   8.850 -5.1304  1.2825 -1.8129
   63CHL1   C26 7135   2.630   2.902   8.914  0.2335 -0.3949  0.0309
   63CHL1  H26A 7136   2.555   2.844   8.971  0.0552  0.2406  0.4545
   63CHL1  H26B 7137   2.657   2.992   8.974  0.0517 -1.5097  1.8362
   63CHL1  H26C 7138   2.587   2.916   8.813  2.6973 -0.6476 -1.0983
   63CHL1   C27 7139   2.862   2.894   8.814  0.2332 -0.2132 -0.2203
   63CHL1  H27A 7140   2.822   2.901   8.711 -0.5640 -1.5903 -0.0214
   63CHL1  H27B 7141   2.875   2.997   8.854  2.7916 -1.2098  1.7136
   63CHL1  H27C 7142   2.956   2.836   8.823  0.3267  0.2120  1.7418
   64CHL1    C3 7143   1.887   1.669  10.079 -0.3066  1.2473  0.2344
   64CHL1    H3 7144   1.923   1.567  10.056 -1.0681  0.8094  0.9049
   64CHL1    O3 7145   1.881   1.681  10.219  0.0794 -0.6261  0.0208
   64CHL1   H3' 7146   1.871   1.776  10.231 -1.6399 -0.8740  0.7481
   64CHL1    C4 7147   1.983   1.779  10.039 -0.4998 -0.7648 -0.2363
   64CHL1   H4A 7148   1.932   1.876  10.061  0.6095  0.2951 -2.2638
   64CHL1   H4B 7149   2.078   1.766  10.095  0.9485 -1.3165 -2.7549
   64CHL1    C5 7150   2.000   1.774   9.889 -0.4690  0.2724 -0.2601
   64CHL1    C6 7151   2.129   1.754   9.837  0.1358  0.1785 -0.3843
   64CHL1    H6 7152   2.218   1.741   9.901 -0.6124 -1.5327  0.3193
   64CHL1    C7 7153   2.156   1.767   9.686  0.2035 -0.0859  0.3872
   64CHL1   H7A 7154   2.238   1.840   9.667  1.8371 -2.1324 -0.7087
   64CHL1   H7B 7155   2.199   1.673   9.645  2.3890 -0.4545  3.3615
   64CHL1    C8 7156   2.030   1.824   9.605  0.9967  0.3682  0.4778
   64CHL1    H8 7157   2.015   1.934   9.608  0.8669  0.4011 -1.0166
   64CHL1   C14 7158   2.045   1.775   9.459 -0.5431 -0.2731  0.2133
   64CHL1   H14 7159   2.061   1.665   9.455 -0.0804 -0.1268 -2.2428
   64CHL1   C15 7160   2.174   1.819   9.396 -0.6245 -0.5882 -0.9985
   64CHL1  H15A 7161   2.195   1.928   9.402  1.7227 -1.1174  1.6488
   64CHL1  H15B 7162   2.259   1.769   9.448 -0.2058  1.6400  0.5396
   64CHL1   C16 7163   2.150   1.783   9.251  0.2356  0.1805  0.3440
   64CHL1  H16A 7164   2.178   1.877   9.198 -0.2191 -0.8258 -1.7365
   64CHL1  H16B 7165   2.210   1.695   9.218 -0.1995  0.7712 -2.1634
   64CHL1   C17 7166   1.999   1.752   9.237 -0.4595  0.0581  0.0805
   64CHL1   H17 7167   1.985   1.642   9.242 -1.5562  0.1290 -1.2108
   64CHL1   C13 7168   1.933   1.804   9.363 -0.3321 -0.5615  0.3246
   64CHL1   C18 7169   1.912   1.961   9.343  0.0080  0.2759 -0.7130
   64CHL1  H18A 7170   1.830   1.971   9.270 -0.5761 -0.0144 -0.1051
   64CHL1  H18B 7171   1.897   2.019   9.437 -1.3487  0.7787 -1.2257
   64CHL1  H18C 7172   2.004   2.001   9.295 -0.3427 -0.2276 -1.8182
   64CHL1   C12 7173   1.800   1.746   9.411 -0.0563 -0.0127  0.9508
   64CHL1  H12A 7174   1.708   1.780   9.359 -0.0765 -1.3617  0.0802
   64CHL1  H12B 7175   1.808   1.635   9.409  0.5841  0.0649 -1.7536
   64CHL1   C11 7176   1.780   1.794   9.559 -0.3118 -0.3350 -0.3315
   64CHL1  H11A 7177   1.757   1.903   9.550 -1.8582 -0.6643 -0.5192
   64CHL1  H11B 7178   1.686   1.747   9.595  0.5312 -1.3578  0.5850
   64CHL1    C9 7179   1.900   1.760   9.658 -0.2400 -1.0350  0.0956
   64CHL1    H9 7180   1.923   1.652   9.665 -0.5650 -1.0967  0.2593
   64CHL1   C10 7181   1.876   1.796   9.806  0.1053 -0.6575  0.4576
   64CHL1   C19 7182   1.817   1.935   9.806  0.2234  0.2667 -0.4525
   64CHL1  H19A 7183   1.717   1.929   9.757 -0.8190  0.5738  1.6155
   64CHL1  H19B 7184   1.797   1.976   9.907  1.0899 -1.0206  0.2433
   64CHL1  H19C 7185   1.880   2.012   9.756  0.4271  0.3646 -0.0364
   64CHL1    C1 7186   1.766   1.685   9.857 -0.8740 -0.0663 -0.6078
   64CHL1   H1A 7187   1.673   1.697   9.797 -0.4491  0.4659 -1.1647
   64CHL1   H1B 7188   1.797   1.581   9.835  1.1234  0.2304  0.6627
   64CHL1    C2 7189   1.754   1.691  10.009 -0.0228 -0.2055 -0.0814
   64CHL1   H2A 7190   1.689   1.605  10.036 -0.5409  0.1020 -0.3237
   64CHL1   H2B 7191   1.713   1.787  10.048 -0.4130 -0.5784  0.4437
   64CHL1   C20 7192   1.947   1.787   9.104 -0.1649 -0.2404  0.5013
   64CHL1   H20 7193   1.956   1.897   9.090  1.6298 -0.2528  1.4664
   64CHL1   C21 7194   1.799   1.745   9.089  0.2740  0.1479  0.3966
   64CHL1  H21A 7195   1.799   1.634   9.079  0.6263  0.3750 -2.5153
   64CHL1  H21B 7196   1.761   1.794   8.997  2.1982  1.5123  0.2998
   64CHL1  H21C 7197   1.735   1.789   9.168  1.5501  0.3148  1.3582
   64CHL1   C22 7198   2.024   1.718   8.988  0.1850  0.6203 -0.3424
   64CHL1  H22A 7199   2.128   1.757   8.991 -0.2892  1.8502  0.2600
   64CHL1  H22B 7200   2.024   1.614   9.029  2.0616  0.7868  0.1298
   64CHL1   C23 7201   1.977   1.730   8.844 -0.1346  0.0854 -0.2447
   64CHL1  H23A 7202   2.049   1.674   8.780  0.6218  0.2604  0.4589
   64CHL1  H23B 7203   1.871   1.695   8.836 -0.3667  0.5624  0.7189
   64CHL1   C24 7204   1.980   1.874   8.786  0.1001 -0.0028 -0.4723
   64CHL1  H24A 7205   1.903   1.937   8.836  1.4551 -0.3848  2.2263
   64CHL1  H24B 7206   2.081   1.918   8.804  0.0178  1.2689 -2.9004
   64CHL1   C25 7207   1.949   1.883   8.634 -0.4100 -0.4550  0.1576
   64CHL1   H25 7208   2.038   1.841   8.584  0.4159  2.7854 -1.2042
   64CHL1   C26 7209   1.823   1.804   8.590 -0.9291 -0.4340  0.5610
   64CHL1  H26A 7210   1.782   1.864   8.506  0.9585 -0.7712 -0.6424
   64CHL1  H26B 7211   1.846   1.700   8.561  2.5330 -0.1957  2.1604
   64CHL1  H26C 7212   1.739   1.803   8.663 -0.8347 -0.7641  0.6626
   64CHL1   C27 7213   1.935   2.029   8.593  0.1386 -0.5658 -0.5487
   64CHL1  H27A 7214   1.944   2.031   8.482 -1.7101 -1.0074 -0.7320
   64CHL1  H27B 7215   1.834   2.067   8.622  1.5106  1.5269  1.6386
   64CHL1  H27C 7216   2.013   2.098   8.630 -0.4795  0.5702 -1.3223
   65CHL1    C3 7217   3.590   5.391  10.351  0.1073 -0.2460 -0.4176
   65CHL1    H3 7218   3.562   5.284  10.337 -0.1151 -0.3941  1.1722
   65CHL1    O3 7219   3.596   5.432  10.490 -0.2072  1.2534 -0.5304
   65CHL1   H3' 7220   3.646   5.513  10.477  2.1994 -0.3383 -1.6301
   65CHL1    C4 7221   3.721   5.414  10.282  0.5554 -0.5263  0.2274
   65CHL1   H4A 7222   3.760   5.515  10.303  2.1253 -1.6015  2.6402
   65CHL1   H4B 7223   3.795   5.348  10.332  2.8722  0.5198 -1.7301
   65CHL1    C5 7224   3.725   5.378  10.136  0.8172  0.1451  0.7222
   65CHL1    C6 7225   3.809   5.288  10.081 -0.0709 -0.5056 -0.0787
   65CHL1    H6 7226   3.873   5.236  10.154  1.1035 -0.2782 -0.9354
   65CHL1    C7 7227   3.809   5.244   9.935 -0.9021  0.4407  0.0424
   65CHL1   H7A 7228   3.913   5.228   9.899 -0.5360 -1.0266  1.7027
   65CHL1   H7B 7229   3.769   5.140   9.940  1.1438 -0.3042  1.5511
   65CHL1    C8 7230   3.728   5.339   9.844 -0.0720 -0.2031  0.5965
   65CHL1    H8 7231   3.780   5.436   9.835  0.8141 -0.7564 -0.3841
   65CHL1   C14 7232   3.713   5.280   9.703 -0.0420 -0.0342 -0.1685
   65CHL1   H14 7233   3.671   5.178   9.712 -0.7528 -0.0067 -2.6352
   65CHL1   C15 7234   3.835   5.227   9.622  0.3138  0.0702  0.1191
   65CHL1  H15A 7235   3.912   5.306   9.622  1.7228 -1.2682  0.8974
   65CHL1  H15B 7236   3.870   5.133   9.671 -0.3885 -0.3196 -0.1119
   65CHL1   C16 7237   3.774   5.207   9.477 -0.2928 -0.0759  0.5096
   65CHL1  H16A 7238   3.844   5.271   9.419 -0.2714 -0.9247 -0.4258
   65CHL1  H16B 7239   3.789   5.101   9.445 -2.5607 -1.0041  2.3356
   65CHL1   C17 7240   3.630   5.264   9.478 -0.4614 -0.6711  0.1681
   65CHL1   H17 7241   3.556   5.184   9.503 -1.3957  0.2799  0.5042
   65CHL1   C13 7242   3.624   5.359   9.602 -0.2569  0.2321 -0.6931
   65CHL1   C18 7243   3.697   5.495   9.580 -0.0654 -0.7845  0.4649
   65CHL1  H18A 7244   3.807   5.484   9.568  0.0347  1.2371 -0.7534
   65CHL1  H18B 7245   3.645   5.558   9.505  0.4608 -2.7191 -1.5745
   65CHL1  H18C 7246   3.693   5.556   9.673  1.0023  0.5871 -0.3619
   65CHL1   C12 7247   3.487   5.367   9.676  0.9386 -0.2560 -0.3456
   65CHL1  H12A 7248   3.409   5.410   9.609  2.5770  1.7603 -1.0240
   65CHL1  H12B 7249   3.449   5.265   9.699  0.4814 -0.1084 -0.4533
   65CHL1   C11 7250   3.498   5.446   9.807  0.5660  0.1599 -0.0116
   65CHL1  H11A 7251   3.526   5.550   9.779 -0.8960  0.8687  1.0730
   65CHL1  H11B 7252   3.398   5.457   9.856 -0.1631 -1.6799 -1.0700
   65CHL1    C9 7253   3.596   5.377   9.912 -0.2826 -0.1826  0.4405
   65CHL1    H9 7254   3.542   5.282   9.933  0.9312 -0.7025  1.2923
   65CHL1   C10 7255   3.614   5.442  10.054 -0.2933  0.2782 -0.0966
   65CHL1   C19 7256   3.650   5.588  10.028 -0.6349  0.5106  0.8295
   65CHL1  H19A 7257   3.559   5.650  10.011 -0.9642  0.2332  1.5927
   65CHL1  H19B 7258   3.696   5.640  10.115  1.0641  2.2734 -1.0506
   65CHL1  H19C 7259   3.710   5.600   9.935 -1.7188  0.7693  0.1526
   65CHL1    C1 7260   3.477   5.434  10.130 -0.1332  0.0149 -0.2524
   65CHL1   H1A 7261   3.399   5.490  10.074 -1.5802 -0.5896  1.1335
   65CHL1   H1B 7262   3.435   5.331  10.134 -0.4576  0.1803  0.5942
   65CHL1    C2 7263   3.479   5.476  10.284 -0.7503 -0.2765  0.0371
   65CHL1   H2A 7264   3.383   5.451  10.333 -0.6638 -2.4229 -0.8164
   65CHL1   H2B 7265   3.515   5.581  10.294  2.1453 -1.1012 -1.1415
   65CHL1   C20 7266   3.597   5.325   9.349 -0.1361  0.2853  0.1499
   65CHL1   H20 7267   3.648   5.422   9.334 -0.8506  0.3120 -2.2595
   65CHL1   C21 7268   3.445   5.339   9.332 -0.4649 -0.5206 -0.7875
   65CHL1  H21A 7269   3.400   5.238   9.332 -1.1494 -0.2627  3.0408
   65CHL1  H21B 7270   3.427   5.400   9.240  0.9088  1.6885  0.3573
   65CHL1  H21C 7271   3.404   5.396   9.418  0.5517 -0.4589 -0.3356
   65CHL1   C22 7272   3.641   5.235   9.225 -0.5274  0.4409  0.4661
   65CHL1  H22A 7273   3.744   5.195   9.238 -0.9383 -0.6443  0.4876
   65CHL1  H22B 7274   3.581   5.141   9.231  2.7014 -1.7922 -0.4694
   65CHL1   C23 7275   3.647   5.299   9.089  0.1840  0.3544  1.0074
   65CHL1  H23A 7276   3.551   5.349   9.065  0.7790  0.2809 -1.7751
   65CHL1  H23B 7277   3.719   5.382   9.108 -0.6101  1.5197 -0.9193
   65CHL1   C24 7278   3.688   5.219   8.960 -0.1620  0.0893 -0.1501
   65CHL1  H24A 7279   3.693   5.292   8.877 -2.0675 -1.1998 -1.4435
   65CHL1  H24B 7280   3.794   5.189   8.970 -0.3140  0.0466  1.4664
   65CHL1   C25 7281   3.595   5.100   8.925 -0.4668  0.3293  0.4145
   65CHL1   H25 7282   3.609   5.014   8.993 -1.7920 -0.6359 -0.5094
   65CHL1   C26 7283   3.454   5.137   8.905  0.6064  1.0539 -0.0843
   65CHL1  H26A 7284   3.401   5.044   8.876  1.7709  0.4487 -0.3217
   65CHL1  H26B 7285   3.406   5.165   9.002 -0.4847 -0.9323 -0.0186
   65CHL1  H26C 7286   3.442   5.214   8.826 -1.0559  0.0371 -0.8359
   65CHL1   C27 7287   3.654   5.046   8.792  0.6088 -0.0783  0.1233
   65CHL1  H27A 7288   3.754   5.004   8.813  0.6527 -0.5520 -0.9974
   65CHL1  H27B 7289   3.588   4.972   8.742 -0.1975  2.3459 -2.5617
   65CHL1  H27C 7290   3.656   5.130   8.719  0.3006 -0.6493 -0.5502
   66CHL1    C3 7291   1.616   3.845  10.522 -0.0090 -0.6059  1.2360
   66CHL1    H3 7292   1.717   3.803  10.508  0.1449 -0.2240  1.1749
   66CHL1    O3 7293   1.573   3.796  10.647  0.0404  0.1209 -0.6397
   66CHL1   H3' 7294   1.477   3.803  10.647 -0.0821 -1.3915  0.2239
   66CHL1    C4 7295   1.601   4.001  10.520  0.3951  0.9427 -0.2441
   66CHL1   H4A 7296   1.497   4.024  10.553  1.1498 -0.9238  3.6865
   66CHL1   H4B 7297   1.672   4.034  10.600  1.1280  0.7621 -0.8167
   66CHL1    C5 7298   1.649   4.055  10.391 -0.1083 -0.6191  0.5511
   66CHL1    C6 7299   1.744   4.149  10.385  0.2400 -0.4409  0.0294
   66CHL1    H6 7300   1.782   4.190  10.479  0.1595  1.4541 -0.7290
   66CHL1    C7 7301   1.798   4.205  10.255  0.3700 -0.0925  0.0225
   66CHL1   H7A 7302   1.801   4.315  10.268 -2.7429  0.4104 -2.8579
   66CHL1   H7B 7303   1.903   4.172  10.244  0.5858  0.3936  0.5834
   66CHL1    C8 7304   1.704   4.187  10.134  0.0170  0.3691 -0.0378
   66CHL1    H8 7305   1.615   4.254  10.136 -1.8808 -2.0700 -0.5514
   66CHL1   C14 7306   1.773   4.229  10.000 -0.5113  0.5887  0.6803
   66CHL1   H14 7307   1.856   4.156   9.984  0.6355  2.0856 -0.2395
   66CHL1   C15 7308   1.836   4.363   9.987  0.4694 -0.3768  0.1010
   66CHL1  H15A 7309   1.775   4.449  10.022 -0.4813 -0.1450 -2.0612
   66CHL1  H15B 7310   1.923   4.359  10.056  2.8418  1.6238 -2.6740
   66CHL1   C16 7311   1.862   4.371   9.835  0.2747  0.2766 -0.2103
   66CHL1  H16A 7312   1.808   4.461   9.797 -1.2718 -0.9673 -1.0007
   66CHL1  H16B 7313   1.972   4.371   9.819  0.0498 -0.6962 -1.8337
   66CHL1   C17 7314   1.797   4.249   9.767 -0.2145  0.2412 -0.1531
   66CHL1   H17 7315   1.879   4.174   9.764  0.3314  0.5077  4.7027
   66CHL1   C13 7316   1.696   4.198   9.874  0.2234  0.0255  0.6791
   66CHL1   C18 7317   1.580   4.294   9.863  0.1368  0.8239  0.1368
   66CHL1  H18A 7318   1.612   4.400   9.851  0.4967  0.9934  2.2424
   66CHL1  H18B 7319   1.517   4.265   9.777  0.1723  0.1011  0.3529
   66CHL1  H18C 7320   1.503   4.289   9.943  1.2022  0.4067  1.1582
   66CHL1   C12 7321   1.653   4.053   9.868 -0.3221 -0.2275 -0.0018
   66CHL1  H12A 7322   1.600   4.019   9.776  0.2837 -1.6876  0.1723
   66CHL1  H12B 7323   1.741   3.985   9.864  1.3509  1.8738  0.7638
   66CHL1   C11 7324   1.579   4.011  10.000  0.0904  0.0949  0.0870
   66CHL1  H11A 7325   1.479   4.059  10.012  0.1678 -0.0371  1.3022
   66CHL1  H11B 7326   1.556   3.903  10.009 -2.7861  0.6531 -0.1029
   66CHL1    C9 7327   1.660   4.037  10.130 -0.5238 -0.2643  0.0567
   66CHL1    H9 7328   1.751   3.974  10.133  0.8014  1.6506  1.1256
   66CHL1   C10 7329   1.587   3.991  10.262  0.0124  0.4854 -0.0424
   66CHL1   C19 7330   1.447   4.038  10.268 -0.1813 -0.4793 -0.0234
   66CHL1  H19A 7331   1.386   4.030  10.360 -1.2704 -3.1150 -0.9133
   66CHL1  H19B 7332   1.445   4.145  10.241 -0.9452 -0.3023  0.7347
   66CHL1  H19C 7333   1.393   3.976  10.193 -2.1641 -1.3786  2.0794
   66CHL1    C1 7334   1.581   3.838  10.266  0.2378  0.3804  0.2104
   66CHL1   H1A 7335   1.510   3.801  10.189 -1.5164  0.1630  1.9018
   66CHL1   H1B 7336   1.673   3.782  10.239  0.6046  1.0032  0.1468
   66CHL1    C2 7337   1.536   3.793  10.407 -0.5176  0.0359 -0.5781
   66CHL1   H2A 7338   1.545   3.682  10.418  0.7228  0.1129 -0.6854
   66CHL1   H2B 7339   1.428   3.814  10.415 -0.4208 -0.1862  1.6587
   66CHL1   C20 7340   1.756   4.269   9.620 -0.4397 -0.3413  0.8445
   66CHL1   H20 7341   1.678   4.347   9.632 -1.4133 -0.8751 -1.6340
   66CHL1   C21 7342   1.696   4.147   9.552  0.4069  0.0250 -0.2616
   66CHL1  H21A 7343   1.671   4.179   9.449  0.2263 -0.6842 -0.4343
   66CHL1  H21B 7344   1.600   4.124   9.603 -1.0674  1.8566 -2.1123
   66CHL1  H21C 7345   1.776   4.070   9.551  0.6689  0.3064 -1.4168
   66CHL1   C22 7346   1.874   4.326   9.533 -0.2137 -0.0566 -0.3717
   66CHL1  H22A 7347   1.920   4.417   9.578  0.8758 -0.6000 -0.3723
   66CHL1  H22B 7348   1.959   4.256   9.538 -0.5802 -0.3881  1.9526
   66CHL1   C23 7349   1.834   4.356   9.390  0.4412  0.1614 -1.0438
   66CHL1  H23A 7350   1.783   4.274   9.336  1.4011 -2.1017  1.3822
   66CHL1  H23B 7351   1.769   4.446   9.384  2.3458  1.6282 -0.2481
   66CHL1   C24 7352   1.954   4.387   9.295  0.1043 -0.3002  0.2538
   66CHL1  H24A 7353   2.009   4.477   9.331  0.5045 -0.1919 -0.6358
   66CHL1  H24B 7354   2.025   4.303   9.308  0.6261  0.2789  1.2903
   66CHL1   C25 7355   1.920   4.396   9.152  0.2081  0.5372  0.5818
   66CHL1   H25 7356   1.818   4.441   9.158 -0.0501  0.2183 -1.0892
   66CHL1   C26 7357   2.028   4.467   9.066  0.0822 -0.3598  0.3026
   66CHL1  H26A 7358   2.024   4.577   9.080 -3.6314 -0.4429  0.3979
   66CHL1  H26B 7359   2.132   4.432   9.087  0.6620  2.5043  2.6530
   66CHL1  H26C 7360   2.019   4.447   8.957  0.8852 -1.2181  0.3916
   66CHL1   C27 7361   1.896   4.259   9.096  0.0074  0.8074 -0.3528
   66CHL1  H27A 7362   1.883   4.260   8.986 -0.1429 -3.1950 -0.4616
   66CHL1  H27B 7363   1.979   4.187   9.113  0.6112  1.8937  1.4054
   66CHL1  H27C 7364   1.800   4.221   9.138  0.9492 -2.4968 -0.9945
   67CHL1    C3 7365   6.029   4.497  10.394 -0.2990  1.1699  0.0212
   67CHL1    H3 7366   6.134   4.462  10.387 -1.5966 -3.2668  0.7070
   67CHL1    O3 7367   5.998   4.487  10.533  0.4389  0.1090  0.6251
   67CHL1   H3' 7368   5.904   4.500  10.550 -0.4995 -2.4163 -2.3030
   67CHL1    C4 7369   6.020   4.645  10.354  0.3976  0.0245 -0.4330
   67CHL1   H4A 7370   5.921   4.689  10.379  0.8766  0.6080  0.4932
   67CHL1   H4B 7371   6.090   4.712  10.408  0.1031 -1.3652  1.7341
   67CHL1    C5 7372   6.036   4.661  10.204 -0.1638  0.1347  0.6075
   67CHL1    C6 7373   6.128   4.742  10.156 -0.5308  1.0228  0.5820
   67CHL1    H6 7374   6.192   4.797  10.227  1.9210  0.6397 -1.2452
   67CHL1    C7 7375   6.157   4.759  10.009  0.4620  0.3256 -0.2663
   67CHL1   H7A 7376   6.171   4.868  10.002 -0.1995  0.4125 -0.3193
   67CHL1   H7B 7377   6.250   4.709   9.976  0.9108  1.4949 -0.7909
   67CHL1    C8 7378   6.049   4.709   9.909  0.5241 -0.2825  0.4290
   67CHL1    H8 7379   5.972   4.789   9.913  0.2363 -0.6194  1.6245
   67CHL1   C14 7380   6.101   4.680   9.764  0.1779 -1.5754 -0.7034
   67CHL1   H14 7381   6.166   4.590   9.770  2.1200 -0.1676  0.0245
   67CHL1   C15 7382   6.199   4.785   9.707 -0.3507 -0.1708 -0.0716
   67CHL1  H15A 7383   6.150   4.883   9.724  0.5672  0.4006 -0.7049
   67CHL1  H15B 7384   6.298   4.785   9.756 -1.6326 -0.8056  2.6027
   67CHL1   C16 7385   6.201   4.745   9.562  0.2598 -0.2054  0.0249
   67CHL1  H16A 7386   6.227   4.818   9.482  0.3585  0.1087  0.3444
   67CHL1  H16B 7387   6.291   4.681   9.569  0.2651 -0.2150 -0.1277
   67CHL1   C17 7388   6.083   4.643   9.533 -0.5873 -0.1165 -0.1552
   67CHL1   H17 7389   6.125   4.541   9.520 -2.9958 -0.8255 -2.7622
   67CHL1   C13 7390   5.999   4.645   9.661 -0.4027  0.2282 -0.2334
   67CHL1   C18 7391   5.895   4.764   9.650 -0.7060 -0.1916  0.2108
   67CHL1  H18A 7392   5.848   4.778   9.750  1.3878  1.0511  1.0441
   67CHL1  H18B 7393   5.938   4.856   9.604  0.5691 -1.6019 -1.4426
   67CHL1  H18C 7394   5.810   4.736   9.584  0.3216 -1.1222 -0.7245
   67CHL1   C12 7395   5.939   4.517   9.708  0.3281 -0.4090 -0.3404
   67CHL1  H12A 7396   5.849   4.498   9.646  0.0492  1.4467 -0.5490
   67CHL1  H12B 7397   6.015   4.437   9.700  0.2860 -0.3785 -1.0847
   67CHL1   C11 7398   5.892   4.510   9.863 -0.3365  0.3700  0.6672
   67CHL1  H11A 7399   5.802   4.573   9.878  0.1077  0.9732  0.8356
   67CHL1  H11B 7400   5.862   4.409   9.898 -0.7027 -0.1399 -1.0655
   67CHL1    C9 7401   5.994   4.575   9.958 -0.3115  0.6223  0.1211
   67CHL1    H9 7402   6.084   4.510   9.953 -1.3542 -0.7937 -0.5198
   67CHL1   C10 7403   5.944   4.565  10.109  0.3480 -0.8179 -0.0387
   67CHL1   C19 7404   5.792   4.620  10.122 -0.1111 -0.9773  0.5302
   67CHL1  H19A 7405   5.775   4.628  10.231  0.6518 -1.0289  0.6597
   67CHL1  H19B 7406   5.789   4.719  10.071 -1.4302 -0.3193  1.8471
   67CHL1  H19C 7407   5.723   4.542  10.083  0.0732 -0.1963 -1.4239
   67CHL1    C1 7408   5.955   4.426  10.161  0.2197 -0.5861  0.6937
   67CHL1   H1A 7409   5.883   4.359  10.108  0.2306  1.0263 -1.4292
   67CHL1   H1B 7410   6.057   4.386  10.143  0.9454  0.8617  1.5509
   67CHL1    C2 7411   5.923   4.415  10.310 -0.2105 -0.0882 -0.3259
   67CHL1   H2A 7412   5.939   4.307  10.331 -0.9622  0.3706  2.8297
   67CHL1   H2B 7413   5.821   4.452  10.336 -1.1712 -1.2089 -2.3747
   67CHL1   C20 7414   6.007   4.675   9.396 -0.5256 -0.1025  0.0113
   67CHL1   H20 7415   5.958   4.775   9.399 -1.9610 -0.8142  0.9725
   67CHL1   C21 7416   5.896   4.566   9.378 -0.6365 -0.1398  0.2576
   67CHL1  H21A 7417   5.941   4.465   9.391 -1.0471 -0.2952  0.4944
   67CHL1  H21B 7418   5.838   4.573   9.283  1.5465  2.5059 -0.9260
   67CHL1  H21C 7419   5.826   4.588   9.461 -0.2720  0.0118  0.5214
   67CHL1   C22 7420   6.110   4.670   9.285  0.2226  1.2509 -0.0619
   67CHL1  H22A 7421   6.193   4.740   9.307 -0.5279  2.0621  0.2355
   67CHL1  H22B 7422   6.136   4.563   9.275 -1.1092  0.8693  0.4506
   67CHL1   C23 7423   6.043   4.725   9.155 -0.3510  0.0980  0.0505
   67CHL1  H23A 7424   5.955   4.660   9.136 -0.8959  0.8981 -0.2141
   67CHL1  H23B 7425   6.003   4.827   9.177  0.0530 -0.0722  1.6012
   67CHL1   C24 7426   6.132   4.725   9.028 -0.7349 -0.0914 -0.7001
   67CHL1  H24A 7427   6.236   4.744   9.061 -0.6709  0.0942 -1.0005
   67CHL1  H24B 7428   6.124   4.625   8.981  0.6311 -0.0161 -1.1282
   67CHL1   C25 7429   6.093   4.830   8.918  0.2834  0.0342 -0.4962
   67CHL1   H25 7430   6.095   4.934   8.957 -1.2179  0.2018 -0.8269
   67CHL1   C26 7431   6.196   4.804   8.809  0.2015 -0.1143 -0.5362
   67CHL1  H26A 7432   6.168   4.716   8.747  0.1337 -1.3514  1.2005
   67CHL1  H26B 7433   6.191   4.881   8.729  0.9206 -0.7185 -1.1691
   67CHL1  H26C 7434   6.297   4.801   8.855 -0.4246  3.0044  1.1501
   67CHL1   C27 7435   5.945   4.820   8.875  0.0104  0.3184 -0.2571
   67CHL1  H27A 7436   5.889   4.806   8.970 -1.2768 -2.1234 -1.3524
   67CHL1  H27B 7437   5.904   4.914   8.831  1.9185  1.3235  0.0435
   67CHL1  H27C 7438   5.928   4.735   8.806 -1.5815 -0.6240  1.2371
   68CHL1    C3 7439   3.329   5.018  10.169  0.3196 -0.3442 -0.1161
   68CHL1    H3 7440   3.276   5.105  10.125 -0.5033  0.0792  1.6498
   68CHL1    O3 7441   3.342   5.042  10.314  0.4677 -0.8269 -0.1355
   68CHL1   H3' 7442   3.389   4.962  10.339  0.8089 -0.2171  1.1875
   68CHL1    C4 7443   3.250   4.890  10.145  0.6968  0.2372  0.3472
   68CHL1   H4A 7444   3.304   4.805  10.193 -0.2575 -0.3611  0.3753
   68CHL1   H4B 7445   3.144   4.893  10.178  0.8738  0.0819  0.9325
   68CHL1    C5 7446   3.242   4.883   9.991 -0.4840  0.5165  0.1791
   68CHL1    C6 7447   3.130   4.872   9.924 -0.7386 -0.5266 -0.7252
   68CHL1    H6 7448   3.035   4.867   9.980  1.4598 -1.5384  3.1515
   68CHL1    C7 7449   3.112   4.855   9.780 -0.8426  0.2833  0.5017
   68CHL1   H7A 7450   3.033   4.788   9.742  1.9197 -2.2501 -0.9895
   68CHL1   H7B 7451   3.088   4.956   9.740  1.7366  2.2262  3.5620
   68CHL1    C8 7452   3.236   4.809   9.703 -0.1684  0.4583 -0.3155
   68CHL1    H8 7453   3.261   4.703   9.723  0.2181  1.0884  2.7413
   68CHL1   C14 7454   3.224   4.825   9.557 -0.0723 -0.1095 -0.6336
   68CHL1   H14 7455   3.192   4.928   9.532 -1.7940 -0.6428 -0.7244
   68CHL1   C15 7456   3.108   4.749   9.499  0.4819  0.4701 -0.1519
   68CHL1  H15A 7457   3.095   4.646   9.540 -0.6445  0.9402  0.6900
   68CHL1  H15B 7458   3.010   4.800   9.511 -0.2515 -1.2152  1.2886
   68CHL1   C16 7459   3.136   4.748   9.351  0.1992 -0.2766 -0.5932
   68CHL1  H16A 7460   3.122   4.643   9.318 -1.1589  0.1741 -1.4764
   68CHL1  H16B 7461   3.057   4.799   9.293  0.8635 -0.8922 -2.0560
   68CHL1   C17 7462   3.281   4.806   9.336 -0.0606 -0.1008  0.3131
   68CHL1   H17 7463   3.261   4.913   9.314  0.9454 -0.2420 -1.4413
   68CHL1   C13 7464   3.346   4.788   9.473 -0.5056 -0.2843 -0.4648
   68CHL1   C18 7465   3.390   4.633   9.500  0.6126  0.0921 -0.0411
   68CHL1  H18A 7466   3.331   4.556   9.446  0.5502  1.3509 -1.8194
   68CHL1  H18B 7467   3.487   4.614   9.448 -0.5253 -0.8768 -1.8510
   68CHL1  H18C 7468   3.409   4.608   9.607 -2.3623 -0.4230  0.3962
   68CHL1   C12 7469   3.461   4.886   9.518  0.6253 -0.0830 -0.0327
   68CHL1  H12A 7470   3.556   4.850   9.474  1.4922  1.3817  0.6198
   68CHL1  H12B 7471   3.430   4.980   9.468 -2.0860  0.3484  2.3063
   68CHL1   C11 7472   3.475   4.883   9.661 -0.0724 -0.0274 -1.0395
   68CHL1  H11A 7473   3.538   4.795   9.688  0.5171  0.3813 -1.0627
   68CHL1  H11B 7474   3.541   4.964   9.697  2.7580 -1.4261 -2.8522
   68CHL1    C9 7475   3.353   4.889   9.754 -0.6463  0.3552  0.1541
   68CHL1    H9 7476   3.312   4.988   9.727  0.6604  0.2568 -2.3618
   68CHL1   C10 7477   3.374   4.886   9.908  0.7047 -0.0439 -0.1827
   68CHL1   C19 7478   3.445   4.750   9.953  0.1974 -0.1112 -0.4752
   68CHL1  H19A 7479   3.386   4.661   9.922 -3.4026  1.9167  0.1378
   68CHL1  H19B 7480   3.545   4.751   9.906  0.5745 -0.2532  0.3234
   68CHL1  H19C 7481   3.473   4.749  10.061 -0.3213  1.6717 -0.2954
   68CHL1    C1 7482   3.460   5.004   9.954  0.8689  0.4966  0.1352
   68CHL1   H1A 7483   3.554   5.008   9.895  1.2417 -0.0818  0.6863
   68CHL1   H1B 7484   3.401   5.092   9.919  1.0351  0.7364  0.4593
   68CHL1    C2 7485   3.469   5.014  10.105 -0.4824  0.0794  0.3206
   68CHL1   H2A 7486   3.522   5.108  10.129  0.7769 -1.1663  2.5903
   68CHL1   H2B 7487   3.537   4.934  10.142  0.5385  0.6268 -0.3646
   68CHL1   C20 7488   3.352   4.754   9.203 -0.0563  0.3626 -0.0407
   68CHL1   H20 7489   3.380   4.648   9.220  1.3126  0.8852  1.0138
   68CHL1   C21 7490   3.474   4.840   9.184  0.1491 -0.6709  0.0447
   68CHL1  H21A 7491   3.471   4.950   9.198  3.9682 -0.2451 -1.7091
   68CHL1  H21B 7492   3.508   4.828   9.079 -0.3713 -1.0119 -0.0881
   68CHL1  H21C 7493   3.551   4.810   9.258  1.4941  0.6310 -0.7907
   68CHL1   C22 7494   3.251   4.757   9.088  0.0359  0.1756 -0.6682
   68CHL1  H22A 7495   3.175   4.679   9.113 -0.5563  0.1030 -2.5989
   68CHL1  H22B 7496   3.189   4.848   9.077 -0.3566  0.3096  2.3259
   68CHL1   C23 7497   3.303   4.724   8.950 -0.1204 -0.5341  0.3253
   68CHL1  H23A 7498   3.365   4.806   8.907 -0.4493  0.3934  1.6310
   68CHL1  H23B 7499   3.377   4.641   8.955 -0.1681 -0.6732 -0.9880
   68CHL1   C24 7500   3.193   4.678   8.841  0.5852  0.2779  0.1938
   68CHL1  H24A 7501   3.153   4.579   8.872 -1.4661  0.7636 -0.8035
   68CHL1  H24B 7502   3.111   4.753   8.848  1.6063  1.4079  0.3451
   68CHL1   C25 7503   3.241   4.687   8.692  0.3865  0.0744  0.6912
   68CHL1   H25 7504   3.315   4.769   8.682 -0.0631  0.1393 -2.8066
   68CHL1   C26 7505   3.308   4.557   8.648 -0.1763 -0.0762 -0.5654
   68CHL1  H26A 7506   3.408   4.542   8.694 -0.5923 -1.7572 -0.1777
   68CHL1  H26B 7507   3.252   4.478   8.703  1.1342 -0.6456 -0.0372
   68CHL1  H26C 7508   3.298   4.543   8.539  1.5610  1.3170 -0.9261
   68CHL1   C27 7509   3.118   4.720   8.603  0.0044  0.4297 -0.4660
   68CHL1  H27A 7510   3.084   4.822   8.630  0.2018  0.7255 -1.3052
   68CHL1  H27B 7511   3.143   4.722   8.494  4.7271  0.9992  0.5260
   68CHL1  H27C 7512   3.036   4.651   8.631 -0.4284  0.0202 -2.6400
   69CHL1    C3 7513   3.104   4.198   6.925 -0.5700  0.2850 -0.3309
   69CHL1    H3 7514   3.051   4.295   6.932 -1.1309 -0.0350 -0.1841
   69CHL1    O3 7515   3.098   4.163   6.787  0.5852 -0.0281 -0.6006
   69CHL1   H3' 7516   3.162   4.093   6.771  2.3250  1.4394 -0.1975
   69CHL1    C4 7517   3.248   4.218   6.968  0.2061  0.6014  0.0508
   69CHL1   H4A 7518   3.306   4.126   6.946 -0.2364 -0.0084  1.3263
   69CHL1   H4B 7519   3.287   4.309   6.919 -2.0493  0.6779 -1.6396
   69CHL1    C5 7520   3.249   4.249   7.123 -0.0969 -0.7721 -0.1518
   69CHL1    C6 7521   3.305   4.352   7.182 -0.3929 -0.7506  0.1663
   69CHL1    H6 7522   3.346   4.431   7.118  0.9180  0.3727  2.3625
   69CHL1    C7 7523   3.316   4.370   7.325  0.3017 -0.4228  0.3968
   69CHL1   H7A 7524   3.403   4.428   7.362 -0.6013  1.6900 -0.6902
   69CHL1   H7B 7525   3.225   4.430   7.348 -0.0169 -0.9265  0.4393
   69CHL1    C8 7526   3.301   4.246   7.416 -0.5363  0.5243 -1.0144
   69CHL1    H8 7527   3.394   4.184   7.412 -0.9467 -0.2260  0.6208
   69CHL1   C14 7528   3.281   4.280   7.558  0.7826 -0.5939  0.3430
   69CHL1   H14 7529   3.183   4.332   7.562  0.8497 -0.2095 -2.0297
   69CHL1   C15 7530   3.382   4.373   7.637 -0.0959  0.8901  0.0447
   69CHL1  H15A 7531   3.484   4.347   7.602  0.7633  1.6932  1.9025
   69CHL1  H15B 7532   3.349   4.472   7.598 -0.1990  0.9434  0.2681
   69CHL1   C16 7533   3.356   4.343   7.788  0.4027  0.0293  0.5264
   69CHL1  H16A 7534   3.454   4.324   7.838  0.8471  0.4025 -0.1831
   69CHL1  H16B 7535   3.321   4.435   7.839 -2.0745 -0.3547 -0.4149
   69CHL1   C17 7536   3.245   4.231   7.789 -0.3640 -0.2755 -0.2137
   69CHL1   H17 7537   3.147   4.284   7.787 -0.6154 -0.6234  1.6637
   69CHL1   C13 7538   3.258   4.159   7.657 -0.4630 -0.5329  0.3182
   69CHL1   C18 7539   3.387   4.072   7.665  0.1137  0.9084  0.1235
   69CHL1  H18A 7540   3.470   4.126   7.714  0.7392  0.7250 -0.7233
   69CHL1  H18B 7541   3.367   3.973   7.710  0.9927  0.0025 -1.4341
   69CHL1  H18C 7542   3.416   4.030   7.566 -0.4571 -1.2169  0.8426
   69CHL1   C12 7543   3.140   4.071   7.603  0.6652  0.1518  0.1119
   69CHL1  H12A 7544   3.140   3.975   7.659 -1.8881 -0.1807 -0.3829
   69CHL1  H12B 7545   3.043   4.122   7.621 -0.0770 -1.2301  0.1576
   69CHL1   C11 7546   3.158   4.039   7.451 -0.1286 -0.5154 -0.0808
   69CHL1  H11A 7547   3.242   3.967   7.439  0.8840  0.5978  0.2076
   69CHL1  H11B 7548   3.063   3.986   7.428 -0.7536  0.9066 -0.8935
   69CHL1    C9 7549   3.182   4.165   7.362  0.4358 -0.8321  0.2772
   69CHL1    H9 7550   3.097   4.237   7.369 -0.4604 -1.4154 -3.6163
   69CHL1   C10 7551   3.184   4.138   7.205  0.4657  0.3130 -0.3067
   69CHL1   C19 7552   3.268   4.009   7.180  0.2861 -0.1316 -0.2346
   69CHL1  H19A 7553   3.214   3.914   7.202 -0.1889  0.2641  0.3282
   69CHL1  H19B 7554   3.295   3.999   7.073  0.2989 -0.2617 -0.2198
   69CHL1  H19C 7555   3.363   4.017   7.237 -0.5444  0.3875  1.1061
   69CHL1    C1 7556   3.038   4.113   7.154  0.1125  0.2157 -0.5947
   69CHL1   H1A 7557   2.987   4.038   7.217  1.4796 -0.0842  0.1769
   69CHL1   H1B 7558   2.980   4.208   7.162  1.8677  1.3430 -0.9247
   69CHL1    C2 7559   3.038   4.080   7.004 -0.5544 -0.0320  0.0062
   69CHL1   H2A 7560   2.934   4.056   6.970  0.2427 -0.5699 -2.1717
   69CHL1   H2B 7561   3.086   3.981   6.994 -2.7010 -1.0204 -0.9870
   69CHL1   C20 7562   3.244   4.149   7.916  0.4399 -0.4805 -0.4190
   69CHL1   H20 7563   3.324   4.072   7.922  0.9979  0.2064  1.5352
   69CHL1   C21 7564   3.096   4.081   7.931  0.2319  0.7026 -0.3963
   69CHL1  H21A 7565   3.085   4.000   7.855  1.2806 -1.2121  1.4150
   69CHL1  H21B 7566   3.026   4.165   7.914  1.2839  1.7740  0.5145
   69CHL1  H21C 7567   3.074   4.042   8.033  0.4169 -1.0582 -1.0077
   69CHL1   C22 7568   3.263   4.229   8.044  0.6778 -0.0589  0.4068
   69CHL1  H22A 7569   3.349   4.299   8.041 -1.5066  2.6628 -1.9946
   69CHL1  H22B 7570   3.166   4.278   8.066  1.6405  1.5833  1.1143
   69CHL1   C23 7571   3.286   4.136   8.172  0.7358 -0.4183 -0.6340
   69CHL1  H23A 7572   3.204   4.060   8.174  0.2547  0.1219  1.4907
   69CHL1  H23B 7573   3.380   4.077   8.166 -0.4843 -2.4834 -0.1664
   69CHL1   C24 7574   3.295   4.223   8.306  0.9311  0.4012 -0.1071
   69CHL1  H24A 7575   3.377   4.298   8.304  0.9524  0.3530 -1.5864
   69CHL1  H24B 7576   3.194   4.270   8.311  1.1939  1.0923 -1.0401
   69CHL1   C25 7577   3.302   4.136   8.437 -0.0576  0.3779  0.7148
   69CHL1   H25 7578   3.214   4.068   8.437  0.2380 -0.0137  1.8034
   69CHL1   C26 7579   3.431   4.056   8.447 -0.0437  0.4386  0.1224
   69CHL1  H26A 7580   3.514   4.128   8.428 -1.2978  2.6513  2.7862
   69CHL1  H26B 7581   3.441   3.996   8.540 -1.1113 -1.4074 -0.9377
   69CHL1  H26C 7582   3.429   3.982   8.364  0.5685  0.8169 -0.2374
   69CHL1   C27 7583   3.291   4.242   8.551 -1.0116 -0.0056  0.2590
   69CHL1  H27A 7584   3.192   4.293   8.540 -1.4955 -0.9735  0.1163
   69CHL1  H27B 7585   3.289   4.199   8.653  2.1815 -0.4115  0.1849
   69CHL1  H27C 7586   3.375   4.315   8.547  0.0885 -1.2039  1.1451
   70CHL1    C3 7587   2.359   0.776   7.085 -0.3417 -0.3084  0.1251
   70CHL1    H3 7588   2.254   0.742   7.074 -0.7483  0.6323  1.0165
   70CHL1    O3 7589   2.388   0.827   6.958 -0.0741  0.1396 -0.2847
   70CHL1   H3' 7590   2.478   0.862   6.963 -0.1584  0.3600 -0.3137
   70CHL1    C4 7591   2.369   0.884   7.194  0.8476 -1.0579 -0.4107
   70CHL1   H4A 7592   2.450   0.951   7.158 -0.6695  0.8741 -0.2879
   70CHL1   H4B 7593   2.276   0.944   7.190  0.8068 -0.9403  1.5701
   70CHL1    C5 7594   2.398   0.849   7.336  0.4702 -0.1423 -0.1672
   70CHL1    C6 7595   2.323   0.907   7.428 -0.1174  0.3417 -0.0210
   70CHL1    H6 7596   2.250   0.980   7.390  0.3551 -0.1765 -1.9627
   70CHL1    C7 7597   2.332   0.863   7.573 -0.7328 -0.1377  0.3755
   70CHL1   H7A 7598   2.340   0.949   7.643 -1.0073 -0.1975  0.4804
   70CHL1   H7B 7599   2.238   0.808   7.595  0.0222 -1.8031 -0.4194
   70CHL1    C8 7600   2.461   0.785   7.607 -0.1556 -0.3090  0.2839
   70CHL1    H8 7601   2.538   0.863   7.590  1.6258 -2.0631  0.1491
   70CHL1   C14 7602   2.472   0.734   7.751 -0.2425  0.1856  0.4682
   70CHL1   H14 7603   2.409   0.643   7.748  1.4074 -0.9346 -1.1499
   70CHL1   C15 7604   2.444   0.827   7.874  0.1106 -0.4789  0.1230
   70CHL1  H15A 7605   2.494   0.925   7.862  0.3308 -0.8216 -1.8303
   70CHL1  H15B 7606   2.335   0.847   7.889 -0.1363 -2.7786  1.7672
   70CHL1   C16 7607   2.502   0.744   7.994  0.1965 -0.2577 -0.0290
   70CHL1  H16A 7608   2.565   0.822   8.043 -0.7024  1.1713 -1.1181
   70CHL1  H16B 7609   2.427   0.710   8.069 -1.1995 -0.1390 -1.3506
   70CHL1   C17 7610   2.595   0.632   7.941 -0.4886 -0.1997 -0.3145
   70CHL1   H17 7611   2.533   0.541   7.960 -1.6371  1.1096  2.5879
   70CHL1   C13 7612   2.609   0.668   7.789 -0.0256  0.0066  0.3584
   70CHL1   C18 7613   2.723   0.772   7.778  0.2064  0.2834  0.0509
   70CHL1  H18A 7614   2.710   0.816   7.677 -0.9771 -0.5635 -0.1759
   70CHL1  H18B 7615   2.705   0.854   7.850 -0.4613 -0.5005  0.7845
   70CHL1  H18C 7616   2.820   0.723   7.800 -2.3226 -3.9138  2.4193
   70CHL1   C12 7617   2.622   0.551   7.693  0.0146 -0.1056 -0.5647
   70CHL1  H12A 7618   2.721   0.501   7.704 -1.0280 -1.5797  2.8209
   70CHL1  H12B 7619   2.532   0.487   7.707  0.1534 -0.1833 -0.0342
   70CHL1   C11 7620   2.617   0.597   7.544 -0.7626  0.0482  0.5012
   70CHL1  H11A 7621   2.701   0.669   7.535  0.0723 -1.0633 -0.6564
   70CHL1  H11B 7622   2.636   0.509   7.480 -0.8720  0.4381 -0.0779
   70CHL1    C9 7623   2.490   0.673   7.503  0.0703 -0.8651 -0.1352
   70CHL1    H9 7624   2.409   0.596   7.504  0.6684 -1.6648 -4.4643
   70CHL1   C10 7625   2.492   0.730   7.354 -0.4856  0.8504 -0.3798
   70CHL1   C19 7626   2.635   0.798   7.336  0.8658  0.3176  0.4088
   70CHL1  H19A 7627   2.718   0.724   7.341  1.9899  1.5349  0.0257
   70CHL1  H19B 7628   2.655   0.837   7.234  1.0670 -1.7730 -0.3867
   70CHL1  H19C 7629   2.664   0.872   7.413  1.1489 -0.2634  0.8638
   70CHL1    C1 7630   2.472   0.610   7.258  0.3048  0.5525 -0.2240
   70CHL1   H1A 7631   2.564   0.548   7.255 -0.5194 -0.6330 -1.6978
   70CHL1   H1B 7632   2.389   0.544   7.292  2.1504 -1.6378  0.0974
   70CHL1    C2 7633   2.453   0.653   7.112 -1.1172  0.2178 -0.0319
   70CHL1   H2A 7634   2.410   0.563   7.063  0.6199 -0.8326  0.3264
   70CHL1   H2B 7635   2.551   0.677   7.065 -1.0391 -1.2791 -0.6978
   70CHL1   C20 7636   2.725   0.600   8.023 -0.3469 -0.1918 -0.2357
   70CHL1   H20 7637   2.796   0.684   8.008  0.8385 -0.8527  1.4884
   70CHL1   C21 7638   2.797   0.473   7.970  0.1884  1.1996  0.3065
   70CHL1  H21A 7639   2.819   0.462   7.862 -1.5693 -0.7853  0.1232
   70CHL1  H21B 7640   2.730   0.390   8.000  0.9372  0.5021  0.0701
   70CHL1  H21C 7641   2.887   0.469   8.035 -0.3812 -2.4367  0.9568
   70CHL1   C22 7642   2.718   0.590   8.177 -0.0354 -0.6006  0.0835
   70CHL1  H22A 7643   2.650   0.672   8.211  1.2821  0.3436  0.4551
   70CHL1  H22B 7644   2.674   0.491   8.200 -0.3195 -0.6750 -0.7599
   70CHL1   C23 7645   2.854   0.617   8.247 -0.6889 -0.4490  0.3830
   70CHL1  H23A 7646   2.928   0.540   8.216  1.1533  1.1570  0.6834
   70CHL1  H23B 7647   2.888   0.717   8.210  0.6913 -0.6051  1.1773
   70CHL1   C24 7648   2.850   0.613   8.392 -0.2560 -0.1420  0.8676
   70CHL1  H24A 7649   2.768   0.684   8.417  0.8289  1.1315  0.8641
   70CHL1  H24B 7650   2.812   0.514   8.424 -0.9547 -0.1955 -0.0961
   70CHL1   C25 7651   2.963   0.656   8.476  0.6701 -0.5707 -0.6849
   70CHL1   H25 7652   2.994   0.755   8.435 -0.6332  0.5160  0.9116
   70CHL1   C26 7653   2.902   0.683   8.614  0.2027  0.0680 -0.2227
   70CHL1  H26A 7654   2.984   0.719   8.680 -0.4128 -0.4276  0.8237
   70CHL1  H26B 7655   2.826   0.763   8.601  0.5493  0.4606  0.1379
   70CHL1  H26C 7656   2.860   0.590   8.657  0.2849  0.3677  0.5166
   70CHL1   C27 7657   3.083   0.563   8.498 -0.4291 -0.1416 -0.3079
   70CHL1  H27A 7658   3.052   0.477   8.559 -2.6190  0.5399 -0.4348
   70CHL1  H27B 7659   3.131   0.536   8.401  1.5223 -1.4976  1.0087
   70CHL1  H27C 7660   3.164   0.611   8.557 -0.7354  0.6201 -0.5029
   71CHL1    C3 7661   2.031   2.830   7.023  0.1515 -0.6343  0.2170
   71CHL1    H3 7662   2.051   2.937   7.003  1.3414 -1.1688 -1.5550
   71CHL1    O3 7663   2.003   2.791   6.894 -0.0433 -0.1642  0.3835
   71CHL1   H3' 7664   1.954   2.708   6.904  1.3402 -1.0386  0.0088
   71CHL1    C4 7665   2.163   2.764   7.065  0.3089  0.8256  0.4700
   71CHL1   H4A 7666   2.155   2.654   7.068 -0.7113  0.8546 -0.8177
   71CHL1   H4B 7667   2.246   2.793   6.997  1.5959 -2.3501  0.6121
   71CHL1    C5 7668   2.190   2.805   7.210 -0.2902 -0.4420  0.5674
   71CHL1    C6 7669   2.312   2.868   7.241 -0.0526 -0.2876 -0.1401
   71CHL1    H6 7670   2.386   2.867   7.159 -0.1809 -2.9554 -0.2579
   71CHL1    C7 7671   2.344   2.920   7.377  0.0581 -0.4129 -0.9010
   71CHL1   H7A 7672   2.454   2.922   7.392  0.0746  1.1090 -1.2188
   71CHL1   H7B 7673   2.318   3.027   7.362  0.9148 -0.1302 -0.4364
   71CHL1    C8 7674   2.264   2.849   7.488  0.2037  0.0851  0.3425
   71CHL1    H8 7675   2.293   2.742   7.492 -0.2595 -0.0919 -0.8383
   71CHL1   C14 7676   2.285   2.916   7.613  0.2409 -0.0056 -0.0346
   71CHL1   H14 7677   2.246   3.020   7.607  1.5572  0.7212  2.8504
   71CHL1   C15 7678   2.427   2.938   7.667 -0.3789  0.3642 -0.1288
   71CHL1  H15A 7679   2.478   2.845   7.637  0.3974  0.8135 -0.2162
   71CHL1  H15B 7680   2.481   3.018   7.611 -1.2100  1.9936  1.3252
   71CHL1   C16 7681   2.408   2.971   7.815  0.1777 -0.4413 -0.3587
   71CHL1  H16A 7682   2.485   2.918   7.875  1.9828  0.6248 -1.6883
   71CHL1  H16B 7683   2.423   3.081   7.828  0.2919 -0.8425  3.4278
   71CHL1   C17 7684   2.261   2.943   7.849 -0.0789 -0.2039  0.2714
   71CHL1   H17 7685   2.205   3.038   7.846  1.2880  0.6069 -0.2188
   71CHL1   C13 7686   2.206   2.857   7.735  0.6154 -0.5501  0.3225
   71CHL1   C18 7687   2.237   2.709   7.754 -0.4539 -0.0707  0.1657
   71CHL1  H18A 7688   2.344   2.684   7.772 -0.9274 -1.2154  1.4873
   71CHL1  H18B 7689   2.188   2.661   7.841 -3.5900 -1.0841 -2.0783
   71CHL1  H18C 7690   2.212   2.653   7.662  2.0384 -0.6315 -0.2056
   71CHL1   C12 7691   2.055   2.872   7.704  0.4321  0.3762 -0.4187
   71CHL1  H12A 7692   1.994   2.821   7.782  2.4474 -2.1467 -0.4382
   71CHL1  H12B 7693   2.032   2.981   7.708 -0.0374  0.2338  1.3012
   71CHL1   C11 7694   2.021   2.801   7.573 -0.2108 -0.0395 -0.7952
   71CHL1  H11A 7695   2.034   2.693   7.595  1.4621  0.4094  0.6235
   71CHL1  H11B 7696   1.914   2.826   7.561 -0.9054 -0.9205  2.8169
   71CHL1    C9 7697   2.115   2.856   7.455 -0.3701 -0.8753 -0.1580
   71CHL1    H9 7698   2.093   2.965   7.448 -0.7240 -0.9961 -0.9922
   71CHL1   C10 7699   2.072   2.791   7.313  0.0419 -0.0914  0.6709
   71CHL1   C19 7700   2.054   2.639   7.339 -0.1494 -0.7343 -0.3862
   71CHL1  H19A 7701   1.971   2.620   7.411  0.9400 -1.3710  0.7097
   71CHL1  H19B 7702   2.027   2.583   7.247 -1.0861  0.4348 -0.8377
   71CHL1  H19C 7703   2.149   2.598   7.379 -0.6290 -1.0158  0.4755
   71CHL1    C1 7704   1.934   2.840   7.258  0.3031  1.2223 -0.8002
   71CHL1   H1A 7705   1.860   2.803   7.332  1.6815  0.1048  0.0351
   71CHL1   H1B 7706   1.924   2.950   7.274  1.7900  1.0795  1.2654
   71CHL1    C2 7707   1.911   2.796   7.114 -0.4316 -0.5974  0.4323
   71CHL1   H2A 7708   1.826   2.858   7.079 -0.0710 -0.7771 -0.7831
   71CHL1   H2B 7709   1.884   2.688   7.106  0.0648 -0.5010 -4.2025
   71CHL1   C20 7710   2.254   2.889   7.995 -0.5600  0.4578 -0.5276
   71CHL1   H20 7711   2.330   2.809   8.010  0.8234  1.4778 -1.9804
   71CHL1   C21 7712   2.104   2.851   8.035  0.5422 -0.0032 -0.3345
   71CHL1  H21A 7713   2.100   2.828   8.144  0.1162 -0.4631 -0.4450
   71CHL1  H21B 7714   2.076   2.754   7.989  0.8984 -0.8212  1.1369
   71CHL1  H21C 7715   2.038   2.936   8.008  0.7534  0.4795  0.6210
   71CHL1   C22 7716   2.311   2.991   8.098 -0.2183  0.1122  0.5313
   71CHL1  H22A 7717   2.412   3.027   8.070 -0.3624  0.0913 -0.0192
   71CHL1  H22B 7718   2.250   3.083   8.087  2.3445  1.7358 -0.6313
   71CHL1   C23 7719   2.329   2.930   8.240 -0.3693  0.2202 -0.0782
   71CHL1  H23A 7720   2.335   3.019   8.306 -0.0445  0.3457 -0.2777
   71CHL1  H23B 7721   2.234   2.887   8.280 -0.9650  2.1730  0.6584
   71CHL1   C24 7722   2.446   2.840   8.257 -1.1384  0.4361 -0.5510
   71CHL1  H24A 7723   2.437   2.749   8.193 -1.2058  1.6640 -2.3290
   71CHL1  H24B 7724   2.545   2.885   8.233 -1.6928  1.9379 -0.0677
   71CHL1   C25 7725   2.467   2.797   8.401  0.3049 -0.3636  0.6260
   71CHL1   H25 7726   2.453   2.895   8.452  1.0642  0.8883 -1.5403
   71CHL1   C26 7727   2.357   2.707   8.464  0.0020  0.3513  1.0039
   71CHL1  H26A 7728   2.362   2.599   8.438  0.6545  0.9296 -1.4758
   71CHL1  H26B 7729   2.351   2.723   8.574  3.6559  2.2315  1.0172
   71CHL1  H26C 7730   2.251   2.735   8.444 -0.3488 -1.2113  0.6123
   71CHL1   C27 7731   2.607   2.737   8.440  0.2569  0.7819  0.3070
   71CHL1  H27A 7732   2.605   2.716   8.549 -1.5270 -0.8800  0.0058
   71CHL1  H27B 7733   2.630   2.642   8.387 -0.3984  0.6912  0.1719
   71CHL1  H27C 7734   2.695   2.800   8.418  0.6520 -0.8191 -3.1146
   72CHL1    C3 7735   2.388   1.868   7.261  0.3939  0.3196  0.2431
   72CHL1    H3 7736   2.425   1.969   7.287 -1.1383  1.0949 -0.5953
   72CHL1    O3 7737   2.336   1.866   7.130 -0.4876 -0.1377  0.6837
   72CHL1   H3' 7738   2.307   1.775   7.119 -1.5476  0.4623 -1.9494
   72CHL1    C4 7739   2.505   1.766   7.283 -0.2418 -0.4234 -0.6278
   72CHL1   H4A 7740   2.455   1.668   7.277  0.5165 -0.9485  1.1943
   72CHL1   H4B 7741   2.577   1.780   7.199  0.0950 -0.9930 -0.4348
   72CHL1    C5 7742   2.568   1.789   7.423 -0.8003  0.5137 -0.4484
   72CHL1    C6 7743   2.701   1.823   7.434 -0.3982 -0.3138  0.0087
   72CHL1    H6 7744   2.764   1.831   7.344  0.3590 -1.0154  0.4667
   72CHL1    C7 7745   2.752   1.843   7.575 -0.0389 -0.2786 -0.3489
   72CHL1   H7A 7746   2.854   1.801   7.588 -0.1508 -0.7807 -1.0698
   72CHL1   H7B 7747   2.764   1.953   7.586 -2.5263  0.0395 -0.4108
   72CHL1    C8 7748   2.664   1.800   7.692  0.0224  0.2407 -0.0750
   72CHL1    H8 7749   2.679   1.690   7.693 -2.4366 -0.1561 -1.9644
   72CHL1   C14 7750   2.713   1.849   7.826  0.2837 -0.3373  0.3425
   72CHL1   H14 7751   2.699   1.959   7.824 -2.0789 -0.6078 -1.7247
   72CHL1   C15 7752   2.856   1.834   7.872 -0.6235 -0.0837  0.1514
   72CHL1  H15A 7753   2.897   1.731   7.871  1.0585  0.4953  3.1683
   72CHL1  H15B 7754   2.922   1.897   7.808 -0.9675 -0.9932 -1.1291
   72CHL1   C16 7755   2.852   1.886   8.018  0.0870  0.4748 -0.0605
   72CHL1  H16A 7756   2.914   1.809   8.069 -0.1045  0.5764  0.3260
   72CHL1  H16B 7757   2.890   1.991   8.015 -2.2728  1.4914  3.0562
   72CHL1   C17 7758   2.707   1.885   8.069  0.2584 -1.0583  0.0111
   72CHL1   H17 7759   2.669   1.989   8.059  0.2041 -0.8331  2.2061
   72CHL1   C13 7760   2.635   1.808   7.952 -0.0996 -0.3245 -0.2070
   72CHL1   C18 7761   2.655   1.657   7.967 -0.0722 -0.2197  0.0135
   72CHL1  H18A 7762   2.758   1.615   7.971  0.3067  0.5953 -1.0842
   72CHL1  H18B 7763   2.605   1.632   8.064  0.2831  0.3198  0.3374
   72CHL1  H18C 7764   2.593   1.600   7.894 -1.6034 -1.1494  1.9732
   72CHL1   C12 7765   2.490   1.841   7.937  0.5429 -0.4326 -0.6630
   72CHL1  H12A 7766   2.419   1.794   8.009  1.8182 -0.4378  0.6117
   72CHL1  H12B 7767   2.493   1.952   7.935 -1.5492 -0.3652 -2.0483
   72CHL1   C11 7768   2.436   1.793   7.797 -0.2791  0.6719 -0.1160
   72CHL1  H11A 7769   2.429   1.682   7.793  1.2148  0.6337 -3.0968
   72CHL1  H11B 7770   2.330   1.824   7.785  0.2493  2.4129 -0.3404
   72CHL1    C9 7771   2.520   1.834   7.673  0.4821  0.3881  0.7329
   72CHL1    H9 7772   2.511   1.944   7.666  0.2857  0.2889 -0.8549
   72CHL1   C10 7773   2.465   1.778   7.538 -0.6250 -0.0156  0.1075
   72CHL1   C19 7774   2.441   1.627   7.550 -0.1264  0.3894  1.3329
   72CHL1  H19A 7775   2.370   1.596   7.631 -0.8314  2.3061  1.4716
   72CHL1  H19B 7776   2.403   1.577   7.459  0.4717 -0.8048  1.7232
   72CHL1  H19C 7777   2.536   1.581   7.583  0.6538  1.4255  0.5484
   72CHL1    C1 7778   2.330   1.848   7.501 -0.3319 -0.3681 -0.7600
   72CHL1   H1A 7779   2.255   1.821   7.578 -0.6342 -2.1031 -1.6314
   72CHL1   H1B 7780   2.333   1.958   7.511  0.3220 -0.3967 -0.6322
   72CHL1    C2 7781   2.279   1.829   7.357  0.1311 -0.5160  0.1968
   72CHL1   H2A 7782   2.187   1.890   7.347  2.3205  2.5807 -2.1210
   72CHL1   H2B 7783   2.260   1.720   7.345 -3.3242 -0.1482  1.9211
   72CHL1   C20 7784   2.697   1.852   8.219 -0.0582 -0.2501 -0.5717
   72CHL1   H20 7785   2.758   1.760   8.231 -1.9410 -1.5188 -0.6291
   72CHL1   C21 7786   2.548   1.848   8.264 -0.0900  0.0555  0.2595
   72CHL1  H21A 7787   2.498   1.938   8.222  1.0277  1.2304  1.4093
   72CHL1  H21B 7788   2.533   1.832   8.373 -1.0450 -2.8703 -0.2582
   72CHL1  H21C 7789   2.499   1.764   8.210  0.0851  0.8806 -1.2265
   72CHL1   C22 7790   2.762   1.962   8.308  0.7422 -0.4198 -0.4103
   72CHL1  H22A 7791   2.856   2.001   8.264  0.0990  1.5887 -0.0703
   72CHL1  H22B 7792   2.696   2.051   8.312 -0.6129 -1.4862  1.9611
   72CHL1   C23 7793   2.804   1.898   8.442  0.4141  0.5581 -0.0152
   72CHL1  H23A 7794   2.714   1.863   8.498  0.6131  0.5840  0.3217
   72CHL1  H23B 7795   2.873   1.812   8.424 -0.3599 -0.2961  1.0091
   72CHL1   C24 7796   2.883   2.000   8.521 -0.0520 -0.2235 -0.3613
   72CHL1  H24A 7797   2.972   2.023   8.458  0.0110 -2.6651 -1.2136
   72CHL1  H24B 7798   2.811   2.085   8.525  0.1813 -0.0233 -0.3548
   72CHL1   C25 7799   2.916   1.941   8.653 -0.6010 -0.6405 -0.1408
   72CHL1   H25 7800   2.982   1.853   8.637 -0.4645 -0.2018 -2.1015
   72CHL1   C26 7801   3.000   2.046   8.733 -0.0302  1.0039 -0.3778
   72CHL1  H26A 7802   2.940   2.125   8.783  1.9997  0.5712  2.8713
   72CHL1  H26B 7803   3.051   1.989   8.813  0.5437  0.1064 -1.3841
   72CHL1  H26C 7804   3.069   2.089   8.657 -1.2434  2.5153 -0.6477
   72CHL1   C27 7805   2.795   1.900   8.740 -0.6989 -0.1337 -0.2231
   72CHL1  H27A 7806   2.730   1.990   8.750  0.9626  1.6323 -4.1160
   72CHL1  H27B 7807   2.741   1.813   8.697  0.5835 -1.2443  0.3648
   72CHL1  H27C 7808   2.827   1.874   8.842 -2.0377  0.9564  0.4958
   73CHL1    C3 7809   1.763   4.294   7.084 -0.3389 -0.3795  0.2098
   73CHL1    H3 7810   1.688   4.376   7.080  1.2689  1.0483 -1.1907
   73CHL1    O3 7811   1.825   4.272   6.958  0.2374  0.7967  0.4380
   73CHL1   H3' 7812   1.837   4.354   6.910  0.5911  1.0270  0.9101
   73CHL1    C4 7813   1.865   4.335   7.185  0.0618  0.2963  0.4977
   73CHL1   H4A 7814   1.934   4.248   7.175  1.2402  1.4073 -1.3282
   73CHL1   H4B 7815   1.910   4.430   7.149 -0.2980  0.6371  0.9429
   73CHL1    C5 7816   1.809   4.343   7.326 -0.0105  0.2174  1.3032
   73CHL1    C6 7817   1.823   4.458   7.391  0.1482  0.0268 -0.1199
   73CHL1    H6 7818   1.880   4.542   7.349  1.5834 -1.7848 -1.9616
   73CHL1    C7 7819   1.774   4.474   7.533 -0.1981  0.0301  0.1286
   73CHL1   H7A 7820   1.849   4.534   7.590  0.2857 -1.8495  1.5218
   73CHL1   H7B 7821   1.678   4.531   7.533  0.4743  1.2573  2.5597
   73CHL1    C8 7822   1.745   4.337   7.601 -0.1537  0.0565 -0.2496
   73CHL1    H8 7823   1.843   4.287   7.618  0.4622  1.3644  0.1611
   73CHL1   C14 7824   1.669   4.357   7.732 -0.1900  0.7352 -0.1597
   73CHL1   H14 7825   1.565   4.381   7.702 -0.9102  0.3725  1.9155
   73CHL1   C15 7826   1.725   4.464   7.830 -0.8019  0.0165  0.4063
   73CHL1  H15A 7827   1.834   4.452   7.846 -0.8418  0.9659  1.4265
   73CHL1  H15B 7828   1.707   4.566   7.790  0.6249  1.3182  2.9567
   73CHL1   C16 7829   1.644   4.438   7.957 -0.0197  0.4804 -0.5610
   73CHL1  H16A 7830   1.710   4.429   8.045  2.4005  0.1997 -2.3392
   73CHL1  H16B 7831   1.582   4.530   7.962 -1.2952 -0.3996  0.0454
   73CHL1   C17 7832   1.572   4.301   7.940 -1.0676  0.5645  0.5100
   73CHL1   H17 7833   1.469   4.304   7.899 -1.1572  0.5393  0.7312
   73CHL1   C13 7834   1.635   4.230   7.817  0.3660 -0.0477  0.8121
   73CHL1   C18 7835   1.771   4.175   7.865 -0.4684 -0.4600  0.5556
   73CHL1  H18A 7836   1.832   4.253   7.915  0.8276 -0.2581 -1.3011
   73CHL1  H18B 7837   1.744   4.094   7.936 -1.7250 -0.2426  0.3457
   73CHL1  H18C 7838   1.836   4.135   7.785  0.4528 -0.4193  1.2774
   73CHL1   C12 7839   1.557   4.139   7.715  0.1830 -0.1488 -0.4281
   73CHL1  H12A 7840   1.526   4.040   7.754  2.6548 -1.4015 -1.5820
   73CHL1  H12B 7841   1.457   4.185   7.699  0.0196 -1.0050 -1.9106
   73CHL1   C11 7842   1.636   4.114   7.579 -0.2722 -0.0961  0.5104
   73CHL1  H11A 7843   1.714   4.040   7.608 -2.7156 -2.5882  0.8942
   73CHL1  H11B 7844   1.560   4.056   7.523  0.8848  0.1331 -1.3163
   73CHL1    C9 7845   1.676   4.237   7.503  0.2073 -1.0734 -0.9919
   73CHL1    H9 7846   1.581   4.293   7.492 -0.3929 -2.3675 -2.5212
   73CHL1   C10 7847   1.748   4.212   7.372  0.6042  0.7116  0.3732
   73CHL1   C19 7848   1.863   4.105   7.387 -0.4855 -0.2827  0.2556
   73CHL1  H19A 7849   1.918   4.088   7.292 -2.0375 -2.0432 -0.3691
   73CHL1  H19B 7850   1.936   4.146   7.459  0.1793  1.9406 -1.6051
   73CHL1  H19C 7851   1.813   4.011   7.419  1.4725 -1.0832  1.0237
   73CHL1    C1 7852   1.642   4.169   7.270 -0.2774  0.0825  0.1325
   73CHL1   H1A 7853   1.595   4.073   7.302 -0.1767  0.7068  2.1910
   73CHL1   H1B 7854   1.558   4.241   7.281  0.1254  0.7462 -1.0875
   73CHL1    C2 7855   1.694   4.158   7.126 -0.5819 -0.8365 -0.0926
   73CHL1   H2A 7856   1.614   4.137   7.051  1.2796  1.5965 -2.8514
   73CHL1   H2B 7857   1.768   4.076   7.122 -0.6514 -0.8290 -2.2552
   73CHL1   C20 7858   1.561   4.226   8.070 -0.3557  0.6384  0.5888
   73CHL1   H20 7859   1.661   4.197   8.108 -0.7492 -0.1486  1.0299
   73CHL1   C21 7860   1.477   4.092   8.042 -0.5159  0.1216  0.1520
   73CHL1  H21A 7861   1.537   4.031   7.972  1.2534  2.2173 -0.2165
   73CHL1  H21B 7862   1.380   4.124   7.997 -1.4080 -0.1551  1.8165
   73CHL1  H21C 7863   1.456   4.035   8.135  0.7045 -1.8849 -0.7854
   73CHL1   C22 7864   1.488   4.306   8.185 -0.7861 -0.0587  0.6731
   73CHL1  H22A 7865   1.557   4.388   8.215 -0.9728  0.2210  0.3455
   73CHL1  H22B 7866   1.402   4.352   8.133 -0.3600  1.4495  1.2612
   73CHL1   C23 7867   1.448   4.227   8.307  0.4573 -0.3836 -0.7075
   73CHL1  H23A 7868   1.373   4.150   8.281  1.7657 -1.9338 -0.0042
   73CHL1  H23B 7869   1.537   4.165   8.333 -0.1095 -1.5320 -1.4885
   73CHL1   C24 7870   1.402   4.323   8.417 -0.6292  0.5003 -0.2037
   73CHL1  H24A 7871   1.486   4.392   8.441 -1.3315  1.6148 -0.8759
   73CHL1  H24B 7872   1.317   4.378   8.372 -0.7941  0.3071 -0.1312
   73CHL1   C25 7873   1.356   4.247   8.543 -0.6480 -0.5100  0.2671
   73CHL1   H25 7874   1.318   4.149   8.510  0.0747 -0.8281  0.3747
   73CHL1   C26 7875   1.461   4.205   8.647 -0.3806  0.9714  0.6752
   73CHL1  H26A 7876   1.410   4.153   8.731 -1.5951 -0.3362 -0.8288
   73CHL1  H26B 7877   1.545   4.152   8.597 -1.4366  0.7689 -0.9511
   73CHL1  H26C 7878   1.506   4.300   8.684 -1.0088  0.6919  2.1839
   73CHL1   C27 7879   1.250   4.329   8.610 -0.4747  0.0551  0.5822
   73CHL1  H27A 7880   1.229   4.293   8.713 -1.4116  1.8461  1.0421
   73CHL1  H27B 7881   1.298   4.428   8.625  1.0123 -0.4603 -0.6765
   73CHL1  H27C 7882   1.159   4.331   8.545 -0.6199  1.0330  0.8134
   74CHL1    C3 7883   1.414   2.828   7.006  0.4070  0.1767 -0.9331
   74CHL1    H3 7884   1.431   2.722   7.035 -1.1489 -0.4181 -2.0941
   74CHL1    O3 7885   1.385   2.833   6.867  0.2343  0.0599 -0.3382
   74CHL1   H3' 7886   1.456   2.783   6.827 -1.4595 -3.1467  0.4853
   74CHL1    C4 7887   1.285   2.875   7.088 -1.1013 -0.3059 -0.5246
   74CHL1   H4A 7888   1.265   2.982   7.066  0.8118  0.3990  0.9544
   74CHL1   H4B 7889   1.199   2.807   7.069 -0.5903 -0.7241 -1.3434
   74CHL1    C5 7890   1.309   2.881   7.240 -0.1649 -0.0604  0.1860
   74CHL1    C6 7891   1.224   2.822   7.326 -0.5327  0.0409 -0.7011
   74CHL1    H6 7892   1.135   2.773   7.284  0.0260 -1.3267 -0.3251
   74CHL1    C7 7893   1.242   2.806   7.469  0.5157  0.5740 -0.1434
   74CHL1   H7A 7894   1.149   2.828   7.527 -0.5357 -0.4965 -1.3738
   74CHL1   H7B 7895   1.269   2.699   7.485 -0.9696  0.2019  0.0278
   74CHL1    C8 7896   1.352   2.900   7.512 -0.4563 -0.4231  0.5380
   74CHL1    H8 7897   1.312   3.003   7.522  1.2117  0.0127  3.0536
   74CHL1   C14 7898   1.401   2.857   7.650  0.0141  0.2515  0.3913
   74CHL1   H14 7899   1.440   2.753   7.642 -1.5182 -0.3340  0.3387
   74CHL1   C15 7900   1.291   2.839   7.750 -0.2508 -0.3175 -0.4361
   74CHL1  H15A 7901   1.230   2.932   7.743  1.6134  0.9507  0.0207
   74CHL1  H15B 7902   1.220   2.756   7.727  1.3614 -1.0587 -3.0373
   74CHL1   C16 7903   1.367   2.833   7.875  0.5483 -0.3865  1.1185
   74CHL1  H16A 7904   1.319   2.902   7.947  1.2035  2.7309 -1.3229
   74CHL1  H16B 7905   1.370   2.730   7.917  0.6352 -0.6221  0.5515
   74CHL1   C17 7906   1.506   2.876   7.852 -0.3855  0.3172 -0.0573
   74CHL1   H17 7907   1.576   2.790   7.845  0.8316  1.2542  0.4359
   74CHL1   C13 7908   1.507   2.943   7.719  0.0783 -0.8850  0.4553
   74CHL1   C18 7909   1.457   3.096   7.736 -0.2543 -0.3163  0.3306
   74CHL1  H18A 7910   1.541   3.153   7.782  0.9663 -1.1734 -0.7802
   74CHL1  H18B 7911   1.445   3.140   7.634  0.5761 -2.3791 -0.6895
   74CHL1  H18C 7912   1.364   3.100   7.796 -2.2044 -2.6386 -2.4442
   74CHL1   C12 7913   1.633   2.928   7.632  0.3358 -0.3618  0.5608
   74CHL1  H12A 7914   1.721   2.979   7.677  2.5115 -0.0904 -3.7421
   74CHL1  H12B 7915   1.663   2.822   7.626 -0.6354 -0.5573 -1.1198
   74CHL1   C11 7916   1.597   2.975   7.490  0.4440  0.1965  0.2706
   74CHL1  H11A 7917   1.583   3.085   7.500 -0.7617  0.1249 -0.5550
   74CHL1  H11B 7918   1.693   2.957   7.438  0.7859  2.1180  0.2143
   74CHL1    C9 7919   1.474   2.906   7.421  0.4143 -0.6226  0.8560
   74CHL1    H9 7920   1.511   2.801   7.414 -0.3638 -0.8107 -0.6289
   74CHL1   C10 7921   1.443   2.950   7.278  0.2130 -0.2382 -0.0823
   74CHL1   C19 7922   1.417   3.102   7.275  0.1399 -0.1236 -0.0966
   74CHL1  H19A 7923   1.506   3.159   7.310 -1.7289  1.9907  1.2508
   74CHL1  H19B 7924   1.393   3.135   7.171  0.7373 -0.1973 -0.2661
   74CHL1  H19C 7925   1.330   3.133   7.336  0.2176 -0.9333  0.4248
   74CHL1    C1 7926   1.564   2.915   7.191 -0.3003  1.1239  0.3087
   74CHL1   H1A 7927   1.648   2.986   7.206 -0.3701  1.5630 -1.2973
   74CHL1   H1B 7928   1.598   2.812   7.213 -0.4671  1.7740  3.7750
   74CHL1    C2 7929   1.539   2.908   7.037 -0.0311  0.1459 -0.1891
   74CHL1   H2A 7930   1.624   2.869   6.978 -1.1030 -1.6554 -0.5688
   74CHL1   H2B 7931   1.528   3.011   6.997  0.0382  0.6177  0.9912
   74CHL1   C20 7932   1.557   2.959   7.976 -0.1007  0.2338 -0.2133
   74CHL1   H20 7933   1.514   3.060   7.990  1.9330  0.9222  1.3781
   74CHL1   C21 7934   1.712   2.979   7.964 -0.5834  0.0772 -0.2463
   74CHL1  H21A 7935   1.755   2.998   8.065 -1.0462  0.0934 -0.0496
   74CHL1  H21B 7936   1.738   3.046   7.880  0.0780 -0.4875 -0.4892
   74CHL1  H21C 7937   1.756   2.882   7.932 -0.7250  0.6195 -2.1288
   74CHL1   C22 7938   1.522   2.892   8.111 -0.3120  1.1195  0.2156
   74CHL1  H22A 7939   1.565   2.961   8.185  0.2476  1.5055 -0.4602
   74CHL1  H22B 7940   1.412   2.882   8.128 -0.4709  1.4862 -0.5842
   74CHL1   C23 7941   1.574   2.748   8.129  0.0728 -0.1379 -0.1386
   74CHL1  H23A 7942   1.554   2.694   8.034  0.5542 -1.5212  0.5426
   74CHL1  H23B 7943   1.681   2.749   8.158 -0.6831  1.4256  2.8403
   74CHL1   C24 7944   1.481   2.669   8.227  0.9350  0.5869  0.2338
   74CHL1  H24A 7945   1.381   2.645   8.185  1.1467 -3.1687  1.6811
   74CHL1  H24B 7946   1.541   2.578   8.249  1.0065  0.1148 -1.8695
   74CHL1   C25 7947   1.458   2.731   8.373  0.1414  0.3790  0.5514
   74CHL1   H25 7948   1.420   2.834   8.358 -0.0984  0.2439  0.2461
   74CHL1   C26 7949   1.359   2.648   8.466  0.4315  0.3540 -1.3909
   74CHL1  H26A 7950   1.405   2.553   8.501  1.0243  0.7253 -1.1639
   74CHL1  H26B 7951   1.346   2.698   8.564  1.5800 -1.1847 -0.4373
   74CHL1  H26C 7952   1.261   2.625   8.417 -0.1951 -0.5948  0.2661
   74CHL1   C27 7953   1.588   2.749   8.458  0.3542  0.0187 -0.1031
   74CHL1  H27A 7954   1.628   2.651   8.492  1.5435  0.8406  0.9281
   74CHL1  H27B 7955   1.664   2.805   8.401  0.7890 -0.2684  0.1900
   74CHL1  H27C 7956   1.553   2.802   8.549  0.8906 -1.4222  0.9734
   75CHL1    C3 7957   4.508   4.550   6.732 -0.0633 -0.6523 -0.1949
   75CHL1    H3 7958   4.399   4.546   6.756 -0.6131  0.9525 -2.2626
   75CHL1    O3 7959   4.532   4.581   6.597 -0.1503  0.1055  0.4188
   75CHL1   H3' 7960   4.484   4.664   6.591 -0.2631  0.0116  0.0472
   75CHL1    C4 7961   4.564   4.662   6.818 -0.1919  0.2027  0.0918
   75CHL1   H4A 7962   4.665   4.659   6.772 -1.0010 -1.5634 -1.6523
   75CHL1   H4B 7963   4.518   4.759   6.790 -0.0907 -0.0884 -1.1470
   75CHL1    C5 7964   4.571   4.644   6.966 -0.0827  0.0361 -0.3724
   75CHL1    C6 7965   4.511   4.730   7.054 -0.0786  0.2513  0.4025
   75CHL1    H6 7966   4.454   4.816   7.014  1.8752  0.6633 -1.5897
   75CHL1    C7 7967   4.504   4.717   7.206  0.4071 -0.4253 -0.2886
   75CHL1   H7A 7968   4.530   4.814   7.252  1.9859 -0.2780 -1.4526
   75CHL1   H7B 7969   4.400   4.680   7.221  0.5357 -1.4933 -1.8821
   75CHL1    C8 7970   4.611   4.611   7.251 -0.6732  0.3852 -0.3718
   75CHL1    H8 7971   4.704   4.673   7.254 -1.1061  1.0307 -0.1609
   75CHL1   C14 7972   4.579   4.574   7.395  0.0142  0.5158 -1.0891
   75CHL1   H14 7973   4.478   4.529   7.399 -0.5036  1.8029  0.9299
   75CHL1   C15 7974   4.580   4.686   7.497  0.0426  0.1008  0.0779
   75CHL1  H15A 7975   4.674   4.745   7.501  2.4718 -3.6248  0.1391
   75CHL1  H15B 7976   4.492   4.754   7.493 -0.7236 -0.7957  1.3475
   75CHL1   C16 7977   4.573   4.606   7.633  1.2451 -0.8244 -0.0209
   75CHL1  H16A 7978   4.624   4.661   7.715 -1.1394  3.3266 -1.1661
   75CHL1  H16B 7979   4.467   4.606   7.666  1.2120 -0.0438 -0.1090
   75CHL1   C17 7980   4.620   4.461   7.609  0.1044 -0.1811 -0.2831
   75CHL1   H17 7981   4.526   4.403   7.599  0.0752 -0.0122 -1.0206
   75CHL1   C13 7982   4.674   4.471   7.459 -0.2002 -0.0231  0.1081
   75CHL1   C18 7983   4.830   4.525   7.462  0.2485  0.0913 -0.2834
   75CHL1  H18A 7984   4.845   4.555   7.356  0.9375  2.1620  0.3814
   75CHL1  H18B 7985   4.843   4.601   7.542 -1.2039 -0.0182  0.0682
   75CHL1  H18C 7986   4.896   4.443   7.495  1.5147  1.1334 -0.2173
   75CHL1   C12 7987   4.669   4.342   7.369  0.2844 -0.1894 -0.1248
   75CHL1  H12A 7988   4.736   4.265   7.412  0.4397  1.2397  2.2941
   75CHL1  H12B 7989   4.567   4.299   7.384 -0.2682  0.8009 -0.9528
   75CHL1   C11 7990   4.706   4.373   7.224 -0.3450 -0.0528  0.0781
   75CHL1  H11A 7991   4.807   4.418   7.217 -0.6749  0.5937 -0.6308
   75CHL1  H11B 7992   4.702   4.285   7.157  0.0701  1.8140 -2.4850
   75CHL1    C9 7993   4.614   4.487   7.166  0.5960  0.0094 -0.4297
   75CHL1    H9 7994   4.509   4.452   7.178  0.4312  0.8605  0.7289
   75CHL1   C10 7995   4.639   4.517   7.012  0.5980 -0.3825  0.1162
   75CHL1   C19 7996   4.783   4.544   6.993  0.3485 -0.2495  0.2586
   75CHL1  H19A 7997   4.820   4.632   7.051  0.5761 -0.6932  0.7954
   75CHL1  H19B 7998   4.845   4.454   7.011 -0.0726 -0.2896  1.5344
   75CHL1  H19C 7999   4.805   4.560   6.885 -1.7549  3.2118  0.2601
   75CHL1    C1 8000   4.583   4.404   6.929  0.5959 -0.8089  0.4202
   75CHL1   H1A 8001   4.648   4.315   6.943  0.6877 -0.7861  0.1317
   75CHL1   H1B 8002   4.481   4.385   6.968 -0.0201  2.7141  0.7304
   75CHL1    C2 8003   4.576   4.419   6.768  0.1377 -0.8232 -0.3140
   75CHL1   H2A 8004   4.513   4.342   6.720 -0.8131 -1.1741  1.4447
   75CHL1   H2B 8005   4.679   4.414   6.726  0.3484 -1.4726  0.2813
   75CHL1   C20 8006   4.699   4.394   7.725 -0.1910 -0.2594  0.0533
   75CHL1   H20 8007   4.784   4.456   7.760 -0.0377 -0.8717  0.7821
   75CHL1   C21 8008   4.772   4.264   7.680  0.0725 -0.4427  0.3615
   75CHL1  H21A 8009   4.857   4.285   7.611 -0.7063 -1.4731 -0.9468
   75CHL1  H21B 8010   4.693   4.205   7.627 -0.7402  0.6627  0.3289
   75CHL1  H21C 8011   4.819   4.206   7.762  2.1267  0.9222  0.1722
   75CHL1   C22 8012   4.622   4.364   7.854  0.3037 -0.3992  0.2350
   75CHL1  H22A 8013   4.570   4.459   7.881 -3.1238 -2.0490 -0.2976
   75CHL1  H22B 8014   4.540   4.289   7.854  1.3090 -1.5090  0.0401
   75CHL1   C23 8015   4.719   4.324   7.972  0.2758  0.5358 -0.0451
   75CHL1  H23A 8016   4.759   4.221   7.961 -3.9155 -1.1401 -0.5353
   75CHL1  H23B 8017   4.809   4.389   7.979  1.2375 -0.7412 -0.4126
   75CHL1   C24 8018   4.643   4.335   8.104 -0.4596  0.4102  0.0533
   75CHL1  H24A 8019   4.580   4.426   8.096 -0.2392  0.7107  1.5827
   75CHL1  H24B 8020   4.579   4.244   8.114 -1.1124  0.9286  0.6174
   75CHL1   C25 8021   4.736   4.340   8.233  0.0037 -0.4583  0.8587
   75CHL1   H25 8022   4.829   4.389   8.198  1.4336 -2.2659  2.0301
   75CHL1   C26 8023   4.674   4.428   8.344 -0.4256  0.1614  0.3056
   75CHL1  H26A 8024   4.737   4.440   8.436 -1.9987  2.8755  1.1081
   75CHL1  H26B 8025   4.648   4.531   8.310  0.8878  0.8842  1.4130
   75CHL1  H26C 8026   4.577   4.382   8.371  0.5946 -1.0949  1.9691
   75CHL1   C27 8027   4.763   4.195   8.276  0.2756 -0.0398  0.0884
   75CHL1  H27A 8028   4.847   4.187   8.348 -0.8981 -0.9427  1.3881
   75CHL1  H27B 8029   4.680   4.145   8.331  1.2762 -0.3507  1.3424
   75CHL1  H27C 8030   4.791   4.131   8.190  0.2881  2.2433 -1.6692
   76CHL1    C3 8031   1.366   6.616   7.344  0.1686 -0.0814  0.0217
   76CHL1    H3 8032   1.368   6.507   7.364  2.8182  0.0920  1.0358
   76CHL1    O3 8033   1.360   6.634   7.203  0.4071  0.0526  0.2999
   76CHL1   H3' 8034   1.348   6.544   7.173  1.7356  0.2432 -0.8250
   76CHL1    C4 8035   1.236   6.667   7.415  0.7838 -0.4976 -0.2116
   76CHL1   H4A 8036   1.221   6.773   7.385  1.1681 -0.0453  1.1474
   76CHL1   H4B 8037   1.147   6.611   7.377  0.0662 -0.4149  1.3212
   76CHL1    C5 8038   1.243   6.659   7.564 -0.2812  0.7977  0.1466
   76CHL1    C6 8039   1.155   6.590   7.649 -0.0039 -0.5542  0.5358
   76CHL1    H6 8040   1.066   6.551   7.598  0.3953 -0.7231 -0.0303
   76CHL1    C7 8041   1.156   6.597   7.801 -0.7749 -0.5499 -0.0857
   76CHL1   H7A 8042   1.051   6.603   7.837 -0.4772  1.0239  0.5461
   76CHL1   H7B 8043   1.203   6.503   7.837 -0.3622 -0.3758 -0.1602
   76CHL1    C8 8044   1.251   6.707   7.851  0.0243  0.3625  0.2298
   76CHL1    H8 8045   1.215   6.812   7.846 -0.2405  0.2496 -0.2534
   76CHL1   C14 8046   1.285   6.682   7.998 -0.4785  0.1413  0.2609
   76CHL1   H14 8047   1.340   6.586   8.003 -0.2202  0.2149 -0.9532
   76CHL1   C15 8048   1.168   6.654   8.094 -0.7100 -0.1956  1.0141
   76CHL1  H15A 8049   1.090   6.729   8.067 -1.9382 -2.0313 -0.6101
   76CHL1  H15B 8050   1.136   6.548   8.086  0.5523 -0.5637  0.8753
   76CHL1   C16 8051   1.228   6.679   8.226  0.6918  1.2837 -0.6231
   76CHL1  H16A 8052   1.174   6.749   8.293  1.3932 -1.0481  2.4949
   76CHL1  H16B 8053   1.236   6.587   8.287 -0.2275  2.2159  0.9294
   76CHL1   C17 8054   1.377   6.727   8.204 -0.3436 -0.7663 -1.0344
   76CHL1   H17 8055   1.447   6.640   8.207  0.6714  0.0889  2.9378
   76CHL1   C13 8056   1.380   6.785   8.063 -0.0458  0.1278  0.1360
   76CHL1   C18 8057   1.318   6.925   8.056 -0.1167  0.5981  0.7762
   76CHL1  H18A 8058   1.212   6.908   8.084 -0.3557 -0.5998 -0.7522
   76CHL1  H18B 8059   1.362   7.008   8.114  3.1971  0.2355 -1.0301
   76CHL1  H18C 8060   1.322   6.969   7.954  2.0817  1.9415  1.4173
   76CHL1   C12 8061   1.512   6.766   7.995  0.2456 -0.2813 -0.0615
   76CHL1  H12A 8062   1.597   6.832   8.024 -0.5772  0.9903 -0.4790
   76CHL1  H12B 8063   1.549   6.662   7.999 -0.2447 -0.4255  0.7764
   76CHL1   C11 8064   1.497   6.790   7.843 -0.5482  0.2585  0.0573
   76CHL1  H11A 8065   1.482   6.900   7.836  2.7704  0.7055 -0.9214
   76CHL1  H11B 8066   1.593   6.768   7.792 -0.6557  1.8752 -0.8616
   76CHL1    C9 8067   1.382   6.702   7.771  0.5485 -0.2672 -0.5920
   76CHL1    H9 8068   1.408   6.595   7.781  0.8421  0.0339  2.3891
   76CHL1   C10 8069   1.366   6.732   7.623  0.4319 -0.2633 -0.0782
   76CHL1   C19 8070   1.343   6.889   7.597  0.3111  0.4581  0.0670
   76CHL1  H19A 8071   1.317   6.912   7.491  2.8909  0.4863 -0.5991
   76CHL1  H19B 8072   1.269   6.952   7.651 -0.9030 -1.1662  0.3149
   76CHL1  H19C 8073   1.440   6.942   7.610  0.0484  0.3483  2.8868
   76CHL1    C1 8074   1.489   6.676   7.543 -0.1479  0.0632 -0.5337
   76CHL1   H1A 8075   1.575   6.728   7.590 -1.9523  0.8005  2.0193
   76CHL1   H1B 8076   1.517   6.572   7.571  0.3829  1.2389  3.6714
   76CHL1    C2 8077   1.487   6.686   7.395 -0.4508  0.0482 -0.6565
   76CHL1   H2A 8078   1.579   6.646   7.347 -0.7234  0.2111 -1.3326
   76CHL1   H2B 8079   1.484   6.792   7.363  2.3093  0.3695  0.0508
   76CHL1   C20 8080   1.414   6.827   8.320  0.4763 -0.1639  0.5696
   76CHL1   H20 8081   1.346   6.914   8.309  0.2673 -0.3521  0.3685
   76CHL1   C21 8082   1.561   6.880   8.306 -0.1456  0.3032  0.3233
   76CHL1  H21A 8083   1.576   6.959   8.383  1.5236 -0.6328  0.9962
   76CHL1  H21B 8084   1.581   6.920   8.204 -0.8189  0.1742  0.1393
   76CHL1  H21C 8085   1.625   6.790   8.317  0.5523  0.6297 -0.9733
   76CHL1   C22 8086   1.391   6.760   8.454 -0.6474  0.3343 -0.3663
   76CHL1  H22A 8087   1.282   6.749   8.473 -0.9907  0.5851 -2.1029
   76CHL1  H22B 8088   1.447   6.664   8.448  2.5355  2.1166 -0.2570
   76CHL1   C23 8089   1.443   6.834   8.583 -0.1615 -0.1796  0.6872
   76CHL1  H23A 8090   1.552   6.849   8.587 -0.1159 -0.4763  0.6019
   76CHL1  H23B 8091   1.401   6.936   8.570 -0.4601 -0.5747 -1.7726
   76CHL1   C24 8092   1.386   6.780   8.711  0.1097 -0.3702  0.0789
   76CHL1  H24A 8093   1.275   6.786   8.716  0.2173  2.2430 -0.1939
   76CHL1  H24B 8094   1.410   6.672   8.717  1.7367 -0.1365 -1.6542
   76CHL1   C25 8095   1.444   6.843   8.835  0.6423  0.6907  0.3177
   76CHL1   H25 8096   1.554   6.828   8.829  0.4020 -2.0342  2.0361
   76CHL1   C26 8097   1.415   6.988   8.848  0.3015  0.6483 -0.0427
   76CHL1  H26A 8098   1.456   7.051   8.766  3.5434  0.6732  1.5334
   76CHL1  H26B 8099   1.306   7.014   8.847 -0.0019 -0.5892  0.3943
   76CHL1  H26C 8100   1.452   7.022   8.947 -0.7757 -1.3738  1.0880
   76CHL1   C27 8101   1.399   6.761   8.959  0.5211 -0.5008  0.1592
   76CHL1  H27A 8102   1.457   6.805   9.043  0.8337  0.2298 -0.4331
   76CHL1  H27B 8103   1.289   6.771   8.975  0.4575  0.5253 -0.9098
   76CHL1  H27C 8104   1.426   6.653   8.950 -0.2567 -0.5590 -1.8100
   77CHL1    C3 8105   2.346   4.358   6.935 -0.1475 -0.6651  0.0888
   77CHL1    H3 8106   2.429   4.433   6.934 -0.0526 -0.7356  2.0392
   77CHL1    O3 8107   2.286   4.366   6.809  0.2537  0.0567 -0.5570
   77CHL1   H3' 8108   2.227   4.291   6.801 -1.0384  1.1148 -1.0674
   77CHL1    C4 8109   2.412   4.221   6.946 -0.6262  0.3193  0.5716
   77CHL1   H4A 8110   2.333   4.150   6.915 -0.9971  0.2777  1.6032
   77CHL1   H4B 8111   2.499   4.220   6.877 -0.0267 -0.3032  1.3308
   77CHL1    C5 8112   2.466   4.186   7.085 -0.3828 -0.4455 -0.5705
   77CHL1    C6 8113   2.597   4.157   7.098 -0.2881 -0.0339  0.2086
   77CHL1    H6 8114   2.656   4.150   7.006 -0.3081  0.4191  0.1616
   77CHL1    C7 8115   2.663   4.136   7.236  0.2420 -0.8514  0.2950
   77CHL1   H7A 8116   2.745   4.062   7.223 -0.1653 -1.3202  0.3586
   77CHL1   H7B 8117   2.711   4.230   7.270 -0.3159 -0.4908  0.0952
   77CHL1    C8 8118   2.553   4.090   7.347 -0.2551 -0.5351 -1.3817
   77CHL1    H8 8119   2.512   3.992   7.316 -0.1431 -0.6940 -1.0403
   77CHL1   C14 8120   2.617   4.095   7.485  0.2560  0.3932 -0.1737
   77CHL1   H14 8121   2.651   4.198   7.509  0.6653  0.6340 -1.7333
   77CHL1   C15 8122   2.744   4.011   7.513 -0.4526 -0.4212  0.2683
   77CHL1  H15A 8123   2.748   3.917   7.453 -0.6871 -0.2089 -0.0851
   77CHL1  H15B 8124   2.831   4.071   7.480  0.6097 -2.4740 -0.7477
   77CHL1   C16 8125   2.739   3.985   7.665  0.2221 -0.8826  0.3015
   77CHL1  H16A 8126   2.721   3.876   7.673 -0.5820 -0.7352  0.5295
   77CHL1  H16B 8127   2.834   4.009   7.717 -0.3368 -1.0714  1.4365
   77CHL1   C17 8128   2.607   4.049   7.724 -0.1295 -0.7506  0.2546
   77CHL1   H17 8129   2.629   4.155   7.751 -0.4241 -0.6540  0.1103
   77CHL1   C13 8130   2.519   4.067   7.596  0.3027  0.5405 -0.6212
   77CHL1   C18 8131   2.432   3.935   7.582  0.3030 -0.7105  0.0787
   77CHL1  H18A 8132   2.339   3.938   7.642 -0.3604 -1.8291 -0.8783
   77CHL1  H18B 8133   2.398   3.920   7.477 -1.5132  1.9194  0.2117
   77CHL1  H18C 8134   2.488   3.848   7.622 -0.3803 -1.0516  0.2898
   77CHL1   C12 8135   2.420   4.177   7.598  0.5612 -0.7265 -0.1969
   77CHL1  H12A 8136   2.349   4.146   7.678  1.3830  1.0240  1.2635
   77CHL1  H12B 8137   2.464   4.277   7.616 -1.8002  0.4373 -0.8077
   77CHL1   C11 8138   2.342   4.196   7.465  0.0737  0.5552  1.3569
   77CHL1  H11A 8139   2.269   4.114   7.472 -0.0607  0.2514 -2.7100
   77CHL1  H11B 8140   2.276   4.285   7.469  0.2123  0.9073 -2.6570
   77CHL1    C9 8141   2.444   4.198   7.349 -0.2921  0.0556  0.6649
   77CHL1    H9 8142   2.500   4.293   7.363  1.5429 -0.7773 -0.9157
   77CHL1   C10 8143   2.374   4.216   7.206 -0.0402  1.0580  0.2179
   77CHL1   C19 8144   2.267   4.103   7.194 -0.3855  0.0848 -0.0794
   77CHL1  H19A 8145   2.226   4.109   7.091  1.4131 -3.0396 -1.0492
   77CHL1  H19B 8146   2.317   4.004   7.198 -0.1076  0.2168 -0.3126
   77CHL1  H19C 8147   2.181   4.103   7.265  1.0003 -3.5575  1.7492
   77CHL1    C1 8148   2.301   4.353   7.191 -0.0387  0.2632  0.1877
   77CHL1   H1A 8149   2.207   4.347   7.250 -1.7766 -2.6909 -2.7078
   77CHL1   H1B 8150   2.372   4.437   7.211 -0.1772  0.1822  1.0154
   77CHL1    C2 8151   2.248   4.375   7.051  0.2208  0.2160 -0.1245
   77CHL1   H2A 8152   2.204   4.476   7.041  0.0467 -0.0819 -2.9152
   77CHL1   H2B 8153   2.158   4.316   7.026 -0.8767  1.6704  0.3597
   77CHL1   C20 8154   2.563   3.968   7.851  0.0857 -0.2849 -0.0828
   77CHL1   H20 8155   2.533   3.864   7.829  1.0694 -0.2546 -1.6355
   77CHL1   C21 8156   2.448   4.040   7.915  0.8250 -0.1462  0.0292
   77CHL1  H21A 8157   2.360   4.054   7.848 -0.1832 -0.8717  1.1618
   77CHL1  H21B 8158   2.478   4.142   7.943  1.9063  0.1285 -2.0139
   77CHL1  H21C 8159   2.406   3.983   8.000  1.9655 -2.6767 -1.0358
   77CHL1   C22 8160   2.670   3.948   7.962 -0.8722 -0.1248 -0.2532
   77CHL1  H22A 8161   2.765   3.913   7.916 -1.5126 -1.5249 -0.5384
   77CHL1  H22B 8162   2.682   4.046   8.013 -0.0228 -1.2270  1.7491
   77CHL1   C23 8163   2.626   3.847   8.067 -0.5968 -0.0760 -0.5331
   77CHL1  H23A 8164   2.516   3.841   8.082 -0.5311  0.1301  0.0234
   77CHL1  H23B 8165   2.656   3.751   8.019  1.9493  0.9731 -1.1092
   77CHL1   C24 8166   2.708   3.870   8.198  0.2778 -0.7755  0.0070
   77CHL1  H24A 8167   2.813   3.875   8.164 -0.8382  1.9231 -3.2645
   77CHL1  H24B 8168   2.683   3.972   8.235  1.6573 -0.5041  0.2037
   77CHL1   C25 8169   2.691   3.778   8.318 -0.6800 -0.3865 -0.0687
   77CHL1   H25 8170   2.786   3.793   8.374 -1.1040 -1.2002  0.8703
   77CHL1   C26 8171   2.568   3.815   8.406 -0.6056  0.0168  0.0564
   77CHL1  H26A 8172   2.563   3.745   8.492 -0.6013 -0.5091 -0.3679
   77CHL1  H26B 8173   2.582   3.920   8.441  0.4150  0.4413 -1.5229
   77CHL1  H26C 8174   2.471   3.814   8.352  0.0147  1.1136 -1.1200
   77CHL1   C27 8175   2.695   3.631   8.275  0.1018  0.3382 -0.5234
   77CHL1  H27A 8176   2.660   3.563   8.357 -0.5992 -0.3141 -1.3478
   77CHL1  H27B 8177   2.625   3.609   8.191 -0.4195  0.3444 -0.0979
   77CHL1  H27C 8178   2.798   3.595   8.254  0.9227  2.4175 -0.1265
   78CHL1    C3 8179   4.386   6.506   6.758 -0.5234 -0.2687  0.3413
   78CHL1    H3 8180   4.307   6.430   6.778  1.0803 -1.7592  1.1346
   78CHL1    O3 8181   4.338   6.577   6.646 -0.0362  0.4165 -0.0250
   78CHL1   H3' 8182   4.271   6.520   6.609  0.7094  0.2171 -1.1033
   78CHL1    C4 8183   4.405   6.593   6.876  0.3513  0.1596 -0.3958
   78CHL1   H4A 8184   4.471   6.679   6.851 -0.6532  1.1435  0.2588
   78CHL1   H4B 8185   4.310   6.640   6.910 -0.8262 -1.6274 -1.1786
   78CHL1    C5 8186   4.468   6.533   7.000 -0.7441  0.5467  0.2778
   78CHL1    C6 8187   4.395   6.530   7.113  0.2860 -0.3829  0.0585
   78CHL1    H6 8188   4.295   6.575   7.126  0.5324 -0.4110  2.1103
   78CHL1    C7 8189   4.442   6.459   7.236  0.3311 -0.4150 -0.1080
   78CHL1   H7A 8190   4.425   6.520   7.327  1.8942  0.0251 -0.1034
   78CHL1   H7B 8191   4.382   6.366   7.239 -0.4918  0.0957 -0.4011
   78CHL1    C8 8192   4.596   6.429   7.240  0.1107  0.0758  0.0733
   78CHL1    H8 8193   4.640   6.530   7.257 -4.2211  2.0574  0.3110
   78CHL1   C14 8194   4.627   6.326   7.348 -0.0217  0.4861 -0.0570
   78CHL1   H14 8195   4.567   6.238   7.318 -1.5026  1.0914  1.0785
   78CHL1   C15 8196   4.580   6.343   7.496 -0.1612  0.2634 -0.5379
   78CHL1  H15A 8197   4.608   6.450   7.510 -1.2363  0.3342  1.1491
   78CHL1  H15B 8198   4.475   6.316   7.520 -0.7340  1.5631 -1.5109
   78CHL1   C16 8199   4.676   6.254   7.582 -0.4233  0.9169  0.0121
   78CHL1  H16A 8200   4.721   6.324   7.655 -1.6484  1.4741  0.2575
   78CHL1  H16B 8201   4.630   6.177   7.647  0.7307  0.3848  0.2119
   78CHL1   C17 8202   4.779   6.193   7.484 -0.1380 -0.1343 -0.1014
   78CHL1   H17 8203   4.724   6.100   7.460  1.0536 -0.5163 -1.4180
   78CHL1   C13 8204   4.772   6.279   7.356  0.0559 -0.4321 -0.4715
   78CHL1   C18 8205   4.851   6.410   7.393  0.3858 -0.1629  0.8116
   78CHL1  H18A 8206   4.838   6.431   7.501 -4.6055  2.0179 -0.0983
   78CHL1  H18B 8207   4.958   6.388   7.370 -0.0296 -1.7513  0.3061
   78CHL1  H18C 8208   4.815   6.497   7.335 -0.8495 -0.0962  1.6572
   78CHL1   C12 8209   4.812   6.217   7.226  0.2918  0.5502 -0.5036
   78CHL1  H12A 8210   4.923   6.214   7.216  0.1989  0.7274 -1.6493
   78CHL1  H12B 8211   4.770   6.116   7.209  1.4901 -0.1916  0.9431
   78CHL1   C11 8212   4.782   6.313   7.101  0.4447 -0.1685 -0.5287
   78CHL1  H11A 8213   4.855   6.394   7.120 -0.3459  0.7442 -1.3255
   78CHL1  H11B 8214   4.805   6.253   7.010  1.6253  1.5416 -1.3900
   78CHL1    C9 8215   4.637   6.367   7.105  0.0991 -0.2649  0.5692
   78CHL1    H9 8216   4.573   6.276   7.100  0.8863 -0.7099 -2.1599
   78CHL1   C10 8217   4.596   6.451   6.983  0.0413  0.0481  0.0390
   78CHL1   C19 8218   4.710   6.555   6.958 -0.0466 -1.1046  0.0734
   78CHL1  H19A 8219   4.729   6.628   7.040  0.7408 -0.8650 -0.3183
   78CHL1  H19B 8220   4.797   6.494   6.926 -0.1955 -1.3316  0.1022
   78CHL1  H19C 8221   4.691   6.627   6.876 -1.4588 -0.0763  1.2770
   78CHL1    C1 8222   4.567   6.363   6.858  0.0170 -0.0211 -0.4633
   78CHL1   H1A 8223   4.665   6.313   6.841  0.1794  0.4826 -1.0387
   78CHL1   H1B 8224   4.506   6.274   6.884  0.6128 -0.5005 -0.6798
   78CHL1    C2 8225   4.517   6.430   6.726 -0.2245  0.3177  0.1174
   78CHL1   H2A 8226   4.505   6.355   6.645 -0.0333  1.2420 -0.7597
   78CHL1   H2B 8227   4.598   6.498   6.693  1.1893 -0.6505  1.4765
   78CHL1   C20 8228   4.912   6.159   7.554 -0.1326 -0.1954  0.2163
   78CHL1   H20 8229   4.960   6.253   7.589 -0.0847  0.4757 -1.5933
   78CHL1   C21 8230   5.004   6.091   7.454 -0.5646  0.4732  0.2126
   78CHL1  H21A 8231   5.100   6.057   7.500 -0.4355 -0.4276 -0.7059
   78CHL1  H21B 8232   5.041   6.149   7.367  1.3397 -1.5656 -0.3756
   78CHL1  H21C 8233   4.964   5.994   7.418 -1.1792  0.3334  1.2583
   78CHL1   C22 8234   4.899   6.073   7.682  1.0367 -0.0631  0.2019
   78CHL1  H22A 8235   4.862   6.141   7.762  1.7255 -0.2191  0.6580
   78CHL1  H22B 8236   4.821   6.000   7.652 -0.6693  0.7641  2.5059
   78CHL1   C23 8237   5.024   5.998   7.728  0.1456 -0.7653  0.4174
   78CHL1  H23A 8238   5.045   5.919   7.653 -0.7468 -1.7245  1.1568
   78CHL1  H23B 8239   5.110   6.068   7.730 -2.2127  2.3109 -0.9136
   78CHL1   C24 8240   5.008   5.935   7.865 -0.3507  0.2266 -0.1295
   78CHL1  H24A 8241   4.933   5.853   7.854  0.8832 -0.9902  0.4322
   78CHL1  H24B 8242   5.106   5.893   7.898  0.3206  2.2485  0.5102
   78CHL1   C25 8243   4.976   6.025   7.985  0.3687  0.2898  0.0465
   78CHL1   H25 8244   4.909   6.106   7.950  0.0543 -0.3468 -0.8433
   78CHL1   C26 8245   4.918   5.947   8.102 -0.8182  0.0812  0.1608
   78CHL1  H26A 8246   4.977   5.855   8.119  1.3459  0.7131 -3.4267
   78CHL1  H26B 8247   4.909   6.009   8.193  0.2465  1.2808 -0.5321
   78CHL1  H26C 8248   4.817   5.905   8.078 -0.4793 -1.1047  0.7750
   78CHL1   C27 8249   5.114   6.090   8.037  0.6004  0.2751  0.1009
   78CHL1  H27A 8250   5.183   6.008   8.067  2.8821  2.8576  2.1922
   78CHL1  H27B 8251   5.156   6.155   7.958 -0.1127  1.3952  0.6261
   78CHL1  H27C 8252   5.088   6.155   8.124  0.3574 -1.2607  1.1902
   79CHL1    C3 8253   2.522   6.649   7.213 -0.4632 -0.3594  0.5599
   79CHL1    H3 8254   2.574   6.742   7.245 -1.6862  0.2117  0.8895
   79CHL1    O3 8255   2.499   6.659   7.072  0.0400 -0.8447  0.1593
   79CHL1   H3' 8256   2.434   6.594   7.045  0.3895 -1.2828  0.3758
   79CHL1    C4 8257   2.596   6.520   7.236 -0.0747  0.3983  0.6988
   79CHL1   H4A 8258   2.531   6.434   7.207  1.3859 -0.7172  0.7052
   79CHL1   H4B 8259   2.687   6.526   7.173 -1.3970  2.0651 -1.1126
   79CHL1    C5 8260   2.631   6.507   7.385  0.2669 -0.1365  0.0544
   79CHL1    C6 8261   2.759   6.509   7.428  0.5014  0.0353 -0.4494
   79CHL1    H6 8262   2.842   6.523   7.357  0.3343  1.1191 -0.4326
   79CHL1    C7 8263   2.800   6.492   7.577 -0.0816  0.3424  0.6460
   79CHL1   H7A 8264   2.885   6.421   7.592 -1.7949 -2.0441 -0.5147
   79CHL1   H7B 8265   2.850   6.583   7.616 -0.6300  0.5507  0.8593
   79CHL1    C8 8266   2.681   6.447   7.665  0.5752 -0.5943 -0.7338
   79CHL1    H8 8267   2.664   6.338   7.654  1.9062 -0.8788 -0.0752
   79CHL1   C14 8268   2.716   6.477   7.816  0.2008  0.1841  0.1723
   79CHL1   H14 8269   2.745   6.584   7.806  3.2144 -0.5082  0.8421
   79CHL1   C15 8270   2.846   6.412   7.862  0.3414  0.0143 -0.4005
   79CHL1  H15A 8271   2.861   6.305   7.835 -2.4791 -0.7534  0.9379
   79CHL1  H15B 8272   2.925   6.476   7.816  0.3956  1.0220  1.0440
   79CHL1   C16 8273   2.832   6.439   8.016 -0.2276 -0.4356  0.0204
   79CHL1  H16A 8274   2.851   6.344   8.072 -0.4298  0.4258  1.5783
   79CHL1  H16B 8275   2.896   6.520   8.058  0.7979 -1.8098  1.1941
   79CHL1   C17 8276   2.687   6.488   8.043 -0.1385 -0.0086 -0.3538
   79CHL1   H17 8277   2.696   6.599   8.037  3.6016 -0.1735  0.8779
   79CHL1   C13 8278   2.607   6.459   7.920 -0.2301  0.7786  0.1058
   79CHL1   C18 8279   2.561   6.310   7.926  0.1208 -0.4517  0.3854
   79CHL1  H18A 8280   2.539   6.284   7.821  1.3335  2.4042 -0.6285
   79CHL1  H18B 8281   2.633   6.237   7.969  2.5040 -0.0464 -2.7347
   79CHL1  H18C 8282   2.469   6.301   7.988  0.9120  0.6312  1.7646
   79CHL1   C12 8283   2.489   6.551   7.880 -0.0283 -0.5514  0.3730
   79CHL1  H12A 8284   2.404   6.526   7.948 -1.5212 -0.7281 -1.5157
   79CHL1  H12B 8285   2.516   6.656   7.900  0.5585 -0.2727 -1.7921
   79CHL1   C11 8286   2.448   6.522   7.729  0.3298  0.3065 -0.1455
   79CHL1  H11A 8287   2.396   6.424   7.733 -0.3970  0.7542  2.1000
   79CHL1  H11B 8288   2.375   6.598   7.695  0.3314 -0.1255 -1.1342
   79CHL1    C9 8289   2.561   6.536   7.626 -0.3499  0.3465 -0.6592
   79CHL1    H9 8290   2.605   6.638   7.627 -1.2271  0.7460 -2.5162
   79CHL1   C10 8291   2.517   6.510   7.481  0.4410 -0.1963  0.9405
   79CHL1   C19 8292   2.437   6.375   7.472  0.1274  0.1077 -0.6185
   79CHL1  H19A 8293   2.350   6.374   7.542 -0.5379  1.3726 -1.4206
   79CHL1  H19B 8294   2.409   6.346   7.369 -1.0107 -0.7003 -0.0912
   79CHL1  H19C 8295   2.495   6.289   7.512  0.2682  0.3081 -0.3906
   79CHL1    C1 8296   2.424   6.627   7.441  0.2424  0.1611 -0.5823
   79CHL1   H1A 8297   2.331   6.636   7.500  0.1285  1.1500 -0.9007
   79CHL1   H1B 8298   2.459   6.727   7.474  0.3758  0.2817 -1.0730
   79CHL1    C2 8299   2.392   6.640   7.289 -0.5194  0.3192 -0.1675
   79CHL1   H2A 8300   2.328   6.729   7.269 -1.8222 -0.5407  0.0819
   79CHL1   H2B 8301   2.334   6.552   7.254  0.4511 -0.6166  0.5895
   79CHL1   C20 8302   2.647   6.444   8.188 -0.0754 -0.2881 -0.1817
   79CHL1   H20 8303   2.637   6.333   8.192  2.6507 -0.5206  1.1751
   79CHL1   C21 8304   2.510   6.523   8.200  0.1581  0.1881 -0.2081
   79CHL1  H21A 8305   2.422   6.463   8.168  1.0047 -2.9280  2.9537
   79CHL1  H21B 8306   2.512   6.625   8.157 -1.6946  0.8243  1.1502
   79CHL1  H21C 8307   2.494   6.528   8.310 -1.7920  0.1003 -0.4748
   79CHL1   C22 8308   2.753   6.463   8.294 -0.6008  0.4430  0.0302
   79CHL1  H22A 8309   2.848   6.409   8.273  0.5310  2.3079  0.2836
   79CHL1  H22B 8310   2.774   6.571   8.306 -0.5397  0.1842  2.5413
   79CHL1   C23 8311   2.705   6.405   8.433 -0.5455  0.2132  0.5525
   79CHL1  H23A 8312   2.611   6.458   8.459 -1.8873 -0.4077 -2.7680
   79CHL1  H23B 8313   2.692   6.296   8.414  3.3817 -0.2187 -0.0082
   79CHL1   C24 8314   2.812   6.406   8.542  0.1757  0.0466 -0.4312
   79CHL1  H24A 8315   2.898   6.348   8.502 -0.6002 -0.3521 -1.5587
   79CHL1  H24B 8316   2.842   6.512   8.555  1.7809 -0.5947  1.3520
   79CHL1   C25 8317   2.774   6.348   8.680  0.0143  0.1302 -0.3818
   79CHL1   H25 8318   2.702   6.266   8.661 -2.0371  1.9681 -0.7638
   79CHL1   C26 8319   2.897   6.292   8.753 -0.3503  0.0470  0.1422
   79CHL1  H26A 8320   2.983   6.361   8.760 -0.2716 -0.1088  0.7378
   79CHL1  H26B 8321   2.867   6.255   8.853 -3.6962 -1.2133 -1.2600
   79CHL1  H26C 8322   2.942   6.213   8.690 -0.2767  0.2674 -0.0777
   79CHL1   C27 8323   2.706   6.448   8.772  0.2035 -0.2695  0.0616
   79CHL1  H27A 8324   2.782   6.520   8.810 -0.9071  0.4636  0.9612
   79CHL1  H27B 8325   2.617   6.495   8.725  0.3855 -0.6661 -0.6830
   79CHL1  H27C 8326   2.674   6.396   8.865 -0.9780 -0.7982 -0.6410
   80CHL1    C3 8327   0.968   3.261   7.004  0.6127  0.3000 -0.2004
   80CHL1    H3 8328   0.945   3.369   6.992 -0.0851  0.1405 -0.2896
   80CHL1    O3 8329   0.981   3.212   6.873  0.1777  0.2311  0.2789
   80CHL1   H3' 8330   1.062   3.162   6.867  1.6528  2.6644 -1.2793
   80CHL1    C4 8331   1.097   3.234   7.073 -0.0932 -0.1746 -0.3815
   80CHL1   H4A 8332   1.129   3.128   7.064 -0.1484 -0.1496 -0.8461
   80CHL1   H4B 8333   1.167   3.297   7.014 -1.0171  0.4780 -0.7896
   80CHL1    C5 8334   1.101   3.285   7.214 -0.3901 -0.3390  0.2271
   80CHL1    C6 8335   1.192   3.377   7.260 -0.0009 -0.3155 -0.2621
   80CHL1    H6 8336   1.281   3.401   7.200  0.9726 -2.8036  0.0968
   80CHL1    C7 8337   1.194   3.404   7.410 -0.3724  0.6189  0.0835
   80CHL1   H7A 8338   1.295   3.400   7.457  0.7964 -0.2104 -2.4708
   80CHL1   H7B 8339   1.167   3.512   7.412 -1.1709  0.4244  2.6112
   80CHL1    C8 8340   1.101   3.323   7.497 -0.4774 -0.2998 -0.6579
   80CHL1    H8 8341   1.134   3.220   7.522 -4.0069 -1.0317  1.2764
   80CHL1   C14 8342   1.088   3.389   7.632  0.0206  0.2669  0.6631
   80CHL1   H14 8343   1.039   3.487   7.616  1.9366  0.9317 -1.3448
   80CHL1   C15 8344   1.216   3.420   7.706  0.2716  0.7002  0.3754
   80CHL1  H15A 8345   1.284   3.335   7.684  0.4202  0.7516  0.6425
   80CHL1  H15B 8346   1.275   3.504   7.664  1.7133  1.1495  3.1875
   80CHL1   C16 8347   1.168   3.455   7.843 -0.4472  0.1623  0.4494
   80CHL1  H16A 8348   1.220   3.378   7.903 -0.2619 -0.8421 -1.0041
   80CHL1  H16B 8349   1.189   3.558   7.880  1.0795 -0.3093  0.9300
   80CHL1   C17 8350   1.017   3.416   7.856 -0.5994 -0.4462  0.1271
   80CHL1   H17 8351   0.960   3.510   7.841  3.2486  2.2710  1.6393
   80CHL1   C13 8352   0.996   3.325   7.733 -0.1578  0.2617 -0.3129
   80CHL1   C18 8353   1.039   3.178   7.767  0.8358 -0.1186  0.1906
   80CHL1  H18A 8354   1.133   3.170   7.825  0.5581  0.1195  0.6768
   80CHL1  H18B 8355   0.960   3.123   7.823  0.8477 -2.6187 -2.1276
   80CHL1  H18C 8356   1.057   3.123   7.672  1.3360 -0.2143  0.3448
   80CHL1   C12 8357   0.855   3.322   7.665 -0.6641 -0.1935  0.3584
   80CHL1  H12A 8358   0.793   3.260   7.733 -1.2722 -1.2482 -1.1160
   80CHL1  H12B 8359   0.809   3.423   7.658  0.3807  0.2886  0.4374
   80CHL1   C11 8360   0.858   3.249   7.530  0.4271 -0.4846 -0.3590
   80CHL1  H11A 8361   0.885   3.145   7.561  0.6316  0.3237  2.2635
   80CHL1  H11B 8362   0.754   3.250   7.490  0.1585 -1.0298  0.3171
   80CHL1    C9 8363   0.962   3.310   7.432 -0.2424 -0.2994 -0.2087
   80CHL1    H9 8364   0.932   3.414   7.405  1.7320  0.1833 -0.6288
   80CHL1   C10 8365   0.980   3.243   7.295  0.3621  0.6389 -0.0559
   80CHL1   C19 8366   1.003   3.088   7.323  0.8324 -0.4643  0.9623
   80CHL1  H19A 8367   1.096   3.085   7.383  0.3507 -1.4754  1.6790
   80CHL1  H19B 8368   0.922   3.037   7.378  0.7484 -2.0603 -0.6005
   80CHL1  H19C 8369   1.008   3.030   7.228  1.9927 -1.1176  1.4239
   80CHL1    C1 8370   0.851   3.254   7.218 -0.2997 -0.4776 -0.4573
   80CHL1   H1A 8371   0.769   3.213   7.281 -1.8134  1.6612 -0.9579
   80CHL1   H1B 8372   0.828   3.363   7.216  2.2395  0.1844  2.4274
   80CHL1    C2 8373   0.852   3.195   7.081  0.2948  1.5209  0.0548
   80CHL1   H2A 8374   0.756   3.218   7.029  0.0718  0.4501 -0.0269
   80CHL1   H2B 8375   0.866   3.084   7.083 -0.5893  1.4185  0.5938
   80CHL1   C20 8376   0.970   3.364   7.996 -0.5705 -0.2440  0.5364
   80CHL1   H20 8377   1.032   3.279   8.032  1.2119  0.5618 -0.5714
   80CHL1   C21 8378   0.830   3.315   7.993  0.2344 -0.0444 -0.3696
   80CHL1  H21A 8379   0.814   3.217   7.944 -1.4102  0.5436 -1.0380
   80CHL1  H21B 8380   0.764   3.390   7.946  0.4754  0.8787  0.7482
   80CHL1  H21C 8381   0.788   3.315   8.096 -0.9555  0.3458 -0.8542
   80CHL1   C22 8382   0.996   3.491   8.092  0.2338 -0.6302 -0.0164
   80CHL1  H22A 8383   1.093   3.545   8.091  0.9901 -1.9667 -1.0773
   80CHL1  H22B 8384   0.914   3.561   8.066 -0.0919 -1.0238 -0.0438
   80CHL1   C23 8385   0.956   3.452   8.242 -0.2781 -0.5232  0.4506
   80CHL1  H23A 8386   0.846   3.462   8.255 -0.0269 -0.0127  2.3508
   80CHL1  H23B 8387   0.971   3.343   8.259 -3.0136 -1.2245 -1.2767
   80CHL1   C24 8388   1.035   3.545   8.342 -0.7562 -0.3211  0.3969
   80CHL1  H24A 8389   1.142   3.533   8.317 -0.5864 -1.1460  1.4778
   80CHL1  H24B 8390   1.007   3.651   8.318  0.2120 -1.1178 -4.9257
   80CHL1   C25 8391   1.018   3.524   8.493  0.3200 -0.7702 -0.3403
   80CHL1   H25 8392   0.908   3.536   8.504  0.2035 -0.1550 -1.9707
   80CHL1   C26 8393   1.068   3.378   8.537  0.1046 -0.2942  0.7358
   80CHL1  H26A 8394   1.058   3.364   8.646 -0.1622 -3.3040  0.3618
   80CHL1  H26B 8395   1.014   3.296   8.486 -2.5734  1.9562 -0.2127
   80CHL1  H26C 8396   1.178   3.367   8.527  0.1818  2.0031 -1.4615
   80CHL1   C27 8397   1.099   3.632   8.565  0.3509 -0.6374  0.4364
   80CHL1  H27A 8398   1.069   3.640   8.672 -0.9815 -0.1602  0.0443
   80CHL1  H27B 8399   1.207   3.610   8.555 -0.1178 -2.2089 -1.6534
   80CHL1  H27C 8400   1.071   3.728   8.517  1.0644 -0.4420  0.4129
   81CHL1    C3 8401   5.527   3.381   6.777  0.3523 -0.2884  0.7129
   81CHL1    H3 8402   5.580   3.288   6.809  1.2545  0.5664  1.7476
   81CHL1    O3 8403   5.584   3.423   6.654  0.6864  0.5662  0.3849
   81CHL1   H3' 8404   5.566   3.517   6.647 -1.9530  0.3329  2.9061
   81CHL1    C4 8405   5.376   3.358   6.771  0.3713 -0.0675  0.4611
   81CHL1   H4A 8406   5.333   3.442   6.712  2.9871  0.7848 -0.3119
   81CHL1   H4B 8407   5.358   3.266   6.711 -2.3328 -0.0571  1.2055
   81CHL1    C5 8408   5.313   3.348   6.905  0.5490 -0.6131  0.0912
   81CHL1    C6 8409   5.248   3.234   6.932  0.1427  0.0656  0.3187
   81CHL1    H6 8410   5.239   3.161   6.850 -1.1007  0.2829  0.2623
   81CHL1    C7 8411   5.174   3.220   7.058  0.4342 -0.2654  0.1820
   81CHL1   H7A 8412   5.076   3.169   7.041  2.0063 -3.3488  0.0486
   81CHL1   H7B 8413   5.242   3.155   7.116  1.5088  1.1509  0.5267
   81CHL1    C8 8414   5.139   3.348   7.137 -0.3166  0.0879 -0.3433
   81CHL1    H8 8415   5.060   3.410   7.090 -0.2750 -1.6857 -2.8897
   81CHL1   C14 8416   5.114   3.304   7.279 -0.4084  0.2891 -0.0429
   81CHL1   H14 8417   5.204   3.246   7.308  0.2337  1.5489  0.5527
   81CHL1   C15 8418   5.002   3.191   7.305 -0.3505 -0.5408 -0.5557
   81CHL1  H15A 8419   4.904   3.233   7.272 -0.0632  0.2926 -0.3760
   81CHL1  H15B 8420   5.020   3.097   7.250  0.9208  0.1345 -1.3260
   81CHL1   C16 8421   5.011   3.188   7.457  0.7760  0.1208  0.3711
   81CHL1  H16A 8422   4.918   3.151   7.506 -0.1512  2.3925  0.4059
   81CHL1  H16B 8423   5.099   3.128   7.485  0.2975  0.2731  2.2324
   81CHL1   C17 8424   5.052   3.334   7.498  0.7543  0.2512 -0.1473
   81CHL1   H17 8425   5.143   3.328   7.561  0.1170 -2.6705  0.5747
   81CHL1   C13 8426   5.085   3.420   7.378  0.5378 -0.3765 -0.9791
   81CHL1   C18 8427   4.959   3.502   7.323 -0.4758 -0.3510  0.1050
   81CHL1  H18A 8428   4.870   3.438   7.305 -1.7855  1.1020  1.2769
   81CHL1  H18B 8429   4.914   3.571   7.397 -1.2034 -0.2547 -0.4322
   81CHL1  H18C 8430   4.989   3.557   7.232  0.6331 -0.7729  0.1989
   81CHL1   C12 8431   5.205   3.517   7.388  0.2373  0.2720  0.6740
   81CHL1  H12A 8432   5.196   3.610   7.448  0.0139  0.2301  0.7061
   81CHL1  H12B 8433   5.285   3.455   7.434 -0.5892 -0.8206  0.6602
   81CHL1   C11 8434   5.254   3.559   7.248  1.3020  0.3292  0.5144
   81CHL1  H11A 8435   5.190   3.643   7.213  1.4239  0.5202  0.7433
   81CHL1  H11B 8436   5.357   3.601   7.260  0.9902  1.1609  0.3254
   81CHL1    C9 8437   5.265   3.443   7.145 -0.2579  0.1760  0.0941
   81CHL1    H9 8438   5.336   3.375   7.196 -0.4389  0.7325  1.0979
   81CHL1   C10 8439   5.331   3.466   7.004 -0.1069 -0.1068  0.1125
   81CHL1   C19 8440   5.276   3.598   6.948 -0.2109 -0.5250 -0.2163
   81CHL1  H19A 8441   5.166   3.601   6.936 -0.0167  0.9468 -1.8245
   81CHL1  H19B 8442   5.303   3.672   7.026  0.5680 -1.4556  0.4027
   81CHL1  H19C 8443   5.318   3.634   6.852  0.5482 -0.7302  0.0356
   81CHL1    C1 8444   5.487   3.476   7.012  0.3567  0.1438 -0.2738
   81CHL1   H1A 8445   5.517   3.562   7.075 -0.7024  1.6908 -1.8608
   81CHL1   H1B 8446   5.526   3.383   7.059  0.2355 -1.3583 -3.0338
   81CHL1    C2 8447   5.560   3.495   6.880  0.0761 -1.1029  0.2836
   81CHL1   H2A 8448   5.667   3.489   6.910  0.3338  0.9039 -0.2043
   81CHL1   H2B 8449   5.541   3.596   6.840 -1.0948 -0.6605  1.9048
   81CHL1   C20 8450   4.947   3.391   7.605  0.7146  0.4894 -0.4044
   81CHL1   H20 8451   4.845   3.394   7.560 -0.1135 -1.4652  1.2876
   81CHL1   C21 8452   4.989   3.530   7.651 -0.1922 -0.3131 -0.2967
   81CHL1  H21A 8453   4.975   3.618   7.584  0.9976 -1.2885 -1.8572
   81CHL1  H21B 8454   5.093   3.527   7.690  0.7559  1.2410 -2.5547
   81CHL1  H21C 8455   4.928   3.558   7.740 -2.4976 -1.7301 -1.3820
   81CHL1   C22 8456   4.943   3.300   7.735  0.0976 -0.3422  0.0154
   81CHL1  H22A 8457   4.963   3.198   7.698  4.1443  0.0369  0.8813
   81CHL1  H22B 8458   5.032   3.330   7.795  1.1404  1.7538 -2.4543
   81CHL1   C23 8459   4.812   3.293   7.817  0.0756  0.8058 -0.0751
   81CHL1  H23A 8460   4.799   3.392   7.866  0.4123  1.5221 -1.4211
   81CHL1  H23B 8461   4.720   3.277   7.757 -0.9249 -0.6711  1.7646
   81CHL1   C24 8462   4.808   3.182   7.924 -0.4533  0.3601 -0.0186
   81CHL1  H24A 8463   4.802   3.077   7.887 -0.1315  0.6313 -0.8519
   81CHL1  H24B 8464   4.906   3.182   7.976 -0.4971  0.5254  0.0630
   81CHL1   C25 8465   4.695   3.190   8.029 -0.2274  0.8061  0.1393
   81CHL1   H25 8466   4.698   3.285   8.087  0.9801  0.9868 -0.2075
   81CHL1   C26 8467   4.557   3.197   7.970  0.2251 -0.1031  0.3174
   81CHL1  H26A 8468   4.520   3.101   7.927 -1.2546 -0.2912  1.9883
   81CHL1  H26B 8469   4.487   3.220   8.053 -0.9886 -3.0603  0.1594
   81CHL1  H26C 8470   4.546   3.269   7.886  1.1140 -2.9961 -2.3955
   81CHL1   C27 8471   4.701   3.072   8.128 -0.1146  0.5278  0.3785
   81CHL1  H27A 8472   4.616   3.060   8.199  0.5550  0.5767  1.1991
   81CHL1  H27B 8473   4.714   2.979   8.068  1.5606  0.7165  0.4405
   81CHL1  H27C 8474   4.795   3.080   8.187  0.1365 -0.1418  0.0703
   82CHL1    C3 8475   6.479   4.094   6.978 -0.3474  0.5955  0.5009
   82CHL1    H3 8476   6.443   4.010   7.042  1.9575 -0.8719 -0.0984
   82CHL1    O3 8477   6.514   4.053   6.854 -0.0308  0.1217 -0.1463
   82CHL1   H3' 8478   6.547   4.131   6.810  0.8456  1.4659  2.7688
   82CHL1    C4 8479   6.363   4.198   6.970  1.2512 -0.8412  0.3968
   82CHL1   H4A 8480   6.381   4.292   6.913 -1.6978 -0.1810  0.4586
   82CHL1   H4B 8481   6.289   4.142   6.909  1.0874 -0.8444  0.5993
   82CHL1    C5 8482   6.325   4.245   7.107 -0.0127  0.1942  0.5309
   82CHL1    C6 8483   6.199   4.236   7.152  0.1824  0.1470 -0.0120
   82CHL1    H6 8484   6.136   4.190   7.075  0.2457 -0.6163  0.3869
   82CHL1    C7 8485   6.148   4.279   7.284 -0.4492  0.9775  0.6133
   82CHL1   H7A 8486   6.058   4.344   7.271  0.8045  2.6499 -0.0083
   82CHL1   H7B 8487   6.127   4.192   7.350 -0.7046 -0.5873 -1.4824
   82CHL1    C8 8488   6.251   4.363   7.358 -0.0460 -0.7556 -0.1942
   82CHL1    H8 8489   6.245   4.469   7.323  1.2290 -0.4466  0.4894
   82CHL1   C14 8490   6.223   4.375   7.504  0.1215  0.3102 -0.4244
   82CHL1   H14 8491   6.232   4.269   7.536 -0.5204 -0.2361 -1.9655
   82CHL1   C15 8492   6.081   4.414   7.546  0.4437 -0.6072  0.2085
   82CHL1  H15A 8493   6.055   4.517   7.514  2.4692 -0.0288  0.3059
   82CHL1  H15B 8494   6.002   4.347   7.505 -1.2315  0.2219  2.0212
   82CHL1   C16 8495   6.085   4.418   7.695 -0.0800  0.4654  0.3449
   82CHL1  H16A 8496   6.039   4.511   7.733  0.8974  1.0788  0.0227
   82CHL1  H16B 8497   6.058   4.323   7.746  1.8311  0.2273  0.9669
   82CHL1   C17 8498   6.240   4.432   7.726  1.0711  0.2355 -0.6581
   82CHL1   H17 8499   6.277   4.330   7.751  0.1808  0.1621  0.4109
   82CHL1   C13 8500   6.313   4.459   7.595  0.2686 -1.1653 -0.1461
   82CHL1   C18 8501   6.302   4.611   7.561  0.2853  0.2418  0.5221
   82CHL1  H18A 8502   6.307   4.621   7.451 -1.5053 -3.1178  0.0732
   82CHL1  H18B 8503   6.209   4.655   7.602  1.1863  0.8473  1.9878
   82CHL1  H18C 8504   6.386   4.671   7.605 -0.0350  2.6528 -2.0466
   82CHL1   C12 8505   6.453   4.403   7.578 -0.0625 -0.2963  0.3998
   82CHL1  H12A 8506   6.521   4.485   7.611 -0.5213  0.6133 -0.8905
   82CHL1  H12B 8507   6.476   4.315   7.643  2.3287  1.1210  1.5742
   82CHL1   C11 8508   6.496   4.381   7.436  0.8274 -0.0105 -0.0470
   82CHL1  H11A 8509   6.517   4.481   7.394 -1.7381  0.8880  0.7020
   82CHL1  H11B 8510   6.594   4.329   7.432  1.4919  1.3322 -1.3691
   82CHL1    C9 8511   6.392   4.309   7.348 -0.0841  0.1223 -0.0659
   82CHL1    H9 8512   6.386   4.202   7.375 -0.6613 -0.4117 -2.2635
   82CHL1   C10 8513   6.437   4.300   7.192  0.5156  0.4713 -0.0944
   82CHL1   C19 8514   6.473   4.442   7.144  0.1752 -0.0422  0.5374
   82CHL1  H19A 8515   6.564   4.481   7.192 -0.2082  2.6384 -0.8340
   82CHL1  H19B 8516   6.484   4.442   7.033  0.5062 -0.4285  0.5699
   82CHL1  H19C 8517   6.385   4.508   7.163  0.5025  0.1824  1.2746
   82CHL1    C1 8518   6.559   4.201   7.186  0.6354  0.4296  0.4389
   82CHL1   H1A 8519   6.647   4.244   7.238  1.9560  0.1749 -1.5187
   82CHL1   H1B 8520   6.524   4.110   7.239 -0.1076  0.0019 -0.7512
   82CHL1    C2 8521   6.595   4.158   7.045  0.0081  0.1378  0.4391
   82CHL1   H2A 8522   6.682   4.090   7.053 -0.6496 -0.8593 -0.6798
   82CHL1   H2B 8523   6.630   4.250   6.995  0.4991  0.7873  1.9335
   82CHL1   C20 8524   6.272   4.513   7.853 -0.2290  0.4344 -0.8503
   82CHL1   H20 8525   6.229   4.615   7.840  3.3839  2.1167 -0.2799
   82CHL1   C21 8526   6.418   4.531   7.888 -0.2177  0.3902 -0.7047
   82CHL1  H21A 8527   6.462   4.596   7.809 -0.2148 -0.4235 -1.3905
   82CHL1  H21B 8528   6.475   4.436   7.883 -4.1463 -2.1453  0.0082
   82CHL1  H21C 8529   6.431   4.586   7.983  0.9568  0.0267 -0.6517
   82CHL1   C22 8530   6.215   4.453   7.981  0.7160 -0.1133 -0.0170
   82CHL1  H22A 8531   6.220   4.526   8.065  0.3977  0.4696 -0.5008
   82CHL1  H22B 8532   6.107   4.432   7.972  0.5034 -0.7186  3.5228
   82CHL1   C23 8533   6.286   4.334   8.045 -0.4750  0.5096  0.1949
   82CHL1  H23A 8534   6.303   4.248   7.976  0.2217  3.2983 -3.2387
   82CHL1  H23B 8535   6.388   4.361   8.080 -2.0169  1.6900  3.9910
   82CHL1   C24 8536   6.211   4.289   8.176 -0.5497 -0.2941  0.1011
   82CHL1  H24A 8537   6.237   4.365   8.254  0.3873 -1.9878  1.4818
   82CHL1  H24B 8538   6.103   4.284   8.151 -0.5875 -2.7337  0.6068
   82CHL1   C25 8539   6.247   4.153   8.242 -0.1076 -0.6517 -0.2469
   82CHL1   H25 8540   6.229   4.069   8.172  0.5762 -0.5957 -0.4860
   82CHL1   C26 8541   6.390   4.160   8.291  0.3514  0.0947  0.8084
   82CHL1  H26A 8542   6.398   4.260   8.339  1.8513  1.1697 -1.5907
   82CHL1  H26B 8543   6.413   4.087   8.371  0.9362  1.5731  2.0178
   82CHL1  H26C 8544   6.456   4.150   8.202  1.3834  0.9715  1.4519
   82CHL1   C27 8545   6.148   4.132   8.358  0.5533  0.5852 -0.0554
   82CHL1  H27A 8546   6.172   4.208   8.436  2.0791  0.5642 -0.4888
   82CHL1  H27B 8547   6.043   4.142   8.325  0.4099  1.2460  0.5797
   82CHL1  H27C 8548   6.159   4.027   8.395  0.9425  1.1101  1.3706
   83CHL1    C3 8549   2.697   5.681   7.042  0.1987  0.0672 -0.6278
   83CHL1    H3 8550   2.801   5.717   7.058  0.2952 -0.1450 -0.7806
   83CHL1    O3 8551   2.664   5.729   6.909  0.7227 -0.5142  0.0551
   83CHL1   H3' 8552   2.568   5.730   6.905  0.7629  0.1322 -0.8103
   83CHL1    C4 8553   2.697   5.524   7.043 -0.0259  0.4566 -0.1222
   83CHL1   H4A 8554   2.598   5.479   7.019 -0.2721  0.9416 -0.0295
   83CHL1   H4B 8555   2.771   5.502   6.964 -0.1822  0.4493 -0.2667
   83CHL1    C5 8556   2.744   5.485   7.181 -0.3351 -0.0961  0.3040
   83CHL1    C6 8557   2.842   5.396   7.193  0.5144 -0.0961 -0.5382
   83CHL1    H6 8558   2.881   5.363   7.096  1.6616 -1.3261  0.3074
   83CHL1    C7 8559   2.888   5.339   7.322 -0.0695  0.0107  0.1155
   83CHL1   H7A 8560   2.896   5.229   7.317  2.3613  0.1780 -0.6154
   83CHL1   H7B 8561   2.987   5.388   7.339  0.7107 -0.8005 -1.8626
   83CHL1    C8 8562   2.794   5.360   7.439 -0.3997  0.4903 -0.6907
   83CHL1    H8 8563   2.712   5.286   7.432  0.3137 -0.6377  2.0063
   83CHL1   C14 8564   2.871   5.340   7.576 -0.1738 -0.8934 -0.3391
   83CHL1   H14 8565   2.956   5.412   7.573  1.9667 -3.3164 -0.5184
   83CHL1   C15 8566   2.938   5.208   7.608  0.3334 -0.3360  0.2122
   83CHL1  H15A 8567   2.883   5.113   7.590 -0.4661  0.5589 -2.3157
   83CHL1  H15B 8568   3.032   5.200   7.549  0.0802 -0.7832 -0.1347
   83CHL1   C16 8569   2.968   5.217   7.763  0.1340  0.1080  0.3532
   83CHL1  H16A 8570   2.945   5.120   7.812  1.4451 -0.0849  0.6229
   83CHL1  H16B 8571   3.073   5.245   7.789  0.0173  0.9013  0.0001
   83CHL1   C17 8572   2.881   5.336   7.815  0.3254 -0.3389 -0.3487
   83CHL1   H17 8573   2.952   5.421   7.814 -0.3470  0.2200 -0.8612
   83CHL1   C13 8574   2.784   5.374   7.702  0.4757  0.0470 -0.2506
   83CHL1   C18 8575   2.656   5.286   7.706  0.3483  0.1571  0.6676
   83CHL1  H18A 8576   2.599   5.294   7.611  0.8942 -2.2406  0.0985
   83CHL1  H18B 8577   2.675   5.176   7.710 -2.8831 -0.4870 -0.1584
   83CHL1  H18C 8578   2.593   5.320   7.791  0.0507  0.0706  0.4832
   83CHL1   C12 8579   2.748   5.522   7.691 -0.0945 -0.1819 -0.6666
   83CHL1  H12A 8580   2.706   5.557   7.788  0.4416  0.4938 -0.6803
   83CHL1  H12B 8581   2.850   5.564   7.699  0.2108 -1.0584  0.1821
   83CHL1   C11 8582   2.674   5.567   7.566 -0.6064 -0.3979 -0.3203
   83CHL1  H11A 8583   2.566   5.543   7.571 -0.5629 -0.0915  2.9616
   83CHL1  H11B 8584   2.673   5.677   7.581 -0.5231 -0.6161  1.2797
   83CHL1    C9 8585   2.743   5.509   7.433 -0.1368 -0.0159  0.2044
   83CHL1    H9 8586   2.844   5.556   7.440 -0.6584  1.0852  0.3689
   83CHL1   C10 8587   2.674   5.546   7.300 -0.5547  0.2332 -0.7413
   83CHL1   C19 8588   2.523   5.505   7.319  0.1028 -0.1924 -0.1201
   83CHL1  H19A 8589   2.464   5.512   7.225 -2.2467  1.7383  1.4335
   83CHL1  H19B 8590   2.504   5.402   7.355  2.2178 -1.5957 -2.7792
   83CHL1  H19C 8591   2.478   5.579   7.388  0.7862  0.4250 -0.3269
   83CHL1    C1 8592   2.677   5.701   7.279  0.0093  0.2942  0.0623
   83CHL1   H1A 8593   2.633   5.755   7.366 -1.4475  0.6141 -0.8551
   83CHL1   H1B 8594   2.783   5.733   7.275  0.0580 -0.0525 -1.8909
   83CHL1    C2 8595   2.612   5.742   7.154 -0.1056 -0.2949  0.0163
   83CHL1   H2A 8596   2.614   5.853   7.149 -1.9081 -0.2293  0.4776
   83CHL1   H2B 8597   2.510   5.702   7.139  0.4682 -1.9604  0.4661
   83CHL1   C20 8598   2.819   5.327   7.958  0.4168 -0.0559 -0.3281
   83CHL1   H20 8599   2.715   5.365   7.948  0.5775 -0.0515 -2.1491
   83CHL1   C21 8600   2.894   5.418   8.062  0.4963  0.2278  0.9062
   83CHL1  H21A 8601   2.877   5.521   8.023  0.1427 -0.5625 -1.1172
   83CHL1  H21B 8602   3.003   5.401   8.077  0.4653 -2.4125 -1.4469
   83CHL1  H21C 8603   2.850   5.421   8.164 -1.2417  0.3269  0.1739
   83CHL1   C22 8604   2.807   5.182   8.014  0.2921 -0.2400 -0.7547
   83CHL1  H22A 8605   2.749   5.122   7.940  0.1348 -1.8290  0.6114
   83CHL1  H22B 8606   2.911   5.143   8.019  0.4905  0.4743  1.1911
   83CHL1   C23 8607   2.740   5.177   8.151  0.4987  0.0998 -0.4701
   83CHL1  H23A 8608   2.806   5.228   8.224 -0.9752  1.0816  0.1797
   83CHL1  H23B 8609   2.652   5.244   8.146  1.0646  0.7637 -1.6012
   83CHL1   C24 8610   2.712   5.031   8.196 -0.6182  0.0285 -0.4168
   83CHL1  H24A 8611   2.645   5.029   8.285  0.3841  0.8091  0.3705
   83CHL1  H24B 8612   2.645   4.991   8.117 -2.5286  0.6712  0.8294
   83CHL1   C25 8613   2.832   4.935   8.232 -0.1126 -1.0273  0.0340
   83CHL1   H25 8614   2.887   4.930   8.136  2.0782 -2.5630  1.3222
   83CHL1   C26 8615   2.928   4.981   8.340 -0.1330 -0.0170 -0.1464
   83CHL1  H26A 8616   2.876   4.977   8.438 -0.1623  0.9123 -0.1157
   83CHL1  H26B 8617   3.025   4.927   8.347 -0.1751  0.0743  1.3750
   83CHL1  H26C 8618   2.960   5.084   8.313 -0.0646 -0.1148 -0.4366
   83CHL1   C27 8619   2.773   4.802   8.263  0.3437  0.4863 -0.4986
   83CHL1  H27A 8620   2.849   4.724   8.286 -0.9310 -0.7390 -0.3621
   83CHL1  H27B 8621   2.713   4.823   8.355 -2.2354  1.8749 -2.4435
   83CHL1  H27C 8622   2.702   4.761   8.188 -0.7428 -0.5861  1.0758
   84CHL1    C3 8623   4.819   1.813   6.885  0.5394  0.7176 -0.8193
   84CHL1    H3 8624   4.710   1.789   6.878  1.0886 -1.1433 -3.5946
   84CHL1    O3 8625   4.874   1.859   6.769  0.3012  0.0865 -0.1315
   84CHL1   H3' 8626   4.884   1.782   6.713  1.8212 -0.2692  0.6044
   84CHL1    C4 8627   4.822   1.936   6.978  0.3855  0.9387 -0.7340
   84CHL1   H4A 8628   4.916   1.994   6.973 -0.1317  1.8892  0.2377
   84CHL1   H4B 8629   4.744   2.000   6.932  0.7901  0.5163 -2.0094
   84CHL1    C5 8630   4.786   1.906   7.118 -0.2095 -0.3206 -0.6303
   84CHL1    C6 8631   4.693   1.981   7.184 -0.5624  0.2160  0.9367
   84CHL1    H6 8632   4.655   2.072   7.136 -3.5994 -1.6302 -0.3064
   84CHL1    C7 8633   4.655   1.969   7.332  0.4679  0.8428  0.7481
   84CHL1   H7A 8634   4.674   2.065   7.385  0.6265  0.9960  0.4218
   84CHL1   H7B 8635   4.545   1.956   7.335  0.5538 -0.6790 -1.6063
   84CHL1    C8 8636   4.727   1.850   7.398 -0.3788 -0.8061  0.2978
   84CHL1    H8 8637   4.831   1.878   7.425  0.0948 -1.7977 -0.4619
   84CHL1   C14 8638   4.652   1.827   7.526 -0.3179  0.3637 -0.3400
   84CHL1   H14 8639   4.549   1.800   7.493 -0.5811  0.0714  0.7031
   84CHL1   C15 8640   4.615   1.949   7.612  0.4632 -0.1979 -0.4830
   84CHL1  H15A 8641   4.702   2.015   7.635  0.9767 -1.0162 -0.0589
   84CHL1  H15B 8642   4.530   2.010   7.576 -1.2830 -1.7567  0.9413
   84CHL1   C16 8643   4.566   1.881   7.744 -0.3164  0.2582  0.4517
   84CHL1  H16A 8644   4.614   1.936   7.828 -1.6511 -1.0974  2.1327
   84CHL1  H16B 8645   4.455   1.885   7.753 -0.3061 -1.7831  1.8301
   84CHL1   C17 8646   4.603   1.733   7.737 -0.1826  0.3596 -0.4933
   84CHL1   H17 8647   4.518   1.678   7.691  1.1479 -0.7665 -1.6347
   84CHL1   C13 8648   4.705   1.714   7.615 -0.5957  0.5727  0.2614
   84CHL1   C18 8649   4.842   1.759   7.672 -0.3977  0.2903  0.0847
   84CHL1  H18A 8650   4.836   1.854   7.728  0.3884  0.0244  0.6388
   84CHL1  H18B 8651   4.889   1.682   7.738 -0.3273  0.5989  0.3965
   84CHL1  H18C 8652   4.921   1.762   7.594  1.3569  3.0092  1.8556
   84CHL1   C12 8653   4.716   1.582   7.532 -0.0955 -0.7127  0.7008
   84CHL1  H12A 8654   4.768   1.508   7.598  2.2973  0.0123 -0.3117
   84CHL1  H12B 8655   4.616   1.540   7.511 -0.6421  0.3879  1.0828
   84CHL1   C11 8656   4.803   1.607   7.400  0.8655  0.4373  0.0316
   84CHL1  H11A 8657   4.909   1.620   7.430  0.4909  0.6763  1.2646
   84CHL1  H11B 8658   4.803   1.517   7.335 -0.2710 -0.1837  0.8878
   84CHL1    C9 8659   4.752   1.729   7.311 -0.3707 -0.8056  0.1899
   84CHL1    H9 8660   4.659   1.690   7.264 -2.0852  2.0747  1.0967
   84CHL1   C10 8661   4.848   1.773   7.184  0.2145  0.4375 -0.4845
   84CHL1   C19 8662   4.992   1.806   7.226 -0.0074  0.2824 -0.0116
   84CHL1  H19A 8663   5.035   1.720   7.282  1.1532  1.5837  1.1417
   84CHL1  H19B 8664   5.055   1.815   7.135 -1.5943 -1.6698 -1.3281
   84CHL1  H19C 8665   4.993   1.897   7.291  1.5777  0.3964 -0.1878
   84CHL1    C1 8666   4.846   1.657   7.087 -0.1814 -0.4462 -0.0498
   84CHL1   H1A 8667   4.914   1.578   7.124  0.4505 -0.1035 -0.4799
   84CHL1   H1B 8668   4.748   1.608   7.067 -0.5782  0.2286  0.1995
   84CHL1    C2 8669   4.904   1.702   6.951  0.0102 -0.1791  0.2904
   84CHL1   H2A 8670   4.909   1.604   6.897 -1.8800 -0.8290  1.2536
   84CHL1   H2B 8671   5.009   1.737   6.957  0.2941 -0.8299 -0.6935
   84CHL1   C20 8672   4.628   1.664   7.875  0.6074  0.2798 -0.0064
   84CHL1   H20 8673   4.734   1.680   7.904 -0.1116  0.5566  2.6555
   84CHL1   C21 8674   4.599   1.514   7.855 -0.0492  0.7184  0.0221
   84CHL1  H21A 8675   4.657   1.477   7.768  1.0994  0.0723  1.0559
   84CHL1  H21B 8676   4.494   1.488   7.829  0.2630 -0.8962  0.3783
   84CHL1  H21C 8677   4.622   1.451   7.943  1.0137 -1.9543 -2.1012
   84CHL1   C22 8678   4.530   1.724   7.979 -0.4617  0.0291  0.1326
   84CHL1  H22A 8679   4.550   1.832   8.000 -2.2157  0.0444  1.8170
   84CHL1  H22B 8680   4.428   1.719   7.937 -0.3761 -2.4100  0.1760
   84CHL1   C23 8681   4.546   1.652   8.116  0.8266 -0.7224 -0.3419
   84CHL1  H23A 8682   4.511   1.547   8.108  2.1862 -1.2784  0.9661
   84CHL1  H23B 8683   4.649   1.644   8.156  0.7724 -2.5258 -0.5192
   84CHL1   C24 8684   4.460   1.721   8.219  0.1680 -0.3125 -0.5139
   84CHL1  H24A 8685   4.502   1.823   8.228  1.1146 -0.9425  2.9645
   84CHL1  H24B 8686   4.351   1.731   8.201  0.1200 -1.0552 -0.6599
   84CHL1   C25 8687   4.472   1.667   8.364  0.4051  0.0678  0.5262
   84CHL1   H25 8688   4.579   1.677   8.392  0.4402  3.2102 -0.5177
   84CHL1   C26 8689   4.380   1.754   8.452 -0.2677 -0.3102  0.2124
   84CHL1  H26A 8690   4.382   1.865   8.447 -2.1031 -0.2515  0.4005
   84CHL1  H26B 8691   4.281   1.720   8.419 -0.2201 -0.8152  0.5827
   84CHL1  H26C 8692   4.400   1.732   8.559 -0.4627 -0.5558  0.1971
   84CHL1   C27 8693   4.425   1.520   8.369 -0.2625 -0.6820  0.1561
   84CHL1  H27A 8694   4.497   1.448   8.324  1.9923  0.1944  2.2297
   84CHL1  H27B 8695   4.428   1.494   8.477 -1.6969  0.8355  0.5786
   84CHL1  H27C 8696   4.326   1.504   8.322 -0.5448 -0.3715  0.6386
   85CHL1    C3 8697   4.372   6.004   6.830 -0.0842 -0.4899  0.1124
   85CHL1    H3 8698   4.461   6.070   6.832 -1.1211  0.9248  1.0363
   85CHL1    O3 8699   4.341   5.977   6.687 -0.4422 -0.0024  0.1090
   85CHL1   H3' 8700   4.405   5.913   6.656 -0.3683 -0.4568  1.1724
   85CHL1    C4 8701   4.397   5.871   6.899  0.6969  0.6579  0.0016
   85CHL1   H4A 8702   4.316   5.798   6.877  0.3002  1.7101 -2.1486
   85CHL1   H4B 8703   4.488   5.827   6.851 -0.0680 -1.6565  0.5934
   85CHL1    C5 8704   4.420   5.894   7.048  0.0287 -0.3807 -0.0662
   85CHL1    C6 8705   4.534   5.855   7.108 -0.2649  0.5405 -0.0434
   85CHL1    H6 8706   4.611   5.816   7.039 -0.2652  0.2594  0.1116
   85CHL1    C7 8707   4.560   5.855   7.258 -0.5530 -0.4815  0.3145
   85CHL1   H7A 8708   4.606   5.760   7.294 -0.8921 -0.1638  1.5724
   85CHL1   H7B 8709   4.623   5.942   7.283 -2.7408  1.0354  0.7031
   85CHL1    C8 8710   4.426   5.876   7.339  0.7022 -0.3138 -0.1654
   85CHL1    H8 8711   4.374   5.779   7.347  2.4163 -1.2832 -0.5160
   85CHL1   C14 8712   4.468   5.927   7.482 -0.2764  0.3204 -0.1330
   85CHL1   H14 8713   4.510   6.028   7.462 -0.4179  0.5632  0.7544
   85CHL1   C15 8714   4.564   5.847   7.572  0.6574 -0.1344 -0.0921
   85CHL1  H15A 8715   4.518   5.746   7.568 -0.4520  0.2936  1.4576
   85CHL1  H15B 8716   4.669   5.846   7.537 -0.1890  0.6141 -2.7701
   85CHL1   C16 8717   4.531   5.892   7.717  0.4328  0.1263 -0.0322
   85CHL1  H16A 8718   4.508   5.796   7.768  0.2144  1.5658  2.6773
   85CHL1  H16B 8719   4.607   5.944   7.780 -0.1423 -1.6834  2.2067
   85CHL1   C17 8720   4.400   5.973   7.715 -0.0345 -0.6427  0.1764
   85CHL1   H17 8721   4.441   6.076   7.723  1.6127 -1.2532 -0.2931
   85CHL1   C13 8722   4.338   5.946   7.575  0.6232  0.4876 -0.8514
   85CHL1   C18 8723   4.254   5.817   7.581  0.2015  0.2537  0.3823
   85CHL1  H18A 8724   4.158   5.828   7.636  0.7242 -1.7253  1.7262
   85CHL1  H18B 8725   4.213   5.795   7.481 -0.6043  0.3771  0.6789
   85CHL1  H18C 8726   4.313   5.726   7.602 -0.1625 -0.0689  0.0081
   85CHL1   C12 8727   4.251   6.059   7.513  0.1828 -1.5114 -0.1528
   85CHL1  H12A 8728   4.158   6.074   7.571 -0.8327 -1.7449 -1.7129
   85CHL1  H12B 8729   4.309   6.154   7.518 -0.4162 -1.1105 -0.6742
   85CHL1   C11 8730   4.212   6.035   7.365 -0.0600  0.1123 -0.4179
   85CHL1  H11A 8731   4.154   5.941   7.356  1.5015 -0.9490  0.3526
   85CHL1  H11B 8732   4.160   6.122   7.319  0.9966  0.7907 -0.3624
   85CHL1    C9 8733   4.337   5.992   7.275  0.5361 -0.5075 -0.1431
   85CHL1    H9 8734   4.401   6.082   7.271  2.2060 -1.6688  0.1474
   85CHL1   C10 8735   4.308   5.963   7.124  0.1549 -0.7298  0.2657
   85CHL1   C19 8736   4.192   5.856   7.120 -0.0858 -0.3675 -0.6425
   85CHL1  H19A 8737   4.099   5.908   7.150  0.7395 -1.0729  3.5118
   85CHL1  H19B 8738   4.180   5.805   7.022 -0.4540 -0.4454 -0.5582
   85CHL1  H19C 8739   4.210   5.777   7.197  1.1828  1.8287  1.4037
   85CHL1    C1 8740   4.270   6.094   7.048  0.4216 -0.0811 -0.5442
   85CHL1   H1A 8741   4.182   6.147   7.091  0.0354 -0.8848 -0.3228
   85CHL1   H1B 8742   4.355   6.165   7.055  0.5145 -0.1509 -0.9487
   85CHL1    C2 8743   4.257   6.083   6.900  0.0183  0.3226 -0.5061
   85CHL1   H2A 8744   4.249   6.181   6.848  1.4205  3.6372  5.1485
   85CHL1   H2B 8745   4.172   6.019   6.868 -0.8784  1.9284 -1.4200
   85CHL1   C20 8746   4.316   5.948   7.839 -0.4865  0.1600 -0.2368
   85CHL1   H20 8747   4.273   5.845   7.837  0.8339 -0.5899  3.8043
   85CHL1   C21 8748   4.192   6.045   7.842 -0.2042  0.0514  0.2240
   85CHL1  H21A 8749   4.152   6.053   7.945  1.8169  1.0461  0.9554
   85CHL1  H21B 8750   4.109   6.011   7.776 -0.8597 -0.2184  1.1900
   85CHL1  H21C 8751   4.218   6.145   7.801 -1.6518  0.1634 -0.4609
   85CHL1   C22 8752   4.398   5.963   7.968 -0.0708 -0.0966  0.1073
   85CHL1  H22A 8753   4.492   5.907   7.948 -0.3681 -0.1507 -1.2067
   85CHL1  H22B 8754   4.414   6.066   8.006 -1.0365 -1.3184  4.0441
   85CHL1   C23 8755   4.318   5.892   8.084  0.0679  0.7952  0.1060
   85CHL1  H23A 8756   4.210   5.900   8.060  0.0623 -0.4140 -0.3019
   85CHL1  H23B 8757   4.350   5.786   8.077  1.2959  1.2835 -2.3056
   85CHL1   C24 8758   4.342   5.941   8.229 -0.0718 -0.1812  0.4259
   85CHL1  H24A 8759   4.451   5.933   8.245 -0.1612  1.4459  1.9843
   85CHL1  H24B 8760   4.325   6.049   8.249  1.3714 -0.3689  2.8749
   85CHL1   C25 8761   4.275   5.846   8.339  0.2586 -0.5627 -0.3119
   85CHL1   H25 8762   4.318   5.748   8.311 -1.4457 -1.0677 -1.2528
   85CHL1   C26 8763   4.321   5.879   8.480 -0.0466  0.0447 -0.2542
   85CHL1  H26A 8764   4.304   5.794   8.550 -1.8674  0.8143  0.2633
   85CHL1  H26B 8765   4.430   5.900   8.484  0.4293 -2.1989 -0.4658
   85CHL1  H26C 8766   4.264   5.970   8.507  0.8566  0.2897  0.8561
   85CHL1   C27 8767   4.122   5.832   8.313 -0.0640  0.2088  0.0316
   85CHL1  H27A 8768   4.080   5.741   8.360  2.3724 -1.4120 -0.8642
   85CHL1  H27B 8769   4.056   5.915   8.348 -4.6318 -2.4210 -1.9387
   85CHL1  H27C 8770   4.089   5.831   8.208  1.5664 -0.2252 -0.4973
   86CHL1    C3 8771   6.728   3.700   7.068  0.2670 -0.6823 -0.0046
   86CHL1    H3 8772   6.820   3.761   7.086 -1.2909  1.5110  0.7264
   86CHL1    O3 8773   6.711   3.713   6.924  0.2719  0.1116 -0.2606
   86CHL1   H3' 8774   6.736   3.805   6.913 -3.7883  1.6251  2.1288
   86CHL1    C4 8775   6.758   3.552   7.102  0.8294 -0.3659  0.5092
   86CHL1   H4A 8776   6.675   3.494   7.055  0.9665 -0.2816  0.1690
   86CHL1   H4B 8777   6.852   3.530   7.049  1.5039 -1.8496  2.2614
   86CHL1    C5 8778   6.774   3.526   7.249  0.1931  0.1686 -0.3724
   86CHL1    C6 8779   6.884   3.469   7.304 -0.0529  0.0799 -0.4498
   86CHL1    H6 8780   6.973   3.437   7.249  0.0909 -0.0894 -0.1197
   86CHL1    C7 8781   6.891   3.442   7.450  0.6677  0.6318  0.0111
   86CHL1   H7A 8782   6.916   3.334   7.453  1.4834  0.7999 -0.5287
   86CHL1   H7B 8783   6.971   3.499   7.503  0.7713  0.8576 -0.3877
   86CHL1    C8 8784   6.761   3.455   7.532 -0.1388 -0.7765 -0.4284
   86CHL1    H8 8785   6.701   3.365   7.507 -2.1531  0.3957  0.1586
   86CHL1   C14 8786   6.783   3.460   7.683 -0.1405  0.1385 -0.4359
   86CHL1   H14 8787   6.851   3.547   7.698  0.9044 -0.8312  0.5563
   86CHL1   C15 8788   6.880   3.356   7.753 -0.5229  0.1939  0.4630
   86CHL1  H15A 8789   6.855   3.257   7.709  0.1459 -0.1633  0.8908
   86CHL1  H15B 8790   6.988   3.378   7.738  0.2628 -2.2065  2.3364
   86CHL1   C16 8791   6.838   3.363   7.901  0.6174  0.4864 -0.4367
   86CHL1  H16A 8792   6.802   3.265   7.937 -0.4761  1.5387  1.4422
   86CHL1  H16B 8793   6.918   3.397   7.971  0.7505 -0.1890 -0.2609
   86CHL1   C17 8794   6.724   3.476   7.905 -0.5465 -1.0346 -0.3508
   86CHL1   H17 8795   6.778   3.573   7.917 -0.7415 -1.1579  1.8183
   86CHL1   C13 8796   6.658   3.485   7.767  0.1229  0.3009 -0.6600
   86CHL1   C18 8797   6.560   3.365   7.754  0.5666  0.1756  0.2072
   86CHL1  H18A 8798   6.528   3.362   7.648 -1.0703  1.4841  0.6487
   86CHL1  H18B 8799   6.594   3.261   7.772  0.5506  0.1578  0.1323
   86CHL1  H18C 8800   6.470   3.378   7.818  0.9868  0.4716  0.7423
   86CHL1   C12 8801   6.584   3.615   7.730  0.7457 -0.0306  0.3802
   86CHL1  H12A 8802   6.486   3.633   7.780  0.0632  3.6220 -2.0985
   86CHL1  H12B 8803   6.632   3.714   7.748 -0.6309  0.7157 -0.0364
   86CHL1   C11 8804   6.557   3.614   7.575  0.5469  0.1576  0.0454
   86CHL1  H11A 8805   6.471   3.552   7.545 -0.2253  1.3787 -0.3092
   86CHL1  H11B 8806   6.532   3.722   7.571  0.9491  0.2473 -0.0735
   86CHL1    C9 8807   6.685   3.585   7.492 -0.3432 -0.5928 -0.3673
   86CHL1    H9 8808   6.759   3.657   7.533 -0.5269 -0.9691  0.6535
   86CHL1   C10 8809   6.660   3.582   7.336 -0.3659  0.1888 -0.3502
   86CHL1   C19 8810   6.547   3.488   7.298 -0.5422  0.8521  0.1226
   86CHL1  H19A 8811   6.524   3.475   7.190 -0.8721  2.0285  0.0443
   86CHL1  H19B 8812   6.566   3.386   7.338 -2.3246 -0.8779 -3.1983
   86CHL1  H19C 8813   6.459   3.532   7.349 -0.8999 -2.1192  2.2143
   86CHL1    C1 8814   6.617   3.732   7.286 -0.3663 -0.7974 -0.1827
   86CHL1   H1A 8815   6.522   3.762   7.336  0.8781  0.3664  1.5698
   86CHL1   H1B 8816   6.698   3.804   7.314  0.1112 -1.0667 -0.8494
   86CHL1    C2 8817   6.601   3.755   7.138 -0.1131 -0.4854 -0.0131
   86CHL1   H2A 8818   6.584   3.864   7.124  0.7513 -0.2397  0.7923
   86CHL1   H2B 8819   6.510   3.699   7.108 -0.3559 -0.7495  1.2146
   86CHL1   C20 8820   6.625   3.468   8.027 -0.3493 -0.0598  0.0070
   86CHL1   H20 8821   6.525   3.483   7.981  0.1825  2.3014 -0.3952
   86CHL1   C21 8822   6.644   3.587   8.117  0.2831  0.2162  0.2339
   86CHL1  H21A 8823   6.753   3.589   8.143  0.5659 -0.6207 -0.8714
   86CHL1  H21B 8824   6.574   3.585   8.203  1.0783 -1.2592  0.8735
   86CHL1  H21C 8825   6.623   3.680   8.060 -0.2039 -0.3710 -0.5392
   86CHL1   C22 8826   6.621   3.334   8.114 -0.5530  0.4764 -0.5371
   86CHL1  H22A 8827   6.613   3.257   8.034  0.0552 -1.2081  0.9922
   86CHL1  H22B 8828   6.715   3.334   8.172 -0.6103  1.1195 -0.4403
   86CHL1   C23 8829   6.493   3.325   8.195  0.1168  0.6018  0.2331
   86CHL1  H23A 8830   6.491   3.417   8.257  0.0566  1.2273 -0.6870
   86CHL1  H23B 8831   6.402   3.339   8.133 -1.3188  1.4975  2.5132
   86CHL1   C24 8832   6.477   3.192   8.271 -0.4448  0.1344 -0.4643
   86CHL1  H24A 8833   6.484   3.109   8.198 -0.0338 -1.1463  0.9901
   86CHL1  H24B 8834   6.567   3.183   8.335  0.7275 -0.2061 -2.1633
   86CHL1   C25 8835   6.351   3.171   8.355 -0.8322  0.3701  0.0392
   86CHL1   H25 8836   6.334   3.271   8.399 -1.1839  1.0326 -1.5530
   86CHL1   C26 8837   6.236   3.131   8.260 -0.1855  0.0931  0.0223
   86CHL1  H26A 8838   6.212   3.024   8.241  1.2909 -0.2271 -0.1144
   86CHL1  H26B 8839   6.148   3.169   8.315 -0.4992 -1.5473  0.6771
   86CHL1  H26C 8840   6.241   3.181   8.161  1.5393 -1.1345 -0.5361
   86CHL1   C27 8841   6.369   3.068   8.470 -0.0339  0.0986  0.1704
   86CHL1  H27A 8842   6.456   3.099   8.532  0.6676 -0.4244 -0.5410
   86CHL1  H27B 8843   6.295   3.064   8.553  1.1783 -1.1973  1.2277
   86CHL1  H27C 8844   6.369   2.964   8.431  3.0306  0.3133 -0.5927
   87CHL1    C3 8845   0.024   1.724   6.800  0.2830 -0.1759  1.0560
   87CHL1    H3 8846   0.096   1.797   6.843 -0.4066  1.2859 -0.2385
   87CHL1    O3 8847  -0.001   1.745   6.664 -0.0150 -0.0314 -0.5117
   87CHL1   H3' 8848  -0.030   1.836   6.657  1.4393  0.5312  0.4226
   87CHL1    C4 8849   0.081   1.583   6.835  0.0042 -0.1573  0.0757
   87CHL1   H4A 8850   0.009   1.504   6.804  0.7053 -0.3180 -1.1861
   87CHL1   H4B 8851   0.173   1.565   6.775 -0.0668 -1.7024  0.4267
   87CHL1    C5 8852   0.105   1.565   6.983 -0.0774  0.4141 -1.1902
   87CHL1    C6 8853   0.231   1.537   7.026  0.6285 -0.0430 -0.1546
   87CHL1    H6 8854   0.315   1.542   6.956 -0.5123  1.6856 -1.4175
   87CHL1    C7 8855   0.254   1.509   7.172  0.5331 -0.1169  0.3728
   87CHL1   H7A 8856   0.308   1.414   7.192  1.6214  0.2211 -0.8788
   87CHL1   H7B 8857   0.310   1.590   7.223 -1.6825  2.4970 -1.1459
   87CHL1    C8 8858   0.129   1.501   7.271  0.4903  0.2347  0.0274
   87CHL1    H8 8859   0.101   1.393   7.271  0.5832  0.2015 -1.5715
   87CHL1   C14 8860   0.168   1.531   7.413  0.6534  0.9358  0.1550
   87CHL1   H14 8861   0.198   1.638   7.412  2.9251  0.3249  0.2681
   87CHL1   C15 8862   0.286   1.456   7.481  0.5293 -0.8513 -0.4107
   87CHL1  H15A 8863   0.284   1.350   7.448  0.3518 -0.3310 -2.1570
   87CHL1  H15B 8864   0.378   1.514   7.459  1.7198 -1.7130  2.0796
   87CHL1   C16 8865   0.264   1.468   7.632 -0.1475  0.6523 -0.5301
   87CHL1  H16A 8866   0.242   1.364   7.663 -1.7767  1.2765  0.5259
   87CHL1  H16B 8867   0.340   1.515   7.699 -0.9797 -0.6105  1.3634
   87CHL1   C17 8868   0.130   1.549   7.648 -0.0107  0.2539  0.0524
   87CHL1   H17 8869   0.163   1.655   7.646 -4.3491  1.7691  2.0375
   87CHL1   C13 8870   0.055   1.523   7.518  0.0200 -0.1113  0.2098
   87CHL1   C18 8871  -0.015   1.390   7.522 -0.0436  0.0021 -0.7808
   87CHL1  H18A 8872  -0.052   1.354   7.424 -0.3522 -0.5513 -0.4645
   87CHL1  H18B 8873   0.055   1.311   7.558 -2.1536 -1.2020  0.7573
   87CHL1  H18C 8874  -0.108   1.395   7.582  0.5274  1.0398  0.0488
   87CHL1   C12 8875  -0.055   1.624   7.479 -0.0587 -0.1459  0.0785
   87CHL1  H12A 8876  -0.143   1.613   7.546 -0.5310  1.7681 -0.1892
   87CHL1  H12B 8877  -0.027   1.731   7.489 -0.5556 -0.0417  0.3561
   87CHL1   C11 8878  -0.090   1.616   7.330  0.1441 -0.0452 -0.1025
   87CHL1  H11A 8879  -0.152   1.525   7.316  1.1509 -0.7531 -0.0130
   87CHL1  H11B 8880  -0.146   1.705   7.296 -1.7842 -0.9370  0.6497
   87CHL1    C9 8881   0.032   1.609   7.229  0.2796  0.0426 -0.0227
   87CHL1    H9 8882   0.086   1.706   7.241  1.3374 -0.5489  0.0641
   87CHL1   C10 8883  -0.005   1.584   7.081  0.4324  0.0444 -0.4949
   87CHL1   C19 8884  -0.107   1.469   7.067 -0.1136  0.2247 -0.2102
   87CHL1  H19A 8885  -0.069   1.368   7.095 -0.9735 -0.4889 -1.5208
   87CHL1  H19B 8886  -0.199   1.477   7.130 -0.3011  0.2874 -0.4912
   87CHL1  H19C 8887  -0.150   1.455   6.965 -1.2240 -0.9523  0.3980
   87CHL1    C1 8888  -0.076   1.718   7.025 -0.3280 -0.0945 -0.5252
   87CHL1   H1A 8889  -0.174   1.728   7.078  0.7786  2.5365  1.1148
   87CHL1   H1B 8890  -0.013   1.804   7.057 -0.2742  0.8182 -3.0070
   87CHL1    C2 8891  -0.105   1.742   6.872 -0.3077  0.6297 -0.6077
   87CHL1   H2A 8892  -0.136   1.846   6.847  1.3636  0.9986 -1.2403
   87CHL1   H2B 8893  -0.174   1.662   6.837 -2.3928  1.9035  0.4984
   87CHL1   C20 8894   0.049   1.521   7.770  0.7858 -0.3189  0.5143
   87CHL1   H20 8895  -0.018   1.433   7.757 -0.3964  0.8437 -1.4121
   87CHL1   C21 8896  -0.036   1.654   7.806  0.3114 -0.5533  0.4013
   87CHL1  H21A 8897  -0.058   1.714   7.716  1.5390 -1.0170 -0.2186
   87CHL1  H21B 8898   0.016   1.715   7.883  0.1371  0.7332 -0.4861
   87CHL1  H21C 8899  -0.128   1.619   7.858 -0.8666  0.8671 -0.6972
   87CHL1   C22 8900   0.133   1.470   7.893 -0.6819 -0.6315  0.1840
   87CHL1  H22A 8901   0.168   1.367   7.873 -2.7284 -1.9745  3.1078
   87CHL1  H22B 8902   0.219   1.539   7.904  0.7490 -2.4839  0.7394
   87CHL1   C23 8903   0.051   1.474   8.023  0.1636  0.8505 -0.2732
   87CHL1  H23A 8904   0.027   1.580   8.048 -0.7879  0.2379  1.4538
   87CHL1  H23B 8905  -0.045   1.420   8.014  0.2674  0.2677  1.7440
   87CHL1   C24 8906   0.138   1.420   8.139  0.5146  0.1598  0.1816
   87CHL1  H24A 8907   0.153   1.311   8.130  1.0729  0.1454  1.2161
   87CHL1  H24B 8908   0.235   1.474   8.145  0.1958  0.7545  0.1124
   87CHL1   C25 8909   0.061   1.418   8.277 -0.3635 -0.2471  0.2590
   87CHL1   H25 8910  -0.029   1.354   8.266 -0.1359 -0.3246 -1.2282
   87CHL1   C26 8911   0.155   1.358   8.382  0.8868 -0.2280  0.4199
   87CHL1  H26A 8912   0.203   1.271   8.333  1.0553  0.8185 -1.3158
   87CHL1  H26B 8913   0.232   1.434   8.410  0.5387 -0.2797  1.5468
   87CHL1  H26C 8914   0.102   1.323   8.473  1.2838 -0.3490  0.6070
   87CHL1   C27 8915   0.022   1.557   8.334 -0.5745 -0.3680 -0.3640
   87CHL1  H27A 8916  -0.048   1.603   8.261 -1.4002  1.4045  1.4991
   87CHL1  H27B 8917  -0.041   1.531   8.421  0.2141 -0.7600  0.0991
   87CHL1  H27C 8918   0.115   1.614   8.355  0.6202 -1.4873 -2.4701
   88CHL1    C3 8919   4.579   0.290   6.889  0.1998  1.1312  0.7691
   88CHL1    H3 8920   4.651   0.372   6.911  1.3267 -0.0756  1.6788
   88CHL1    O3 8921   4.554   0.293   6.749  0.7413  0.6841 -0.4019
   88CHL1   H3' 8922   4.499   0.217   6.730 -0.5279  1.3614  0.4796
   88CHL1    C4 8923   4.648   0.162   6.928 -0.0539 -0.6346 -0.4303
   88CHL1   H4A 8924   4.581   0.083   6.889  1.0616 -3.2896  2.8141
   88CHL1   H4B 8925   4.745   0.149   6.876  1.7223  0.6290  2.4291
   88CHL1    C5 8926   4.661   0.153   7.082  0.1931  0.3711 -0.4908
   88CHL1    C6 8927   4.779   0.115   7.126 -0.8736  0.3269  0.3080
   88CHL1    H6 8928   4.862   0.102   7.056 -0.8285  0.4172  0.3451
   88CHL1    C7 8929   4.809   0.088   7.276 -0.2668 -0.5536 -0.6394
   88CHL1   H7A 8930   4.860  -0.008   7.295  1.7252  0.5144 -0.4214
   88CHL1   H7B 8931   4.865   0.170   7.327 -0.1320 -1.7142  1.1103
   88CHL1    C8 8932   4.679   0.075   7.366 -0.2857 -0.0657  0.4103
   88CHL1    H8 8933   4.633  -0.023   7.342  1.6167 -0.9544  0.2951
   88CHL1   C14 8934   4.712   0.094   7.514 -0.1544 -0.2950 -0.9095
   88CHL1   H14 8935   4.738   0.202   7.519  3.3243 -1.1894  1.2044
   88CHL1   C15 8936   4.827   0.014   7.575  0.3505  0.8334 -0.3079
   88CHL1  H15A 8937   4.824  -0.088   7.532 -0.7361  0.8604 -0.3228
   88CHL1  H15B 8938   4.923   0.061   7.547  0.5098  1.6548  1.5457
   88CHL1   C16 8939   4.809   0.022   7.724  0.1364 -0.8996 -0.0063
   88CHL1  H16A 8940   4.807  -0.084   7.756 -0.4304 -1.0038 -0.3906
   88CHL1  H16B 8941   4.890   0.079   7.775  0.4978  0.1517 -1.7152
   88CHL1   C17 8942   4.669   0.079   7.744 -0.1168 -0.2097  0.0639
   88CHL1   H17 8943   4.691   0.186   7.764  4.9662 -1.0719 -0.2329
   88CHL1   C13 8944   4.595   0.063   7.608 -0.0706 -0.0649 -0.5656
   88CHL1   C18 8945   4.543  -0.084   7.596  0.2578 -0.4208 -1.0004
   88CHL1  H18A 8946   4.464  -0.105   7.671 -1.1438  0.9222 -2.0709
   88CHL1  H18B 8947   4.490  -0.093   7.499 -1.3126 -0.0157 -0.1965
   88CHL1  H18C 8948   4.619  -0.165   7.605 -1.6773 -1.9796  2.6359
   88CHL1   C12 8949   4.491   0.171   7.575 -0.3405 -0.1518 -0.1902
   88CHL1  H12A 8950   4.400   0.166   7.639 -0.1560 -1.6178 -0.0223
   88CHL1  H12B 8951   4.533   0.272   7.592 -0.5614 -0.3558  1.6465
   88CHL1   C11 8952   4.455   0.175   7.422 -0.5653  0.1562  0.0026
   88CHL1  H11A 8953   4.415   0.075   7.394  0.9010 -0.9308  1.6961
   88CHL1  H11B 8954   4.385   0.258   7.398 -3.0497 -0.7595  3.6230
   88CHL1    C9 8955   4.574   0.172   7.321  0.5677 -0.7736 -0.0565
   88CHL1    H9 8956   4.625   0.269   7.340 -0.7237  0.4416 -2.3810
   88CHL1   C10 8957   4.541   0.175   7.165  0.2093 -0.1420 -0.4150
   88CHL1   C19 8958   4.446   0.059   7.136  0.2949  0.0010 -0.3022
   88CHL1  H19A 8959   4.347   0.079   7.183  0.2365 -1.4090  0.1939
   88CHL1  H19B 8960   4.426   0.038   7.029  0.2316  2.0174 -0.7056
   88CHL1  H19C 8961   4.491  -0.030   7.184 -0.8031  0.3892  1.5124
   88CHL1    C1 8962   4.484   0.314   7.121  0.5963  0.4111 -0.3696
   88CHL1   H1A 8963   4.380   0.315   7.161  0.1030  0.7575 -1.6449
   88CHL1   H1B 8964   4.543   0.397   7.164 -0.3529 -0.0885  1.9762
   88CHL1    C2 8965   4.457   0.329   6.969 -0.1239  0.1596  0.6981
   88CHL1   H2A 8966   4.423   0.432   6.948 -0.9523 -0.0186  1.1334
   88CHL1   H2B 8967   4.372   0.264   6.938  0.7436 -0.5267 -0.2724
   88CHL1   C20 8968   4.606   0.026   7.875  0.1377  0.0962  0.0191
   88CHL1   H20 8969   4.575  -0.080   7.861  0.8238  0.1613 -2.2209
   88CHL1   C21 8970   4.480   0.105   7.905  0.6484 -0.5484  0.0396
   88CHL1  H21A 8971   4.426   0.075   7.997 -0.4397  0.0302 -0.4030
   88CHL1  H21B 8972   4.397   0.090   7.832 -0.2520  1.2020  0.6894
   88CHL1  H21C 8973   4.506   0.213   7.896 -3.0289  0.3312 -0.8037
   88CHL1   C22 8974   4.708   0.023   7.998  0.5598 -0.9094 -0.0750
   88CHL1  H22A 8975   4.802  -0.031   7.974  1.1344  0.3467 -0.6359
   88CHL1  H22B 8976   4.730   0.130   8.015 -2.4094 -0.8738  4.5536
   88CHL1   C23 8977   4.662  -0.055   8.116 -0.2751 -0.8066  0.2228
   88CHL1  H23A 8978   4.570  -0.003   8.150  2.6446  4.3669  0.7339
   88CHL1  H23B 8979   4.635  -0.162   8.104 -1.5535 -0.3945 -0.8137
   88CHL1   C24 8980   4.776  -0.059   8.219 -0.4186 -0.1186 -0.2626
   88CHL1  H24A 8981   4.871  -0.107   8.189 -0.0474 -0.4660  1.4196
   88CHL1  H24B 8982   4.789   0.050   8.238 -0.0213 -0.1840 -0.1670
   88CHL1   C25 8983   4.739  -0.126   8.358  0.0590 -0.4216  0.2449
   88CHL1   H25 8984   4.683  -0.217   8.330 -2.3381  1.4311 -1.2074
   88CHL1   C26 8985   4.866  -0.161   8.442  0.6666  0.1390 -0.6674
   88CHL1  H26A 8986   4.929  -0.246   8.406 -1.3457 -1.7895  0.2222
   88CHL1  H26B 8987   4.912  -0.064   8.468 -0.1817  0.0483  1.2891
   88CHL1  H26C 8988   4.820  -0.195   8.537 -0.4455 -0.8309 -1.5338
   88CHL1   C27 8989   4.642  -0.040   8.443  1.5260  0.0084  0.4188
   88CHL1  H27A 8990   4.611  -0.098   8.532 -0.7210  2.3084  1.2073
   88CHL1  H27B 8991   4.682   0.058   8.478  0.9880  0.6778 -0.8029
   88CHL1  H27C 8992   4.541  -0.017   8.402  1.6710  2.7912  1.4870
   89CHL1    C3 8993   0.589   2.854   6.968 -0.1650  0.3091 -0.1167
   89CHL1    H3 8994   0.689   2.902   6.963  0.3153 -0.8021 -1.4943
   89CHL1    O3 8995   0.538   2.852   6.831 -0.1765  0.0662 -0.1029
   89CHL1   H3' 8996   0.599   2.792   6.787  0.6064 -1.1121  2.4631
   89CHL1    C4 8997   0.608   2.712   7.019 -0.3925  0.1180 -0.5144
   89CHL1   H4A 8998   0.525   2.638   7.010 -0.8333  0.6418 -0.7878
   89CHL1   H4B 8999   0.684   2.671   6.949 -1.9256 -1.6439 -1.1814
   89CHL1    C5 9000   0.669   2.718   7.160  0.3141 -0.4073  0.2041
   89CHL1    C6 9001   0.786   2.668   7.187 -0.1196 -0.1155  0.0409
   89CHL1    H6 9002   0.847   2.626   7.105 -1.2903  2.8002 -2.4613
   89CHL1    C7 9003   0.842   2.669   7.322  0.5698 -0.6318 -0.3091
   89CHL1   H7A 9004   0.891   2.572   7.343  0.5674 -0.3028  1.3642
   89CHL1   H7B 9005   0.912   2.753   7.343 -0.5117 -0.0494  1.0761
   89CHL1    C8 9006   0.738   2.680   7.442  0.5321  0.5069  0.0962
   89CHL1    H8 9007   0.686   2.581   7.445  1.1019  0.0872 -2.4351
   89CHL1   C14 9008   0.813   2.713   7.575 -0.5002 -0.4656 -0.1684
   89CHL1   H14 9009   0.860   2.812   7.557  1.2598 -1.4839 -1.3601
   89CHL1   C15 9010   0.917   2.619   7.619 -0.7850  0.0350 -0.3189
   89CHL1  H15A 9011   0.903   2.511   7.599 -1.4737 -0.2345  1.5873
   89CHL1  H15B 9012   1.011   2.629   7.561 -1.5940 -0.1614 -1.6977
   89CHL1   C16 9013   0.944   2.645   7.764 -0.1787 -0.3027 -0.1497
   89CHL1  H16A 9014   0.934   2.546   7.812  0.2781 -0.7201 -0.9043
   89CHL1  H16B 9015   1.037   2.698   7.794 -1.2630  3.4347 -2.9280
   89CHL1   C17 9016   0.831   2.747   7.803 -0.3881 -0.8223 -0.1206
   89CHL1   H17 9017   0.871   2.850   7.788  3.6632 -2.0752  1.5286
   89CHL1   C13 9018   0.723   2.731   7.695 -0.6918  0.0795 -0.2521
   89CHL1   C18 9019   0.646   2.597   7.717 -0.6873 -0.0385  0.2418
   89CHL1  H18A 9020   0.709   2.508   7.697 -0.0282  0.3562  0.5277
   89CHL1  H18B 9021   0.581   2.593   7.808  1.8462 -0.9457  2.0676
   89CHL1  H18C 9022   0.577   2.585   7.631 -1.8541 -0.9016  1.2681
   89CHL1   C12 9023   0.636   2.853   7.663  0.0269 -0.3822 -0.3936
   89CHL1  H12A 9024   0.563   2.881   7.742  1.1288  1.7912 -0.1131
   89CHL1  H12B 9025   0.696   2.945   7.647 -0.3717 -0.0392  0.0725
   89CHL1   C11 9026   0.553   2.831   7.536 -0.4275 -0.1981  0.3770
   89CHL1  H11A 9027   0.486   2.743   7.549  1.2654 -1.4752  0.6005
   89CHL1  H11B 9028   0.494   2.923   7.517 -0.3151 -0.4676 -1.3928
   89CHL1    C9 9029   0.647   2.797   7.414 -0.1181  0.3411  0.0073
   89CHL1    H9 9030   0.718   2.881   7.399  1.5240 -0.9970  0.2430
   89CHL1   C10 9031   0.581   2.788   7.268  0.1450 -0.1492 -0.4702
   89CHL1   C19 9032   0.459   2.696   7.290  0.5079  0.4278 -0.5146
   89CHL1  H19A 9033   0.395   2.753   7.361  1.0889  1.9351 -1.1920
   89CHL1  H19B 9034   0.390   2.666   7.208 -0.0183  0.4325 -0.0776
   89CHL1  H19C 9035   0.493   2.606   7.345 -0.4895  0.0252 -0.5468
   89CHL1    C1 9036   0.545   2.923   7.206  0.1627 -0.3647  0.6139
   89CHL1   H1A 9037   0.473   2.976   7.272 -0.6947 -0.4808 -0.2375
   89CHL1   H1B 9038   0.631   2.992   7.223 -1.9273  1.9318  2.3318
   89CHL1    C2 9039   0.498   2.932   7.059 -0.1263 -0.0066 -0.0668
   89CHL1   H2A 9040   0.478   3.032   7.016 -2.8124 -0.1463  0.7528
   89CHL1   H2B 9041   0.398   2.883   7.058 -0.9119  1.4092  2.9522
   89CHL1   C20 9042   0.785   2.733   7.958  0.7648 -0.3632  0.1385
   89CHL1   H20 9043   0.751   2.630   7.979  0.7625 -0.1345  1.2811
   89CHL1   C21 9044   0.666   2.829   7.990 -0.4380  0.1983  0.3009
   89CHL1  H21A 9045   0.684   2.922   7.933 -1.8484 -0.1853 -0.7818
   89CHL1  H21B 9046   0.654   2.851   8.098 -0.6408 -0.1145  0.3439
   89CHL1  H21C 9047   0.568   2.787   7.957 -0.5882 -0.0306  1.0204
   89CHL1   C22 9048   0.907   2.752   8.054 -0.3970  0.2658  0.5112
   89CHL1  H22A 9049   0.869   2.739   8.158 -0.4860 -0.2060  0.4197
   89CHL1  H22B 9050   0.983   2.672   8.039 -1.1425 -0.5701  1.1177
   89CHL1   C23 9051   0.989   2.888   8.038 -0.5035  0.3892 -0.0369
   89CHL1  H23A 9052   1.051   2.874   7.948  0.4612  0.4832  0.6108
   89CHL1  H23B 9053   0.914   2.968   8.018 -0.6349  0.5345  1.0030
   89CHL1   C24 9054   1.087   2.928   8.147 -0.6860 -0.5933 -0.6244
   89CHL1  H24A 9055   1.159   2.850   8.179 -0.0210 -0.9076 -2.7984
   89CHL1  H24B 9056   1.148   3.002   8.091  1.2242 -0.1274  1.9523
   89CHL1   C25 9057   1.028   2.971   8.282  0.1139 -1.0089  0.2978
   89CHL1   H25 9058   0.974   2.882   8.320  0.8553 -0.5432  2.5398
   89CHL1   C26 9059   1.150   3.001   8.375  0.1589 -0.1129 -0.2100
   89CHL1  H26A 9060   1.225   2.921   8.357 -1.7698 -1.8584 -0.7237
   89CHL1  H26B 9061   1.194   3.098   8.344 -1.8810  1.3864  1.4504
   89CHL1  H26C 9062   1.126   3.014   8.483  0.8836 -0.1761 -0.0401
   89CHL1   C27 9063   0.928   3.090   8.275  0.0820  0.1316  0.0400
   89CHL1  H27A 9064   0.823   3.054   8.267  0.2777 -0.9513  2.1505
   89CHL1  H27B 9065   0.932   3.144   8.372  3.3346 -0.9734  0.5974
   89CHL1  H27C 9066   0.951   3.150   8.184 -1.2119  0.5488 -0.0248
   90CHL1    C3 9067   0.960   4.804   6.886 -0.5330 -0.5144  0.5782
   90CHL1    H3 9068   0.935   4.695   6.878 -0.4565 -0.4000 -1.5388
   90CHL1    O3 9069   0.999   4.855   6.758  0.3989  0.6837 -0.2903
   90CHL1   H3' 9070   1.015   4.782   6.697 -1.5445  1.1035 -1.3298
   90CHL1    C4 9071   0.830   4.877   6.930  0.3004  0.0723  0.1843
   90CHL1   H4A 9072   0.835   4.988   6.936 -0.8237  0.0522  1.9216
   90CHL1   H4B 9073   0.753   4.866   6.851 -1.7675  0.0870  2.1505
   90CHL1    C5 9074   0.792   4.831   7.062  0.2508 -0.2546  0.4417
   90CHL1    C6 9075   0.664   4.791   7.083 -0.3338 -0.4910  0.5007
   90CHL1    H6 9076   0.593   4.792   6.999  0.5430 -1.8288 -0.2712
   90CHL1    C7 9077   0.609   4.756   7.219 -0.2062 -0.4258  0.2015
   90CHL1   H7A 9078   0.511   4.807   7.230  0.8379  1.5237  0.7676
   90CHL1   H7B 9079   0.597   4.646   7.218 -1.1560 -0.3203 -1.0078
   90CHL1    C8 9080   0.702   4.806   7.337  0.0207  0.1783  0.5616
   90CHL1    H8 9081   0.686   4.916   7.347 -1.7454  0.1800 -1.6403
   90CHL1   C14 9082   0.661   4.736   7.463  0.2158  0.5636 -0.1095
   90CHL1   H14 9083   0.682   4.632   7.432  1.0626  0.3973  0.9758
   90CHL1   C15 9084   0.511   4.740   7.512  0.0077  0.0762  0.4328
   90CHL1  H15A 9085   0.480   4.840   7.475 -0.0798 -0.4075 -0.8515
   90CHL1  H15B 9086   0.450   4.667   7.454  0.6402  0.7823 -1.1657
   90CHL1   C16 9087   0.528   4.705   7.662  1.1075 -0.2369  0.1460
   90CHL1  H16A 9088   0.493   4.794   7.719  0.5442 -0.7760  0.6403
   90CHL1  H16B 9089   0.468   4.617   7.692  1.4113 -0.2358  0.7642
   90CHL1   C17 9090   0.678   4.694   7.693 -0.1480  0.2164  0.3286
   90CHL1   H17 9091   0.683   4.592   7.650 -1.0099  1.6557 -3.3197
   90CHL1   C13 9092   0.753   4.773   7.589 -0.1455  0.0427 -0.1221
   90CHL1   C18 9093   0.748   4.919   7.635 -0.0011  0.3404  0.3069
   90CHL1  H18A 9094   0.770   4.989   7.552 -2.0071 -0.4322 -0.9051
   90CHL1  H18B 9095   0.651   4.953   7.676 -0.2863  0.0329 -0.1103
   90CHL1  H18C 9096   0.825   4.936   7.715 -0.5426 -0.3518  0.9783
   90CHL1   C12 9097   0.891   4.720   7.551 -0.9147 -0.1164  0.0783
   90CHL1  H12A 9098   0.953   4.736   7.642 -0.1297  0.0153 -0.4700
   90CHL1  H12B 9099   0.901   4.611   7.532  2.7038 -0.5001  3.5483
   90CHL1   C11 9100   0.940   4.794   7.430  0.5292  0.7024 -0.2567
   90CHL1  H11A 9101   0.937   4.903   7.451  2.4144  0.8655 -0.7285
   90CHL1  H11B 9102   1.047   4.768   7.419  0.7604  0.7951  1.6794
   90CHL1    C9 9103   0.853   4.775   7.305  0.5079  0.2813 -0.1763
   90CHL1    H9 9104   0.863   4.667   7.279  1.1530  0.5220 -0.9737
   90CHL1   C10 9105   0.901   4.852   7.176  0.2758  0.0669 -0.3600
   90CHL1   C19 9106   0.928   5.012   7.202  0.6358  0.1642  0.8231
   90CHL1  H19A 9107   1.020   5.021   7.263  2.2297 -1.8495 -1.2006
   90CHL1  H19B 9108   0.944   5.075   7.112 -1.1844 -1.0496 -0.3828
   90CHL1  H19C 9109   0.837   5.051   7.253  0.4583  0.5731  0.2022
   90CHL1    C1 9110   1.036   4.787   7.124  0.4488  0.4298 -0.2503
   90CHL1   H1A 9111   1.106   4.812   7.206  0.7185  1.2594 -0.7296
   90CHL1   H1B 9112   1.023   4.677   7.127  0.6542  0.3396 -2.0366
   90CHL1    C2 9113   1.075   4.829   6.988  0.3206 -0.1287 -0.5274
   90CHL1   H2A 9114   1.162   4.774   6.945  0.3603 -1.7175  1.5379
   90CHL1   H2B 9115   1.105   4.936   6.987 -1.3004  0.3394 -0.8845
   90CHL1   C20 9116   0.726   4.703   7.838  0.5270  0.7951  0.2084
   90CHL1   H20 9117   0.836   4.722   7.838  1.2000 -2.7608  0.6770
   90CHL1   C21 9118   0.696   4.564   7.892  0.1718 -0.1823 -0.1459
   90CHL1  H21A 9119   0.598   4.530   7.855 -0.1355  1.9512 -1.3891
   90CHL1  H21B 9120   0.712   4.556   8.002 -0.9680 -2.0618 -0.1074
   90CHL1  H21C 9121   0.769   4.490   7.853  1.8733  1.2310  0.2370
   90CHL1   C22 9122   0.658   4.809   7.925 -0.1986 -1.1225  0.0289
   90CHL1  H22A 9123   0.620   4.895   7.867 -0.9756 -2.1004 -0.9429
   90CHL1  H22B 9124   0.569   4.761   7.971 -0.3445 -0.7834  0.0950
   90CHL1   C23 9125   0.754   4.871   8.031 -0.4840  0.1473 -0.2891
   90CHL1  H23A 9126   0.788   4.786   8.095 -0.3986  1.1511  1.0307
   90CHL1  H23B 9127   0.836   4.917   7.972  0.4893 -1.5720 -0.3317
   90CHL1   C24 9128   0.689   4.975   8.123  0.7134  0.1893 -0.0159
   90CHL1  H24A 9129   0.680   5.071   8.067  1.5400  0.5806  0.5219
   90CHL1  H24B 9130   0.585   4.945   8.151 -0.0374  1.3479 -1.4586
   90CHL1   C25 9131   0.767   4.985   8.259 -0.2942  0.1627 -1.0687
   90CHL1   H25 9132   0.786   4.881   8.293 -0.0289  0.0347 -1.5911
   90CHL1   C26 9133   0.898   5.051   8.235  0.0551  0.4111  0.0694
   90CHL1  H26A 9134   0.957   5.035   8.328 -1.2184 -0.8900  0.6683
   90CHL1  H26B 9135   0.949   5.014   8.144 -2.0664  1.4327 -1.5811
   90CHL1  H26C 9136   0.893   5.161   8.217 -0.3783 -0.0277 -2.7032
   90CHL1   C27 9137   0.691   5.064   8.362  0.7957 -0.2275  0.0602
   90CHL1  H27A 9138   0.695   5.174   8.343 -2.4682  0.1903  1.4857
   90CHL1  H27B 9139   0.584   5.037   8.367  1.1072 -1.2352  2.0015
   90CHL1  H27C 9140   0.757   5.042   8.449 -0.2352  0.8161  1.1227
   91CHL1    C3 9141   1.577   6.161   7.259  0.0261  0.2881 -0.5510
   91CHL1    H3 9142   1.645   6.078   7.286 -0.7994  0.0466  0.8128
   91CHL1    O3 9143   1.585   6.199   7.126  0.0112  0.6987  0.7072
   91CHL1   H3' 9144   1.499   6.176   7.091  0.7793  0.0721 -0.8239
   91CHL1    C4 9145   1.438   6.096   7.290  0.1991 -0.2825 -0.6268
   91CHL1   H4A 9146   1.363   6.170   7.255  1.3370  1.4871  0.5683
   91CHL1   H4B 9147   1.426   6.001   7.234 -3.1123  0.0207 -0.5441
   91CHL1    C5 9148   1.421   6.068   7.439 -0.0062 -0.4911  0.5359
   91CHL1    C6 9149   1.384   5.940   7.476  0.0694  0.7295  0.3512
   91CHL1    H6 9150   1.373   5.856   7.406 -1.0968  0.5260  0.7666
   91CHL1    C7 9151   1.355   5.903   7.619 -0.4017  0.3550 -0.6973
   91CHL1   H7A 9152   1.273   5.829   7.630  1.7403 -1.9853 -0.0079
   91CHL1   H7B 9153   1.448   5.878   7.675 -1.3685  1.0111  1.2484
   91CHL1    C8 9154   1.326   6.035   7.704 -0.7664  0.2641  0.3506
   91CHL1    H8 9155   1.228   6.082   7.683 -1.2557 -0.6194  0.6083
   91CHL1   C14 9156   1.328   6.001   7.852  0.2862  0.8812  0.3767
   91CHL1   H14 9157   1.434   5.973   7.867  0.2643 -0.1266 -1.2371
   91CHL1   C15 9158   1.242   5.889   7.904 -0.0807 -0.0914  0.3496
   91CHL1  H15A 9159   1.145   5.893   7.850 -0.0074  2.2060  0.3206
   91CHL1  H15B 9160   1.279   5.788   7.875 -0.3285 -0.7588  2.3177
   91CHL1   C16 9161   1.221   5.913   8.058 -0.5444  0.2311  0.1703
   91CHL1  H16A 9162   1.112   5.913   8.081 -0.1775 -0.6766  1.9872
   91CHL1  H16B 9163   1.271   5.833   8.115 -1.2668  0.4964  1.1822
   91CHL1   C17 9164   1.296   6.049   8.091  0.0953 -0.2278 -0.2982
   91CHL1   H17 9165   1.399   6.020   8.121  0.3919  1.1656  0.0664
   91CHL1   C13 9166   1.310   6.112   7.952  0.6916 -0.0153 -0.4010
   91CHL1   C18 9167   1.171   6.185   7.920  0.5812  0.2169 -0.1715
   91CHL1  H18A 9168   1.082   6.121   7.937  0.1703  0.7329 -0.3875
   91CHL1  H18B 9169   1.156   6.275   7.984  0.1363 -0.1936  0.3032
   91CHL1  H18C 9170   1.164   6.227   7.818  2.4487 -0.0100 -0.4191
   91CHL1   C12 9171   1.419   6.219   7.930  0.1906  0.3272  0.0330
   91CHL1  H12A 9172   1.381   6.306   7.988 -0.7111 -0.4829  0.6648
   91CHL1  H12B 9173   1.516   6.183   7.971 -0.3977 -2.4442 -0.9711
   91CHL1   C11 9174   1.442   6.256   7.783 -0.2672  0.9483 -0.2813
   91CHL1  H11A 9175   1.357   6.320   7.753  0.2974  0.9347 -1.9535
   91CHL1  H11B 9176   1.536   6.316   7.781  0.0729  0.3855 -1.5561
   91CHL1    C9 9177   1.441   6.143   7.681  0.4322  0.3694  0.3050
   91CHL1    H9 9178   1.541   6.097   7.694 -0.4246 -1.5042  0.4887
   91CHL1   C10 9179   1.442   6.184   7.532  0.5550 -1.1111 -0.6828
   91CHL1   C19 9180   1.333   6.289   7.507  0.1720 -0.9814  0.3685
   91CHL1  H19A 9181   1.233   6.243   7.523 -2.0564  3.6303  0.6855
   91CHL1  H19B 9182   1.351   6.381   7.567 -1.6519 -0.1233 -0.3557
   91CHL1  H19C 9183   1.351   6.315   7.401  1.7238 -0.5053  0.7365
   91CHL1    C1 9184   1.578   6.249   7.500  0.2170 -0.2003 -0.8135
   91CHL1   H1A 9185   1.578   6.344   7.558  1.9270  0.5145 -1.9579
   91CHL1   H1B 9186   1.657   6.186   7.546  0.8047  0.2052 -1.2662
   91CHL1    C2 9187   1.604   6.283   7.354  0.0760  0.0607  0.1899
   91CHL1   H2A 9188   1.709   6.320   7.345 -0.7061  2.2056 -0.4774
   91CHL1   H2B 9189   1.533   6.361   7.319  0.3581 -0.3671 -1.3734
   91CHL1   C20 9190   1.235   6.128   8.215  0.2746  0.3012  0.5484
   91CHL1   H20 9191   1.129   6.150   8.189  0.5050 -0.8557 -1.4254
   91CHL1   C21 9192   1.314   6.258   8.255  0.0359 -0.3221  0.2596
   91CHL1  H21A 9193   1.260   6.304   8.340  1.0695  0.7134  0.3596
   91CHL1  H21B 9194   1.316   6.337   8.176  0.7672 -2.3466 -1.8228
   91CHL1  H21C 9195   1.417   6.225   8.280  0.6650  1.3134 -0.0953
   91CHL1   C22 9196   1.223   6.042   8.343  0.3946  0.0499 -0.4896
   91CHL1  H22A 9197   1.186   6.104   8.427  0.7694  0.4086 -0.5880
   91CHL1  H22B 9198   1.152   5.958   8.329  1.9872 -1.5075  0.5542
   91CHL1   C23 9199   1.337   5.969   8.408 -0.1006  0.1558 -0.5911
   91CHL1  H23A 9200   1.365   5.890   8.334  1.7532 -1.5143  1.7951
   91CHL1  H23B 9201   1.426   6.030   8.433  0.2905 -0.3915 -0.6230
   91CHL1   C24 9202   1.300   5.872   8.531  0.5400 -0.7518 -0.0111
   91CHL1  H24A 9203   1.210   5.814   8.503  0.0637 -0.8773  1.7185
   91CHL1  H24B 9204   1.381   5.802   8.561  3.1896  1.8634 -0.7202
   91CHL1   C25 9205   1.264   5.943   8.665 -0.2183  0.0513 -0.2077
   91CHL1   H25 9206   1.186   6.018   8.639 -2.1385 -1.9118 -0.1765
   91CHL1   C26 9207   1.209   5.841   8.767 -0.2791 -0.4719 -0.4328
   91CHL1  H26A 9208   1.116   5.795   8.727 -0.6094  0.6048 -0.9066
   91CHL1  H26B 9209   1.279   5.755   8.780  0.9516  0.5793  0.0090
   91CHL1  H26C 9210   1.193   5.877   8.870  0.5024 -0.8466 -0.1742
   91CHL1   C27 9211   1.386   6.013   8.734  0.3619  0.0316  0.1311
   91CHL1  H27A 9212   1.460   5.931   8.749  2.0868  1.2932 -1.3387
   91CHL1  H27B 9213   1.421   6.089   8.661  0.5717 -0.4727 -0.2947
   91CHL1  H27C 9214   1.358   6.058   8.831  2.7450  0.7236  0.5307
   92CHL1    C3 9215   4.861   1.267   6.948  0.0379  0.2681 -0.0836
   92CHL1    H3 9216   4.922   1.344   6.999  1.9155 -1.0670 -0.2606
   92CHL1    O3 9217   4.885   1.276   6.806  0.3788 -0.3332  0.2809
   92CHL1   H3' 9218   4.854   1.359   6.770 -1.0169 -0.4715  1.1472
   92CHL1    C4 9219   4.885   1.127   6.994  0.6775  0.0475  0.0613
   92CHL1   H4A 9220   4.825   1.056   6.933  1.0747 -1.0860  0.9616
   92CHL1   H4B 9221   4.988   1.090   6.975  1.1030  0.9848  0.5214
   92CHL1    C5 9222   4.849   1.110   7.143  0.3005  0.0925  0.1978
   92CHL1    C6 9223   4.946   1.086   7.235  0.6571  0.3055  1.2916
   92CHL1    H6 9224   5.050   1.074   7.202 -0.0152 -1.1774 -0.3775
   92CHL1    C7 9225   4.927   1.077   7.381  0.6581 -0.7637 -0.0080
   92CHL1   H7A 9226   4.962   0.978   7.417  0.7580 -1.3766 -1.7234
   92CHL1   H7B 9227   4.975   1.167   7.424 -0.7870 -0.4037  0.8829
   92CHL1    C8 9228   4.771   1.063   7.411  0.5179 -0.0290 -0.1444
   92CHL1    H8 9229   4.741   0.962   7.378  0.6307 -0.1005 -0.0282
   92CHL1   C14 9230   4.752   1.090   7.556 -0.2046 -0.2909 -0.2350
   92CHL1   H14 9231   4.768   1.199   7.574 -0.0969 -0.6749  2.0951
   92CHL1   C15 9232   4.845   1.023   7.661  0.5312 -0.6488 -0.6293
   92CHL1  H15A 9233   4.860   0.914   7.650 -1.5942 -1.0231  0.1612
   92CHL1  H15B 9234   4.941   1.081   7.663  0.0817  0.0778  0.0462
   92CHL1   C16 9235   4.778   1.044   7.799  0.4456  0.1807  0.0355
   92CHL1  H16A 9236   4.777   0.946   7.852 -0.0778  0.9496  1.4723
   92CHL1  H16B 9237   4.836   1.120   7.855 -1.4986  2.3755 -0.8488
   92CHL1   C17 9238   4.634   1.097   7.769 -0.6773 -0.3477  0.0596
   92CHL1   H17 9239   4.643   1.206   7.786 -2.3391 -0.6205  3.2207
   92CHL1   C13 9240   4.609   1.074   7.618 -0.4608  0.1391  0.5546
   92CHL1   C18 9241   4.552   0.929   7.588 -0.1268 -0.0901  0.3066
   92CHL1  H18A 9242   4.441   0.927   7.596 -0.1189 -0.0198  0.4499
   92CHL1  H18B 9243   4.572   0.896   7.484 -0.5694  1.4205 -0.2654
   92CHL1  H18C 9244   4.612   0.861   7.653 -1.2172  0.0187  1.4492
   92CHL1   C12 9245   4.520   1.184   7.540 -0.2449  0.4022 -0.6228
   92CHL1  H12A 9246   4.415   1.157   7.561  0.4439 -2.9445 -1.1751
   92CHL1  H12B 9247   4.537   1.285   7.584  1.7228  0.9525 -2.5462
   92CHL1   C11 9248   4.536   1.161   7.388 -0.4391 -0.0470 -0.0847
   92CHL1  H11A 9249   4.499   1.058   7.369 -0.0013 -0.5468  1.6584
   92CHL1  H11B 9250   4.480   1.232   7.325 -2.1187 -1.5871 -0.3637
   92CHL1    C9 9251   4.685   1.156   7.342  0.1799 -0.1291 -0.7644
   92CHL1    H9 9252   4.718   1.260   7.365 -0.0195 -0.3641  0.6103
   92CHL1   C10 9253   4.710   1.150   7.190  0.5455 -0.9577  0.0053
   92CHL1   C19 9254   4.623   1.037   7.135  0.2940  0.0731 -0.2943
   92CHL1  H19A 9255   4.649   0.933   7.163 -3.8780 -0.8931  0.4157
   92CHL1  H19B 9256   4.515   1.049   7.161  0.0235 -0.7214 -1.0499
   92CHL1  H19C 9257   4.624   1.035   7.024 -1.2533 -0.0109 -0.3208
   92CHL1    C1 9258   4.683   1.291   7.126  0.0079 -0.4106 -0.1472
   92CHL1   H1A 9259   4.578   1.317   7.150 -0.7532 -3.0049 -0.5073
   92CHL1   H1B 9260   4.745   1.367   7.179  1.1983 -1.1887 -0.3974
   92CHL1    C2 9261   4.713   1.303   6.976  0.4879 -0.0132  0.0228
   92CHL1   H2A 9262   4.696   1.404   6.934  2.3338  0.4332  0.2803
   92CHL1   H2B 9263   4.641   1.239   6.921 -0.8605  0.2278  1.4564
   92CHL1   C20 9264   4.527   1.061   7.871 -0.4628  0.0776 -0.6746
   92CHL1   H20 9265   4.521   0.950   7.873  1.3116 -0.0196  0.4808
   92CHL1   C21 9266   4.385   1.108   7.830  0.5021 -0.6097 -0.2202
   92CHL1  H21A 9267   4.371   1.218   7.831 -0.6315 -0.7496  1.3013
   92CHL1  H21B 9268   4.309   1.063   7.897 -1.2595  2.3412 -0.1833
   92CHL1  H21C 9269   4.359   1.068   7.730  0.8949  1.4174 -1.1513
   92CHL1   C22 9270   4.563   1.096   8.018  0.1329 -0.4127 -0.9041
   92CHL1  H22A 9271   4.653   1.039   8.051  0.1258  1.4388  2.4335
   92CHL1  H22B 9272   4.585   1.204   8.026 -0.6102 -0.2044 -1.5648
   92CHL1   C23 9273   4.457   1.056   8.123  0.5886 -0.5271  0.3965
   92CHL1  H23A 9274   4.358   1.101   8.097  0.1554 -1.5188  0.3072
   92CHL1  H23B 9275   4.444   0.947   8.106  3.4994 -1.2052  2.2533
   92CHL1   C24 9276   4.506   1.087   8.265 -0.2882 -0.2097  0.0747
   92CHL1  H24A 9277   4.599   1.029   8.284  0.4859  1.2984  0.9583
   92CHL1  H24B 9278   4.540   1.192   8.275 -2.5374  0.5959 -0.4187
   92CHL1   C25 9279   4.404   1.072   8.376 -0.1426  0.2563 -0.6024
   92CHL1   H25 9280   4.454   1.088   8.474  0.9163  1.1947 -1.2855
   92CHL1   C26 9281   4.284   1.162   8.360  0.2346  0.2563 -0.8503
   92CHL1  H26A 9282   4.231   1.148   8.263 -0.7844  1.6425 -0.5123
   92CHL1  H26B 9283   4.216   1.163   8.447 -0.8397 -0.6963 -1.6643
   92CHL1  H26C 9284   4.324   1.266   8.353 -1.9199  1.1363 -0.3534
   92CHL1   C27 9285   4.348   0.929   8.382  0.0262 -0.0950 -0.8785
   92CHL1  H27A 9286   4.288   0.924   8.476  1.4447  0.1129  0.0533
   92CHL1  H27B 9287   4.276   0.913   8.299  2.4532 -2.2752 -2.6443
   92CHL1  H27C 9288   4.422   0.847   8.390  0.8692  0.8639  1.8676
   93CHL1    C3 9289   3.123   5.888   7.101  0.4648 -0.0383  0.0415
   93CHL1    H3 9290   3.017   5.917   7.116  0.6602  1.0936 -0.6940
   93CHL1    O3 9291   3.149   5.881   6.960  0.0744 -0.4451 -0.2204
   93CHL1   H3' 9292   3.084   5.819   6.927 -1.6026 -0.0781  2.2684
   93CHL1    C4 9293   3.218   5.997   7.159  0.6506 -0.8720  0.2721
   93CHL1   H4A 9294   3.322   5.968   7.130 -0.4669 -4.0983 -0.7753
   93CHL1   H4B 9295   3.190   6.090   7.104 -0.3687 -1.3192  0.0141
   93CHL1    C5 9296   3.214   5.999   7.309  0.1766  0.2107  0.6636
   93CHL1    C6 9297   3.191   6.114   7.371  0.1926  0.6112  0.4758
   93CHL1    H6 9298   3.185   6.199   7.302 -1.0450  2.0953  2.3479
   93CHL1    C7 9299   3.176   6.143   7.520 -0.3622 -0.0304  0.5339
   93CHL1   H7A 9300   3.249   6.224   7.541 -1.2025  0.7660  0.4562
   93CHL1   H7B 9301   3.073   6.183   7.537 -0.2821  2.0493 -3.3824
   93CHL1    C8 9302   3.203   6.024   7.611 -0.5707  0.2475 -0.3062
   93CHL1    H8 9303   3.311   6.015   7.637 -0.2084 -0.4494 -2.0093
   93CHL1   C14 9304   3.131   6.031   7.745  0.0971  0.2372 -0.0535
   93CHL1   H14 9305   3.022   6.029   7.722  0.3635 -0.5352 -1.2659
   93CHL1   C15 9306   3.159   6.156   7.829  0.2887  0.7513 -0.2229
   93CHL1  H15A 9307   3.263   6.195   7.821  0.5136  0.5572  1.4421
   93CHL1  H15B 9308   3.102   6.240   7.784  2.3844  1.8986 -0.8017
   93CHL1   C16 9309   3.106   6.116   7.967  0.1929  0.5211  0.2953
   93CHL1  H16A 9310   3.192   6.128   8.036 -0.1463  1.9896  0.4824
   93CHL1  H16B 9311   3.021   6.182   7.993 -0.0550  0.1638  0.3999
   93CHL1   C17 9312   3.081   5.965   7.962  0.3231  0.1062 -0.9462
   93CHL1   H17 9313   2.971   5.950   7.952  0.3173 -0.1603 -0.5124
   93CHL1   C13 9314   3.149   5.913   7.834 -0.6029 -0.1412 -0.6704
   93CHL1   C18 9315   3.297   5.896   7.872 -0.1118 -0.8126 -0.0662
   93CHL1  H18A 9316   3.339   5.983   7.927  0.8890 -0.1565 -1.8354
   93CHL1  H18B 9317   3.296   5.808   7.939 -0.3057 -0.7205  0.0540
   93CHL1  H18C 9318   3.354   5.866   7.782  0.8015 -1.9749  0.8811
   93CHL1   C12 9319   3.094   5.788   7.765  0.7809 -0.9586 -0.4043
   93CHL1  H12A 9320   3.129   5.707   7.834  1.7229 -0.5265 -0.3581
   93CHL1  H12B 9321   2.985   5.806   7.772  0.7106 -0.9575 -1.5034
   93CHL1   C11 9322   3.158   5.762   7.621 -0.2353  0.6567 -0.3703
   93CHL1  H11A 9323   3.263   5.729   7.634 -0.4464 -0.8380 -2.2062
   93CHL1  H11B 9324   3.104   5.673   7.582 -1.5680  2.7968 -3.6716
   93CHL1    C9 9325   3.162   5.893   7.531  0.4395 -0.1312  0.2811
   93CHL1    H9 9326   3.053   5.906   7.518  0.4919  1.4108  1.3219
   93CHL1   C10 9327   3.221   5.867   7.389  0.2079 -0.0282 -0.6596
   93CHL1   C19 9328   3.370   5.834   7.401 -0.0259  0.7599  0.4458
   93CHL1  H19A 9329   3.408   5.904   7.478 -0.2773 -1.3453  2.5563
   93CHL1  H19B 9330   3.383   5.734   7.448 -0.4584  0.1509 -0.6825
   93CHL1  H19C 9331   3.413   5.827   7.299 -2.7413 -1.2132 -0.6312
   93CHL1    C1 9332   3.143   5.754   7.319  0.0367  0.3209 -0.0265
   93CHL1   H1A 9333   3.176   5.654   7.352  1.8941  1.0517  0.4027
   93CHL1   H1B 9334   3.035   5.764   7.343  0.0265  1.0586 -0.3462
   93CHL1    C2 9335   3.151   5.753   7.163  0.2614  0.3435  0.7871
   93CHL1   H2A 9336   3.087   5.672   7.124 -1.5192  1.3956  1.4751
   93CHL1   H2B 9337   3.253   5.723   7.130  0.7424  0.4901  2.0979
   93CHL1   C20 9338   3.101   5.894   8.102  0.8279  0.3639 -0.7760
   93CHL1   H20 9339   3.202   5.901   8.148  0.0546 -1.5139  1.3124
   93CHL1   C21 9340   3.055   5.742   8.091 -0.1184  0.0976  0.0160
   93CHL1  H21A 9341   3.051   5.694   8.191  0.4708  0.9574  0.4618
   93CHL1  H21B 9342   3.135   5.683   8.042 -0.1639 -1.1920  1.4609
   93CHL1  H21C 9343   2.964   5.739   8.027  1.2679  2.4750 -2.1469
   93CHL1   C22 9344   3.005   5.966   8.200  0.1716  0.5020  0.6369
   93CHL1  H22A 9345   3.045   6.069   8.203  1.2166  0.1256 -0.0197
   93CHL1  H22B 9346   2.903   5.968   8.156  0.7573 -2.7921 -1.0660
   93CHL1   C23 9347   2.996   5.906   8.342 -0.3324  0.4722 -0.5132
   93CHL1  H23A 9348   2.919   5.970   8.391 -0.1830  2.2579 -2.5126
   93CHL1  H23B 9349   2.956   5.802   8.342 -0.4100  0.4981  0.2601
   93CHL1   C24 9350   3.124   5.918   8.410 -0.2930  0.0387 -0.7552
   93CHL1  H24A 9351   3.203   5.859   8.359  1.0494  0.4183  0.8511
   93CHL1  H24B 9352   3.144   6.027   8.423  0.4582 -0.2847  0.9187
   93CHL1   C25 9353   3.121   5.858   8.557 -0.0477  0.2941 -0.0848
   93CHL1   H25 9354   3.208   5.903   8.608  0.2620 -0.5536  0.1394
   93CHL1   C26 9355   2.992   5.890   8.637 -0.3268  0.3369 -0.0594
   93CHL1  H26A 9356   2.949   5.989   8.610 -1.9773 -0.5162 -0.6419
   93CHL1  H26B 9357   2.907   5.823   8.615  0.7090 -0.2887 -2.3074
   93CHL1  H26C 9358   3.010   5.873   8.745 -1.0117 -0.5037 -0.0689
   93CHL1   C27 9359   3.135   5.708   8.551  0.0560 -0.3311  0.1316
   93CHL1  H27A 9360   3.237   5.694   8.510 -0.1382 -1.7013  0.0758
   93CHL1  H27B 9361   3.134   5.655   8.649  1.5612 -1.3226 -0.3664
   93CHL1  H27C 9362   3.065   5.654   8.484 -2.3509 -0.0298  2.3039
   94CHL1    C3 9363   5.755   1.840   6.880  0.1795 -0.4874 -0.3997
   94CHL1    H3 9364   5.728   1.733   6.889  0.3724 -0.5594 -0.6767
   94CHL1    O3 9365   5.805   1.841   6.747  0.0633 -0.1174 -0.1316
   94CHL1   H3' 9366   5.732   1.821   6.688  0.2788  1.8765 -1.1030
   94CHL1    C4 9367   5.637   1.936   6.892 -0.0800  0.8330  0.1491
   94CHL1   H4A 9368   5.686   2.033   6.866  1.1011  0.3166  0.4292
   94CHL1   H4B 9369   5.566   1.914   6.809  1.3826 -0.7782 -0.7084
   94CHL1    C5 9370   5.568   1.936   7.026  0.2626 -0.1670 -0.7314
   94CHL1    C6 9371   5.439   1.912   7.038  0.7369  0.2249 -0.0067
   94CHL1    H6 9372   5.377   1.899   6.948  1.5397 -2.2115 -0.2265
   94CHL1    C7 9373   5.359   1.913   7.170  0.2195  0.3271 -0.1085
   94CHL1   H7A 9374   5.273   1.984   7.163 -1.6812 -2.0268 -1.6331
   94CHL1   H7B 9375   5.315   1.812   7.185 -0.7691  0.7519 -0.0691
   94CHL1    C8 9376   5.450   1.953   7.289  0.0860 -0.0771  0.4485
   94CHL1    H8 9377   5.460   2.063   7.289  1.7941 -0.1221 -4.4991
   94CHL1   C14 9378   5.387   1.890   7.414  0.1784 -0.0034 -0.0468
   94CHL1   H14 9379   5.409   1.782   7.398  1.0278  0.4051 -1.7405
   94CHL1   C15 9380   5.240   1.927   7.459 -0.4473  0.5601  0.5910
   94CHL1  H15A 9381   5.221   2.033   7.434 -1.4519  0.3316  0.3748
   94CHL1  H15B 9382   5.174   1.853   7.409  1.3847 -0.4673 -0.3912
   94CHL1   C16 9383   5.234   1.898   7.610  0.3689  0.1427 -1.0652
   94CHL1  H16A 9384   5.205   1.982   7.677 -4.8911 -3.8473  2.0909
   94CHL1  H16B 9385   5.175   1.807   7.635  0.0580  1.1160  1.9003
   94CHL1   C17 9386   5.380   1.854   7.648 -0.0845 -0.1589  0.2108
   94CHL1   H17 9387   5.397   1.747   7.621 -0.0327 -0.3700  1.0722
   94CHL1   C13 9388   5.463   1.925   7.542 -0.2745 -0.7797 -0.0844
   94CHL1   C18 9389   5.468   2.071   7.566 -0.3524 -0.0292  0.5783
   94CHL1  H18A 9390   5.510   2.137   7.487  0.3852  0.0217  1.0046
   94CHL1  H18B 9391   5.369   2.121   7.580 -1.5072 -1.3396 -2.5691
   94CHL1  H18C 9392   5.533   2.099   7.652 -0.9120  2.3668  0.2687
   94CHL1   C12 9393   5.607   1.878   7.526 -0.1066  0.1483  0.0904
   94CHL1  H12A 9394   5.675   1.913   7.607  1.0499  1.2116 -1.3126
   94CHL1  H12B 9395   5.611   1.767   7.525  1.1850  0.1451  1.9008
   94CHL1   C11 9396   5.677   1.930   7.404 -0.2231 -0.0642  0.7267
   94CHL1  H11A 9397   5.701   2.038   7.421  0.7779 -0.5897  2.7690
   94CHL1  H11B 9398   5.778   1.886   7.390 -0.3857 -0.2939  0.2725
   94CHL1    C9 9399   5.595   1.907   7.274  0.8180 -0.5809  0.3779
   94CHL1    H9 9400   5.576   1.798   7.266 -0.8602 -0.1312 -2.3652
   94CHL1   C10 9401   5.666   1.949   7.140 -0.8305 -0.3126  0.2736
   94CHL1   C19 9402   5.708   2.097   7.153 -0.5405  0.0750 -0.0915
   94CHL1  H19A 9403   5.749   2.122   7.053  1.5438 -1.7755  0.2635
   94CHL1  H19B 9404   5.628   2.172   7.174 -0.4406  0.6450 -1.6509
   94CHL1  H19C 9405   5.786   2.113   7.231 -0.8963 -1.7235  0.6455
   94CHL1    C1 9406   5.791   1.858   7.124 -0.0285  0.2110  0.6398
   94CHL1   H1A 9407   5.872   1.894   7.190 -1.4394  0.2250  2.4042
   94CHL1   H1B 9408   5.764   1.755   7.154  0.1845  0.3703  1.3925
   94CHL1    C2 9409   5.860   1.852   6.986 -0.3914 -0.2063 -1.1306
   94CHL1   H2A 9410   5.920   1.758   6.989  0.9212  0.6526  0.3284
   94CHL1   H2B 9411   5.935   1.933   6.974  0.3711 -0.4476  1.6661
   94CHL1   C20 9412   5.413   1.878   7.798  0.0217  0.4869  0.5016
   94CHL1   H20 9413   5.437   1.985   7.813  1.3192  0.1438  0.9366
   94CHL1   C21 9414   5.539   1.791   7.832 -0.1854 -0.4521  0.4539
   94CHL1  H21A 9415   5.554   1.763   7.939  0.4818  0.6709  0.6638
   94CHL1  H21B 9416   5.628   1.856   7.811 -0.0404 -0.4110  1.1691
   94CHL1  H21C 9417   5.546   1.703   7.765  1.2423  0.7599 -1.0534
   94CHL1   C22 9418   5.297   1.828   7.888  0.2089 -0.1016  0.0366
   94CHL1  H22A 9419   5.207   1.890   7.870  0.5617  0.5250  0.3912
   94CHL1  H22B 9420   5.282   1.720   7.868  2.1483  0.0609 -2.7045
   94CHL1   C23 9421   5.319   1.842   8.038  1.0204 -1.2175 -0.3303
   94CHL1  H23A 9422   5.394   1.766   8.067  0.4631 -2.0304 -0.9780
   94CHL1  H23B 9423   5.342   1.950   8.055  1.0231 -0.8464 -2.4691
   94CHL1   C24 9424   5.192   1.813   8.128  0.0810  0.7007 -0.1178
   94CHL1  H24A 9425   5.100   1.873   8.107 -0.0443  0.2542 -0.8603
   94CHL1  H24B 9426   5.158   1.710   8.106  0.2507  0.9293 -1.5106
   94CHL1   C25 9427   5.213   1.820   8.279  0.3116  0.1459  0.1131
   94CHL1   H25 9428   5.312   1.772   8.298 -1.0648 -2.9903 -0.2657
   94CHL1   C26 9429   5.225   1.962   8.317  0.2987  0.3537  0.0075
   94CHL1  H26A 9430   5.238   1.967   8.427 -0.2653  0.1387  0.0857
   94CHL1  H26B 9431   5.307   2.020   8.271 -0.0796  1.6175  0.9010
   94CHL1  H26C 9432   5.128   2.010   8.294  0.7701  1.3360  0.0669
   94CHL1   C27 9433   5.110   1.730   8.353  0.5070 -0.1145  0.1248
   94CHL1  H27A 9434   5.093   1.628   8.309 -0.5504  0.2046 -0.2344
   94CHL1  H27B 9435   5.123   1.733   8.463 -3.2166 -1.9269  0.6986
   94CHL1  H27C 9436   5.009   1.773   8.336  0.8062  0.1038 -1.1370
   95CHL1    C3 9437   5.576   1.160   6.700 -0.2154 -0.7680 -0.1495
   95CHL1    H3 9438   5.487   1.212   6.742 -0.7326 -1.8889  0.1677
   95CHL1    O3 9439   5.560   1.137   6.559 -0.7355 -0.0080  0.3993
   95CHL1   H3' 9440   5.557   1.226   6.522 -1.7105 -0.9149 -1.8244
   95CHL1    C4 9441   5.698   1.246   6.738 -0.3308 -0.0378  0.3221
   95CHL1   H4A 9442   5.787   1.186   6.713 -1.3722 -0.8869 -1.4468
   95CHL1   H4B 9443   5.692   1.337   6.674  0.0005  0.2222  0.6559
   95CHL1    C5 9444   5.682   1.278   6.888 -0.3151  0.3537  0.0173
   95CHL1    C6 9445   5.661   1.403   6.929 -0.5081 -0.2058  0.2192
   95CHL1    H6 9446   5.646   1.486   6.858  0.4179  1.2906  1.7224
   95CHL1    C7 9447   5.657   1.447   7.077  0.8630  0.4182 -0.2739
   95CHL1   H7A 9448   5.710   1.540   7.106 -0.9509  2.1346 -2.2453
   95CHL1   H7B 9449   5.550   1.456   7.106  1.0857 -0.6638  0.9846
   95CHL1    C8 9450   5.719   1.338   7.164  0.4748  0.3846 -0.9152
   95CHL1    H8 9451   5.827   1.327   7.138  0.7082  0.6402 -0.0677
   95CHL1   C14 9452   5.702   1.367   7.313  0.0924 -0.2910  0.5103
   95CHL1   H14 9453   5.593   1.364   7.334 -0.1324 -0.4322 -0.6878
   95CHL1   C15 9454   5.732   1.513   7.365 -0.0866 -0.4425 -0.3603
   95CHL1  H15A 9455   5.818   1.568   7.321 -1.2671  0.5623 -1.4477
   95CHL1  H15B 9456   5.654   1.592   7.356 -2.5036 -2.6080  0.8270
   95CHL1   C16 9457   5.743   1.493   7.520 -0.3305  0.4661  0.5738
   95CHL1  H16A 9458   5.841   1.524   7.562  0.9064 -0.7256 -1.3852
   95CHL1  H16B 9459   5.653   1.537   7.570 -1.7580 -0.2234 -1.3455
   95CHL1   C17 9460   5.737   1.332   7.546 -0.3943  0.2267 -0.0345
   95CHL1   H17 9461   5.633   1.298   7.563 -0.0008  0.1554  2.3420
   95CHL1   C13 9462   5.776   1.268   7.408  0.4472  0.1822 -0.4740
   95CHL1   C18 9463   5.932   1.271   7.373  0.6230 -0.3819  0.6743
   95CHL1  H18A 9464   5.954   1.234   7.270 -0.6266  0.6575  0.0198
   95CHL1  H18B 9465   5.955   1.379   7.373  0.1844 -0.2574 -2.1842
   95CHL1  H18C 9466   5.992   1.207   7.441  2.2968 -0.3909 -0.7831
   95CHL1   C12 9467   5.701   1.140   7.375  0.4151  0.0823 -0.9986
   95CHL1  H12A 9468   5.732   1.058   7.443  0.4077 -0.0640 -1.1697
   95CHL1  H12B 9469   5.593   1.159   7.390  0.3263 -1.0763 -0.0842
   95CHL1   C11 9470   5.705   1.085   7.237  0.0148  0.5713 -0.4298
   95CHL1  H11A 9471   5.808   1.055   7.209  0.0810  0.9015 -0.5358
   95CHL1  H11B 9472   5.631   1.003   7.221 -1.2192  0.9871  2.7876
   95CHL1    C9 9473   5.664   1.193   7.128  0.2722 -0.7109 -0.2935
   95CHL1    H9 9474   5.553   1.195   7.138  0.2877 -2.0494  0.2324
   95CHL1   C10 9475   5.689   1.151   6.977 -0.0371  0.6010 -0.0479
   95CHL1   C19 9476   5.830   1.084   6.973  0.1772 -0.0954 -0.0317
   95CHL1  H19A 9477   5.869   1.068   6.870 -1.7581 -1.7580 -0.5529
   95CHL1  H19B 9478   5.913   1.139   7.022 -1.1106  2.9762 -1.1402
   95CHL1  H19C 9479   5.815   0.980   7.008  2.9069 -0.1258  1.1918
   95CHL1    C1 9480   5.575   1.059   6.928  0.0151  0.2961 -0.0268
   95CHL1   H1A 9481   5.562   0.965   6.986 -1.0038 -0.7226 -1.8647
   95CHL1   H1B 9482   5.479   1.112   6.946  0.4682  1.5759 -1.2516
   95CHL1    C2 9483   5.580   1.027   6.776 -0.0234  0.6747 -0.0561
   95CHL1   H2A 9484   5.489   0.973   6.745 -1.4103 -0.7200  5.7380
   95CHL1   H2B 9485   5.670   0.965   6.756  1.3771  2.6336 -0.0758
   95CHL1   C20 9486   5.819   1.288   7.666 -0.6170 -0.5850  0.5085
   95CHL1   H20 9487   5.927   1.285   7.638 -1.1835 -1.4469 -1.7178
   95CHL1   C21 9488   5.772   1.138   7.700 -0.3418  0.4045 -0.0725
   95CHL1  H21A 9489   5.662   1.126   7.697 -0.3369  0.5032 -0.7298
   95CHL1  H21B 9490   5.808   1.123   7.804 -0.4043  0.0283 -0.1061
   95CHL1  H21C 9491   5.815   1.066   7.628  0.5520  1.2217 -0.3809
   95CHL1   C22 9492   5.808   1.376   7.795  0.0054 -0.3553 -0.1467
   95CHL1  H22A 9493   5.858   1.328   7.882 -0.6481  0.7039  0.8386
   95CHL1  H22B 9494   5.847   1.480   7.788 -1.9026  0.3153 -1.2546
   95CHL1   C23 9495   5.660   1.390   7.847  0.2375  0.3142  0.7934
   95CHL1  H23A 9496   5.596   1.439   7.771  2.3428 -0.5584 -1.6045
   95CHL1  H23B 9497   5.631   1.283   7.851 -1.1767  0.7455  2.8431
   95CHL1   C24 9498   5.648   1.448   7.989 -0.5164  0.4137 -0.4296
   95CHL1  H24A 9499   5.721   1.402   8.060  0.1279  0.6944 -0.9065
   95CHL1  H24B 9500   5.669   1.556   7.980  0.6533  0.0591 -2.1461
   95CHL1   C25 9501   5.506   1.441   8.046  0.6157 -0.1632  0.0417
   95CHL1   H25 9502   5.447   1.509   7.981 -1.1827 -1.7435 -0.0241
   95CHL1   C26 9503   5.449   1.297   8.046 -0.0571 -0.5462  0.4425
   95CHL1  H26A 9504   5.471   1.240   7.953 -0.3747  0.6726 -0.3753
   95CHL1  H26B 9505   5.480   1.238   8.135 -0.9464  1.8634  2.4008
   95CHL1  H26C 9506   5.340   1.316   8.048  0.2698  1.3490  0.9042
   95CHL1   C27 9507   5.510   1.494   8.191  0.6528  0.0667  0.5529
   95CHL1  H27A 9508   5.546   1.599   8.183  0.7518  0.0064  0.1765
   95CHL1  H27B 9509   5.407   1.508   8.231  0.3418 -0.6953  0.0265
   95CHL1  H27C 9510   5.581   1.446   8.261 -0.0421 -2.0433 -0.1501
   96CHL1    C3 9511   5.030   0.067   6.703  0.2338 -0.7426 -0.4560
   96CHL1    H3 9512   4.944   0.116   6.752 -1.5239 -2.7184 -1.4617
   96CHL1    O3 9513   5.027   0.103   6.561 -0.2350  0.1924 -0.3367
   96CHL1   H3' 9514   5.013   0.197   6.571 -1.0836  0.1515 -1.0334
   96CHL1    C4 9515   5.156   0.123   6.773 -0.0895  0.4821 -0.0244
   96CHL1   H4A 9516   5.249   0.078   6.731  0.5533  0.3696  1.4764
   96CHL1   H4B 9517   5.156   0.232   6.754  4.5501  0.6744  0.5357
   96CHL1    C5 9518   5.155   0.092   6.918 -0.3946  0.4455  0.1987
   96CHL1    C6 9519   5.152   0.189   7.011  0.0331 -0.2008 -0.4730
   96CHL1    H6 9520   5.146   0.295   6.980  0.6633  0.4110  1.3886
   96CHL1    C7 9521   5.169   0.168   7.161  0.7669  0.1344  0.1422
   96CHL1   H7A 9522   5.234   0.248   7.203  0.4107 -0.6019  2.1546
   96CHL1   H7B 9523   5.075   0.195   7.214 -0.3086 -0.6525 -1.3401
   96CHL1    C8 9524   5.223   0.026   7.194 -0.6684  0.1067 -0.1740
   96CHL1    H8 9525   5.331   0.021   7.169 -0.5128  1.7500  0.1340
   96CHL1   C14 9526   5.198  -0.001   7.340 -0.0154  0.5770 -0.7493
   96CHL1   H14 9527   5.088   0.012   7.350  0.0820  0.6338  0.2773
   96CHL1   C15 9528   5.250   0.106   7.448  0.7008 -0.4260 -0.7138
   96CHL1  H15A 9529   5.350   0.139   7.411  0.3383  1.7659  0.2281
   96CHL1  H15B 9530   5.172   0.184   7.450 -0.5728 -1.5700 -3.0177
   96CHL1   C16 9531   5.261   0.021   7.577 -0.0346 -0.6463  0.2512
   96CHL1  H16A 9532   5.366   0.023   7.614 -1.2731 -2.9643  4.1731
   96CHL1  H16B 9533   5.195   0.061   7.657 -0.0249 -3.5759  1.7997
   96CHL1   C17 9534   5.219  -0.122   7.539  0.3010 -0.8658  0.0832
   96CHL1   H17 9535   5.110  -0.130   7.558  0.5919  1.4584  3.1629
   96CHL1   C13 9536   5.242  -0.137   7.388 -0.4649  0.1155  0.0062
   96CHL1   C18 9537   5.397  -0.160   7.354  0.3950 -0.1380  0.7163
   96CHL1  H18A 9538   5.453  -0.073   7.394  0.0413  0.5084 -0.1449
   96CHL1  H18B 9539   5.438  -0.256   7.392 -0.0778 -0.9148 -0.6945
   96CHL1  H18C 9540   5.426  -0.153   7.247 -1.1813  0.4461  0.3056
   96CHL1   C12 9541   5.166  -0.246   7.314 -0.2352 -0.3336 -0.3642
   96CHL1  H12A 9542   5.199  -0.349   7.338 -0.5525 -0.0919  1.2176
   96CHL1  H12B 9543   5.059  -0.238   7.345  0.1988  2.6314  0.5215
   96CHL1   C11 9544   5.178  -0.230   7.157  0.5612 -0.2047  0.4816
   96CHL1  H11A 9545   5.283  -0.247   7.125  0.6529  1.4014 -0.1222
   96CHL1  H11B 9546   5.114  -0.303   7.103 -0.1284  0.6270  0.1669
   96CHL1    C9 9547   5.144  -0.082   7.108  0.0251 -0.2004  0.0789
   96CHL1    H9 9548   5.038  -0.068   7.136 -0.2996 -1.7945 -0.3271
   96CHL1   C10 9549   5.150  -0.061   6.951 -0.0757  0.0706  0.0627
   96CHL1   C19 9550   5.284  -0.128   6.911 -0.7743  0.1756  0.2768
   96CHL1  H19A 9551   5.361  -0.100   6.985 -0.3209  1.6704 -0.7189
   96CHL1  H19B 9552   5.271  -0.238   6.905 -1.2507  0.1975  0.8885
   96CHL1  H19C 9553   5.327  -0.085   6.818 -0.0700  3.4468  2.0490
   96CHL1    C1 9554   5.033  -0.125   6.865  0.1572  0.1006  0.3109
   96CHL1   H1A 9555   5.052  -0.235   6.865 -1.9011 -0.2631  0.9341
   96CHL1   H1B 9556   4.930  -0.115   6.904 -0.2124 -0.6512 -0.4260
   96CHL1    C2 9557   5.023  -0.083   6.719 -0.2867  0.0877 -0.3323
   96CHL1   H2A 9558   4.943  -0.126   6.656  0.6355  0.1480 -1.5499
   96CHL1   H2B 9559   5.113  -0.117   6.664  1.4752  1.0572  1.8669
   96CHL1   C20 9560   5.290  -0.218   7.640  0.2991 -0.4685 -0.1759
   96CHL1   H20 9561   5.400  -0.205   7.630  0.5060 -1.3721  0.7863
   96CHL1   C21 9562   5.254  -0.366   7.630  0.7556 -0.2417  0.1880
   96CHL1  H21A 9563   5.146  -0.370   7.654  0.7796  3.5481  1.3129
   96CHL1  H21B 9564   5.312  -0.416   7.710 -0.8712 -0.1897  1.4002
   96CHL1  H21C 9565   5.273  -0.417   7.533  0.7363  0.0031  0.0548
   96CHL1   C22 9566   5.269  -0.176   7.793 -0.2299 -0.1252  0.7124
   96CHL1  H22A 9567   5.323  -0.253   7.853  1.4832  0.1589 -0.4091
   96CHL1  H22B 9568   5.330  -0.083   7.808  1.3913 -0.8478 -1.2093
   96CHL1   C23 9569   5.127  -0.142   7.849  0.2123  0.1006  0.3469
   96CHL1  H23A 9570   5.092  -0.053   7.792 -0.6785 -0.2703  0.3100
   96CHL1  H23B 9571   5.063  -0.231   7.832 -0.7433  1.0465 -1.1175
   96CHL1   C24 9572   5.135  -0.096   8.003  0.8092 -0.2761 -0.3511
   96CHL1  H24A 9573   5.197  -0.004   8.006  0.5772 -0.0972 -1.0093
   96CHL1  H24B 9574   5.036  -0.063   8.041  1.2722 -0.2139  0.8316
   96CHL1   C25 9575   5.187  -0.203   8.099 -0.2483 -0.0660  0.6427
   96CHL1   H25 9576   5.284  -0.243   8.064 -1.1115 -0.7400 -1.0708
   96CHL1   C26 9577   5.211  -0.147   8.240  0.1533  0.0558 -0.6994
   96CHL1  H26A 9578   5.282  -0.213   8.294 -0.9377  0.0807  0.7997
   96CHL1  H26B 9579   5.259  -0.048   8.235  1.2602 -0.5509 -2.5400
   96CHL1  H26C 9580   5.112  -0.153   8.291  1.7491 -1.8770  2.3597
   96CHL1   C27 9581   5.082  -0.325   8.102 -0.0398  0.4979 -0.0082
   96CHL1  H27A 9582   4.980  -0.290   8.130  0.7017  0.5743  2.7684
   96CHL1  H27B 9583   5.080  -0.374   8.003  0.2153 -0.7549  0.5994
   96CHL1  H27C 9584   5.122  -0.405   8.167  1.1075 -2.1714 -3.8744
   97OSM      N 9585   2.773   6.681  11.194 -0.2510  0.3403 -0.2014
   97OSM    C15 9586   2.721   6.812  11.240 -0.3903 -0.1567 -0.0744
   97OSM   H15A 9587   2.714   6.876  11.154  1.0917  0.9756  0.6228
   97OSM   H15B 9588   2.770   6.858  11.325 -0.6303 -1.3160  0.6989
   97OSM   H15C 9589   2.626   6.800  11.291 -2.6203  2.2372 -3.4983
   97OSM    C14 9590   2.793   6.595  11.311 -0.3187 -0.1441 -0.2227
   97OSM   H14A 9591   2.701   6.588  11.367 -1.7640 -1.2476 -2.6139
   97OSM   H14B 9592   2.863   6.635  11.382  0.2705 -2.7501  0.7220
   97OSM   H14C 9593   2.826   6.494  11.290 -0.9874 -0.4300  0.0880
   97OSM    C13 9594   2.663   6.604  11.117 -0.2267 -0.3601 -0.1639
   97OSM   H13A 9595   2.688   6.505  11.083 -2.0513 -1.4006  1.4766
   97OSM   H13B 9596   2.639   6.661  11.029 -0.7470  2.2500  1.6003
   97OSM   H13C 9597   2.574   6.605  11.178 -1.3028 -1.2946 -1.7132
   97OSM    C12 9598   2.897   6.693  11.104  0.1834 -0.5399  0.2748
   97OSM   H12A 9599   2.912   6.594  11.064 -0.7775 -1.1370  1.3448
   97OSM   H12B 9600   2.971   6.721  11.177  1.7422 -3.4505 -0.1104
   97OSM    C11 9601   2.900   6.798  10.996  0.0403  0.7575  0.1754
   97OSM   H11A 9602   2.804   6.790  10.942  1.2482  0.3042 -1.9317
   97OSM   H11B 9603   2.984   6.782  10.926 -1.4805 -0.5561 -1.3632
   97OSM      P 9604   3.028   7.001  11.096 -0.0678  0.1631  0.2314
   97OSM    O13 9605   2.999   7.079  11.215  0.9947 -0.0103 -0.1348
   97OSM    O14 9606   3.139   6.902  11.108  0.1409  0.4768  0.4631
   97OSM    O11 9607   3.061   7.101  10.981 -0.3077  0.3271  0.7075
   97OSM    O12 9608   2.896   6.927  11.054 -0.0818 -0.5858 -0.2775
   97OSM    C1S 9609   2.964   7.183  10.914 -0.8962 -0.6998 -0.5640
   97OSM    H1S 9610   2.952   7.275  10.974  0.2932 -1.2880  0.5943
   97OSM    H1T 9611   2.865   7.134  10.923 -3.2304  3.5546 -1.4920
   97OSM     NF 9612   2.905   7.309  10.700 -0.6539  0.2398  0.1898
   97OSM    HNF 9613   2.855   7.269  10.623  0.3580  0.5750 -0.6495
   97OSM    C2S 9614   2.998   7.222  10.764 -0.8956 -0.6489  0.2544
   97OSM    H2S 9615   3.094   7.279  10.768 -1.5848  0.6815 -1.4288
   97OSM    C3S 9616   3.025   7.092  10.682  0.6092  0.1527 -0.3727
   97OSM    H3S 9617   2.928   7.039  10.670  0.3422  0.0095  2.1812
   97OSM     O3 9618   3.111   6.999  10.745  0.0812 -0.1115 -0.8029
   97OSM    HO3 9619   3.118   7.028  10.836  3.4993  1.7999 -1.5974
   97OSM    C4S 9620   3.064   7.124  10.537 -0.3321  1.2798 -0.2058
   97OSM    H4S 9621   2.980   7.100  10.470  0.3760 -0.2358 -0.5619
   97OSM    C5S 9622   3.191   7.154  10.497 -0.0380  0.4660  0.7351
   97OSM    H5S 9623   3.283   7.140  10.555  1.2859  2.8434 -0.6871
   97OSM    C6S 9624   3.236   7.172  10.354  0.1549 -0.3074  0.1379
   97OSM    H6S 9625   3.345   7.192  10.359  0.3960 -1.3467 -0.6220
   97OSM    H6T 9626   3.181   7.258  10.312 -2.7648 -1.9422  0.4610
   97OSM    C7S 9627   3.212   7.057  10.250 -0.0934 -0.4621 -0.4359
   97OSM    H7S 9628   3.104   7.039  10.235 -0.0909 -1.9889  1.0994
   97OSM    H7T 9629   3.253   6.956  10.272 -1.6116 -1.3594 -1.7212
   97OSM    C8S 9630   3.283   7.088  10.115 -1.3883 -0.3686  0.2391
   97OSM    H8S 9631   3.392   7.070  10.130 -1.6409 -2.2327  0.0429
   97OSM    H8T 9632   3.261   7.195  10.096  0.0164 -0.2721 -0.9585
   97OSM    C9S 9633   3.251   6.999   9.996  0.2770  0.8551 -0.7736
   97OSM    H9S 9634   3.145   7.010   9.963  0.3541  1.1257 -0.9333
   97OSM    H9T 9635   3.262   6.890  10.013  0.3052  1.3137  2.3479
   97OSM   C10S 9636   3.341   7.030   9.866 -0.7964 -0.1082  0.1453
   97OSM   H10S 9637   3.448   7.034   9.893 -0.7921 -0.4190  0.1791
   97OSM   H10T 9638   3.316   7.132   9.830  1.3424  0.1818 -0.6161
   97OSM   C11S 9639   3.312   6.935   9.759 -0.0194  0.4512  0.7424
   97OSM   H11S 9640   3.201   6.938   9.757 -0.1395 -2.4922 -0.9949
   97OSM   H11T 9641   3.347   6.830   9.771 -0.0819  0.4151  0.6154
   97OSM   C12S 9642   3.362   6.980   9.620 -0.2192 -0.2059  0.2665
   97OSM   H12S 9643   3.382   6.897   9.550 -2.0209  1.3601 -2.1977
   97OSM   H12T 9644   3.454   7.041   9.622 -1.6668  2.1264 -1.1596
   97OSM   C13S 9645   3.264   7.059   9.533 -0.2976  0.3823  0.2965
   97OSM   H13S 9646   3.225   7.134   9.606 -0.5183 -0.0942  0.6660
   97OSM   H13T 9647   3.192   6.980   9.503 -0.6257  0.8563 -0.1883
   97OSM   C14S 9648   3.331   7.125   9.410  0.9680 -0.0576 -0.0609
   97OSM   H14S 9649   3.363   7.230   9.429 -2.5175  1.0524  0.0368
   97OSM   H14T 9650   3.246   7.139   9.339  0.1151  0.8321  1.1102
   97OSM   C15S 9651   3.435   7.042   9.331  0.0257 -0.5071 -0.7429
   97OSM   H15S 9652   3.380   6.948   9.311  0.6489 -0.3973 -3.1838
   97OSM   H15T 9653   3.529   7.025   9.389  0.2690  3.2768  0.1066
   97OSM   C16S 9654   3.473   7.115   9.204 -0.1167  0.4808 -0.6539
   97OSM   H16S 9655   3.576   7.076   9.193  0.3679  1.5273  0.0975
   97OSM   H16T 9656   3.487   7.223   9.226  0.8245  0.0198  1.1198
   97OSM   C17S 9657   3.392   7.080   9.077 -0.9581 -0.7277 -0.4105
   97OSM   H17S 9658   3.291   7.122   9.093 -0.8386 -0.5491 -0.1218
   97OSM   H17T 9659   3.378   6.974   9.047  0.8046 -0.8887 -0.7136
   97OSM   C18S 9660   3.474   7.144   8.965  0.5206 -0.0639  0.1206
   97OSM   H18S 9661   3.576   7.102   8.978 -0.4857 -2.4003  0.7200
   97OSM   H18T 9662   3.482   7.254   8.977 -1.1706 -0.0210  0.9087
   97OSM   H18U 9663   3.437   7.131   8.861 -0.2226  0.4971  0.3147
   97OSM    C1F 9664   2.875   7.430  10.751  0.5854 -0.2412 -0.2620
   97OSM     OF 9665   2.943   7.480  10.840  0.2282 -0.5110 -0.2730
   97OSM    C2F 9666   2.761   7.499  10.686  0.3763 -1.1276 -0.2560
   97OSM    H2F 9667   2.710   7.554  10.768  2.0325  3.5227 -2.1651
   97OSM    H2G 9668   2.694   7.417  10.652 -0.3274 -0.3664 -0.7216
   97OSM    C3F 9669   2.806   7.602  10.575  0.1140 -0.8185  0.6569
   97OSM    H3F 9670   2.870   7.680  10.622  1.1456 -2.3646  1.8776
   97OSM    H3G 9671   2.710   7.647  10.545  0.1544 -0.5525  0.9187
   97OSM    C4F 9672   2.881   7.546  10.455  0.3753 -0.5551 -0.5412
   97OSM    H4F 9673   2.970   7.506  10.508  3.8243  4.4328 -2.1354
   97OSM    H4G 9674   2.914   7.634  10.396  1.9167 -0.4676  0.4310
   97OSM    C5F 9675   2.816   7.445  10.366  0.3396  0.6004  0.7573
   97OSM    H5F 9676   2.716   7.487  10.343  0.0050  0.0549  1.1843
   97OSM    H5G 9677   2.803   7.348  10.419 -1.6154  0.3599 -0.1116
   97OSM    C6F 9678   2.906   7.413  10.244 -0.8216  0.4613 -0.1772
   97OSM    H6F 9679   3.012   7.395  10.270 -0.4645  1.4396 -0.9400
   97OSM    H6G 9680   2.904   7.493  10.167  1.4389  0.0715 -0.6566
   97OSM    C7F 9681   2.848   7.293  10.169 -1.4856 -0.3812 -0.5524
   97OSM    H7F 9682   2.743   7.323  10.153 -2.0347 -1.3296  1.1110
   97OSM    H7G 9683   2.843   7.200  10.230  1.9328 -0.6325 -0.5398
   97OSM    C8F 9684   2.932   7.265  10.040 -0.0029  0.4678  0.5861
   97OSM    H8F 9685   3.037   7.246  10.070  0.2873  0.7042 -0.2774
   97OSM    H8G 9686   2.959   7.350   9.975  0.4004  0.6456  0.9808
   97OSM    C9F 9687   2.880   7.141   9.960 -0.2463 -0.0630 -0.7149
   97OSM    H9F 9688   2.901   7.042  10.003  1.1038  0.2341 -0.6854
   97OSM   C10F 9689   2.806   7.140   9.847 -0.1340 -0.5066 -0.0560
   97OSM   H10F 9690   2.758   7.046   9.816  0.2646 -0.0310 -2.1805
   97OSM   C11F 9691   2.761   7.263   9.774 -0.2142 -0.6179 -0.6473
   97OSM   H11F 9692   2.787   7.356   9.829  0.0711 -0.3686 -1.1995
   97OSM   H11G 9693   2.651   7.272   9.764 -0.2366 -0.1483  0.0288
   97OSM   C12F 9694   2.831   7.264   9.638  0.4982 -0.7182  0.9979
   97OSM   H12F 9695   2.941   7.264   9.654  0.4728 -0.9693  1.1714
   97OSM   H12G 9696   2.804   7.361   9.591  0.9097 -1.1916 -0.2348
   97OSM   C13F 9697   2.783   7.151   9.541  0.4912  0.1627  0.3437
   97OSM   H13F 9698   2.675   7.161   9.516  0.2928 -3.1348 -0.3653
   97OSM   H13G 9699   2.789   7.050   9.586  1.4639  0.1816  0.2630
   97OSM   C14F 9700   2.869   7.141   9.413  0.3449 -0.1508  0.2102
   97OSM   H14F 9701   2.817   7.057   9.363 -0.7424  0.4786  0.2574
   97OSM   H14G 9702   2.968   7.097   9.435  1.0972  0.8144 -1.2295
   97OSM   C15F 9703   2.858   7.260   9.326 -0.2490 -0.3362 -0.3140
   97OSM   H15F 9704   2.897   7.346   9.383 -1.6586  0.1750 -0.0923
   97OSM   H15G 9705   2.760   7.287   9.280 -0.1710  1.0349  0.3127
   97OSM   C16F 9706   2.956   7.257   9.210 -0.4638  0.2972  0.3384
   97OSM   H16F 9707   3.012   7.161   9.218 -0.9217  0.0961  1.1235
   97OSM   H16G 9708   3.035   7.335   9.218 -0.7397  0.6687 -0.4413
   97OSM   C17F 9709   2.880   7.256   9.076  0.3624 -0.8048  0.8290
   97OSM   H17F 9710   2.834   7.357   9.073 -3.1062 -2.3535 -1.4532
   97OSM   H17G 9711   2.801   7.179   9.068 -0.2311 -0.1153 -0.0947
   97OSM   C18F 9712   2.968   7.238   8.956  0.0589 -0.6873 -0.1059
   97OSM   H18F 9713   3.058   7.302   8.966  0.5249 -1.2997 -0.3902
   97OSM   H18G 9714   2.911   7.286   8.873  0.2871  4.7600  2.6634
   97OSM   H18H 9715   2.996   7.135   8.926  1.8246 -0.3424  0.3201
   98OSM      N 9716   2.359   0.740  11.137  0.7476 -0.6713 -0.0255
   98OSM    C15 9717   2.320   0.814  11.014  0.2814 -1.0284 -0.5806
   98OSM   H15A 9718   2.394   0.888  10.987  0.5503 -1.5332 -1.2341
   98OSM   H15B 9719   2.225   0.865  11.023 -0.6389 -2.6134 -1.1942
   98OSM   H15C 9720   2.311   0.751  10.927  0.7532 -1.1596 -0.5315
   98OSM    C14 9721   2.333   0.821  11.258  0.1893 -0.3288 -0.3352
   98OSM   H14A 9722   2.229   0.847  11.275  0.9269  0.7111  2.9603
   98OSM   H14B 9723   2.385   0.915  11.263 -1.6200  0.7433 -0.9221
   98OSM   H14C 9724   2.346   0.763  11.348  1.9548 -0.7000 -0.8000
   98OSM    C13 9725   2.280   0.611  11.147  0.2459  0.2367  0.6959
   98OSM   H13A 9726   2.302   0.552  11.060 -0.8375  2.4952 -1.1536
   98OSM   H13B 9727   2.175   0.631  11.162  0.3774  2.9929 -1.5465
   98OSM   H13C 9728   2.308   0.550  11.232 -0.3737  0.4699  1.0701
   98OSM    C12 9729   2.507   0.708  11.127 -0.0788 -0.4490 -0.4935
   98OSM   H12A 9730   2.535   0.638  11.205 -1.8421  0.7846  1.2764
   98OSM   H12B 9731   2.555   0.802  11.151  1.5744 -1.5565  0.6975
   98OSM    C11 9732   2.565   0.645  11.008  0.3810 -0.2441  0.2746
   98OSM   H11A 9733   2.677   0.643  11.008  0.3712 -1.0682 -0.1836
   98OSM   H11B 9734   2.548   0.721  10.928  1.4252 -0.2023  0.0787
   98OSM      P 9735   2.541   0.391  11.027  0.2461 -0.1293 -0.0121
   98OSM    O13 9736   2.638   0.415  11.137  0.0093  0.4589 -0.1372
   98OSM    O14 9737   2.423   0.305  11.062 -0.7262 -1.0071  0.0228
   98OSM    O11 9738   2.611   0.309  10.913 -0.0139  0.2474  0.0466
   98OSM    O12 9739   2.513   0.529  10.955  0.1830 -0.4216 -0.0461
   98OSM    C1S 9740   2.558   0.308  10.784  0.3767  0.3692 -0.0832
   98OSM    H1S 9741   2.614   0.394  10.742 -0.0589  0.2154 -0.9918
   98OSM    H1T 9742   2.449   0.325  10.781  0.1964 -0.0609  2.3942
   98OSM     NF 9743   2.555   0.192  10.555 -0.0092 -0.1280 -0.2094
   98OSM    HNF 9744   2.470   0.154  10.519  0.5331  0.3248 -2.0032
   98OSM    C2S 9745   2.584   0.168  10.700  0.3694 -0.7773  0.2617
   98OSM    H2S 9746   2.694   0.149  10.702  0.7618  1.3251 -0.3562
   98OSM    C3S 9747   2.515   0.043  10.765  0.3117 -1.0283 -0.3110
   98OSM    H3S 9748   2.406   0.061  10.773  0.2608 -1.9885  1.2138
   98OSM     O3 9749   2.576   0.011  10.891  0.0262 -0.6073  0.3744
   98OSM    HO3 9750   2.621   0.092  10.916  0.1743  0.1525 -2.1821
   98OSM    C4S 9751   2.535  -0.074  10.674 -0.4857 -0.1730 -0.4015
   98OSM    H4S 9752   2.634  -0.121  10.671 -0.1597  0.4534  0.1925
   98OSM    C5S 9753   2.437  -0.139  10.604 -0.6999 -0.7112  0.4206
   98OSM    H5S 9754   2.336  -0.102  10.625 -0.3139  0.2316  0.6725
   98OSM    C6S 9755   2.461  -0.256  10.509 -0.6031  0.1354  0.0242
   98OSM    H6S 9756   2.432  -0.222  10.407 -1.5812 -0.7496 -0.0017
   98OSM    H6T 9757   2.385  -0.332  10.537 -0.6046  0.8215  1.9564
   98OSM    C7S 9758   2.604  -0.309  10.493 -0.6245  0.4832  0.2595
   98OSM    H7S 9759   2.639  -0.337  10.595 -0.3598 -1.3903 -0.3382
   98OSM    H7T 9760   2.665  -0.226  10.452  0.5544 -0.1539  0.7104
   98OSM    C8S 9761   2.625  -0.431  10.399  0.0841 -0.4272 -0.0425
   98OSM    H8S 9762   2.565  -0.514  10.440 -1.6405  1.0585  0.5259
   98OSM    H8T 9763   2.733  -0.458  10.405 -0.0977 -1.7778 -2.3495
   98OSM    C9S 9764   2.598  -0.384  10.259 -0.1519 -0.7776  0.4343
   98OSM    H9S 9765   2.645  -0.288  10.229 -2.1228  0.7251  2.0734
   98OSM    H9T 9766   2.489  -0.368  10.248  0.1928  1.2304 -0.1754
   98OSM   C10S 9767   2.636  -0.500  10.162 -0.5688  0.5568 -0.8851
   98OSM   H10S 9768   2.577  -0.592  10.182 -0.3414  1.0620  2.4018
   98OSM   H10T 9769   2.737  -0.532  10.196  0.1293  4.4246  0.9655
   98OSM   C11S 9770   2.629  -0.448  10.012 -0.2544 -0.2451 -0.5804
   98OSM   H11S 9771   2.710  -0.375   9.990 -1.3922  0.4986 -2.3688
   98OSM   H11T 9772   2.534  -0.393   9.993  2.0192  3.3218 -2.0747
   98OSM   C12S 9773   2.647  -0.568   9.916  0.4789 -0.1485  0.0198
   98OSM   H12S 9774   2.562  -0.637   9.934  0.3862  0.2530  1.1937
   98OSM   H12T 9775   2.739  -0.626   9.937  0.8200  0.3908  0.0226
   98OSM   C13S 9776   2.647  -0.532   9.770  0.2201 -0.4775  0.6253
   98OSM   H13S 9777   2.568  -0.457   9.749  1.2511  0.0401 -1.4955
   98OSM   H13T 9778   2.621  -0.622   9.711  0.1281  0.2280 -0.4194
   98OSM   C14S 9779   2.784  -0.488   9.725  0.2154  0.5732 -0.2489
   98OSM   H14S 9780   2.840  -0.583   9.736  0.5332  1.2106  4.3754
   98OSM   H14T 9781   2.832  -0.417   9.796  0.3981  1.7863 -1.5665
   98OSM   C15S 9782   2.801  -0.419   9.591 -0.5404 -0.1337 -0.8864
   98OSM   H15S 9783   2.907  -0.406   9.557  1.0516  0.9887  4.0922
   98OSM   H15T 9784   2.749  -0.321   9.602 -1.8250 -0.8711 -0.3474
   98OSM   C16S 9785   2.729  -0.495   9.478 -0.4774  0.5541 -0.6515
   98OSM   H16S 9786   2.628  -0.514   9.520  1.1983 -1.6923  2.5647
   98OSM   H16T 9787   2.770  -0.597   9.459 -0.1525  0.3894  0.8865
   98OSM   C17S 9788   2.714  -0.407   9.342 -0.3374  0.1318  0.6769
   98OSM   H17S 9789   2.806  -0.421   9.281  0.0532  1.2929  0.9993
   98OSM   H17T 9790   2.702  -0.299   9.365  1.2091  0.7838 -1.4135
   98OSM   C18S 9791   2.596  -0.446   9.256 -0.4545 -0.0289  0.8271
   98OSM   H18S 9792   2.504  -0.466   9.314  0.1456 -3.6806  0.6547
   98OSM   H18T 9793   2.606  -0.543   9.202  0.7253  0.1993  0.6076
   98OSM   H18U 9794   2.566  -0.359   9.195  1.6110  0.2729  0.1839
   98OSM    C1F 9795   2.622   0.274  10.480 -0.2316 -0.2223 -0.6506
   98OSM     OF 9796   2.733   0.310  10.512  0.4173  0.3773 -0.4265
   98OSM    C2F 9797   2.566   0.312  10.344  0.6789  0.3798 -0.7031
   98OSM    H2F 9798   2.617   0.407  10.318  1.0040  0.9048  1.7232
   98OSM    H2G 9799   2.457   0.334  10.356  0.8748  0.2201  1.4529
   98OSM    C3F 9800   2.578   0.191  10.246  0.4313 -0.5701  0.2825
   98OSM    H3F 9801   2.535   0.100  10.293  2.6574 -2.1142 -0.5903
   98OSM    H3G 9802   2.688   0.175  10.240  0.8678  2.6594 -1.1723
   98OSM    C4F 9803   2.519   0.219  10.115  0.4744  0.1732 -0.7435
   98OSM    H4F 9804   2.557   0.316  10.077  3.5691 -0.2126  1.2305
   98OSM    H4G 9805   2.409   0.231  10.131  0.4212 -2.5654  1.2173
   98OSM    C5F 9806   2.523   0.109  10.010 -0.3429  0.0149  0.4463
   98OSM    H5F 9807   2.479   0.022  10.063 -1.4441 -0.2753 -0.9176
   98OSM    H5G 9808   2.628   0.100   9.975 -0.3350  3.4532 -0.5591
   98OSM    C6F 9809   2.454   0.148   9.887 -0.4958 -0.2384  0.0839
   98OSM    H6F 9810   2.518   0.228   9.845 -0.9348  0.7588  1.2949
   98OSM    H6G 9811   2.356   0.198   9.901  1.0711  2.1674  2.9703
   98OSM    C7F 9812   2.425   0.029   9.790  0.3522 -1.4041 -0.5321
   98OSM    H7F 9813   2.318   0.045   9.765  0.8137 -0.5492 -1.9689
   98OSM    H7G 9814   2.424  -0.071   9.840  0.7457 -0.0466  2.2958
   98OSM    C8F 9815   2.509   0.017   9.665  0.9637 -0.6766  0.2403
   98OSM    H8F 9816   2.614  -0.008   9.693  0.7572 -0.3459  1.3183
   98OSM    H8G 9817   2.507   0.115   9.614  1.0568 -0.3213  0.9215
   98OSM    C9F 9818   2.461  -0.092   9.578  0.4253  0.1180 -0.3488
   98OSM    H9F 9819   2.416  -0.183   9.621 -1.5263  1.4889  0.5985
   98OSM   C10F 9820   2.443  -0.076   9.445  0.0280 -0.1895  0.0065
   98OSM   H10F 9821   2.414  -0.162   9.382  0.7963 -1.0693  0.8262
   98OSM   C11F 9822   2.467   0.045   9.358 -0.4776 -0.5604 -0.2861
   98OSM   H11F 9823   2.488   0.135   9.419  1.5643 -1.3239  0.1929
   98OSM   H11G 9824   2.378   0.072   9.297 -1.7234  0.3077  1.8921
   98OSM   C12F 9825   2.584   0.022   9.260  0.1152 -0.1156  0.1667
   98OSM   H12F 9826   2.673  -0.005   9.322 -0.8294 -0.4954  1.3828
   98OSM   H12G 9827   2.597   0.120   9.210  3.0132  0.3979  1.7687
   98OSM   C13F 9828   2.563  -0.089   9.156  0.2615 -0.0873  0.2937
   98OSM   H13F 9829   2.459  -0.124   9.168 -0.7105  1.9458 -1.8151
   98OSM   H13G 9830   2.637  -0.165   9.190 -0.3697 -1.1393 -0.6837
   98OSM   C14F 9831   2.600  -0.039   9.011  0.2367 -0.4074  0.4876
   98OSM   H14F 9832   2.643  -0.123   8.954  0.0014 -0.4538  0.3745
   98OSM   H14G 9833   2.679   0.038   9.024 -0.1455 -0.0857  0.9219
   98OSM   C15F 9834   2.481   0.022   8.929  0.0496 -0.5904 -0.3247
   98OSM   H15F 9835   2.528   0.063   8.838  0.1974  0.7606  0.3449
   98OSM   H15G 9836   2.439   0.103   8.992  0.0245 -1.8664  1.3436
   98OSM   C16F 9837   2.375  -0.082   8.888  0.1450  0.4275 -0.4729
   98OSM   H16F 9838   2.398  -0.184   8.927 -2.9119 -0.4733 -0.8942
   98OSM   H16G 9839   2.387  -0.095   8.779  4.0078  0.8277 -0.1564
   98OSM   C17F 9840   2.237  -0.029   8.914  0.3882 -0.5250 -0.9646
   98OSM   H17F 9841   2.224   0.080   8.895 -0.2034 -0.4493 -0.1557
   98OSM   H17G 9842   2.216  -0.020   9.023  4.6730  3.0861 -0.2859
   98OSM   C18F 9843   2.132  -0.116   8.843 -0.1465 -0.1675 -0.3803
   98OSM   H18F 9844   2.029  -0.077   8.854  0.0699  0.3443 -0.1387
   98OSM   H18G 9845   2.139  -0.222   8.875  2.0164 -0.0509 -0.3429
   98OSM   H18H 9846   2.148  -0.105   8.734 -1.7096 -0.9721 -0.7028
   99OSM      N 9847   4.412   6.669  11.242  0.4894  0.7497  0.1693
   99OSM    C15 9848   4.544   6.692  11.317 -0.5006 -0.1948  0.1201
   99OSM   H15A 9849   4.619   6.616  11.300  2.2888  2.2756  0.9426
   99OSM   H15B 9850   4.523   6.701  11.423 -1.3176  1.8140 -0.1872
   99OSM   H15C 9851   4.593   6.780  11.280 -3.0199  1.5097  0.7056
   99OSM    C14 9852   4.333   6.550  11.299 -0.1906 -0.4105 -0.1825
   99OSM   H14A 9853   4.317   6.574  11.403  0.4666 -0.7648  0.0020
   99OSM   H14B 9854   4.383   6.454  11.301 -1.8211 -1.2509  3.0903
   99OSM   H14C 9855   4.236   6.556  11.252 -0.6228 -0.7383  0.6814
   99OSM    C13 9856   4.323   6.787  11.271  0.0095 -0.8288  0.2373
   99OSM   H13A 9857   4.286   6.792  11.372 -0.0388  0.6106  0.1468
   99OSM   H13B 9858   4.244   6.794  11.198  0.7153 -0.6683 -0.5276
   99OSM   H13C 9859   4.386   6.873  11.253 -1.1651 -0.3172 -1.5313
   99OSM    C12 9860   4.443   6.662  11.099 -0.2790  0.0608 -0.0338
   99OSM   H12A 9861   4.489   6.748  11.055  1.0206 -0.5831  0.0495
   99OSM   H12B 9862   4.348   6.652  11.048  0.5922  1.5535 -2.0275
   99OSM    C11 9863   4.535   6.546  11.048  0.8554  0.3634  0.2987
   99OSM   H11A 9864   4.528   6.532  10.938 -1.1829  1.9129  0.1858
   99OSM   H11B 9865   4.499   6.451  11.092  0.8435  0.5416  0.6713
   99OSM      P 9866   4.755   6.679  11.027 -0.1223  0.0630 -0.2613
   99OSM    O13 9867   4.701   6.814  11.035 -0.3593 -0.1662  0.4837
   99OSM    O14 9868   4.890   6.669  11.084 -0.2058  0.4028 -0.3132
   99OSM    O11 9869   4.757   6.627  10.876  0.4230  0.2229 -0.0935
   99OSM    O12 9870   4.667   6.570  11.088  0.1357  0.4712 -0.0360
   99OSM    C1S 9871   4.681   6.696  10.779  0.0969  0.0721  0.0534
   99OSM    H1S 9872   4.731   6.794  10.766  0.3708 -0.4600 -3.3328
   99OSM    H1T 9873   4.576   6.709  10.812 -0.6880 -0.1698 -2.2299
   99OSM     NF 9874   4.603   6.712  10.535 -0.1905  0.6241  0.4854
   99OSM    HNF 9875   4.514   6.682  10.502 -0.4738  2.3902 -0.3863
   99OSM    C2S 9876   4.671   6.631  10.636 -0.0412 -0.2320 -0.0216
   99OSM    H2S 9877   4.778   6.636  10.608  0.8915  0.9836  3.4606
   99OSM    C3S 9878   4.627   6.480  10.625  0.1377  1.1888 -0.1465
   99OSM    H3S 9879   4.516   6.485  10.632 -0.0174 -0.7634 -0.7978
   99OSM     O3 9880   4.678   6.402  10.735  0.3494  0.2080  0.2531
   99OSM    HO3 9881   4.703   6.467  10.800 -0.1259  1.0801 -0.4293
   99OSM    C4S 9882   4.673   6.422  10.492  0.5472 -0.7261  0.7583
   99OSM    H4S 9883   4.596   6.429  10.413  1.5213  0.4201 -0.0986
   99OSM    C5S 9884   4.791   6.361  10.463  0.5491  0.4215  0.2613
   99OSM    H5S 9885   4.877   6.350  10.532  0.2497 -0.8223  0.4507
   99OSM    C6S 9886   4.821   6.305  10.323 -0.3932  0.0172  0.1211
   99OSM    H6S 9887   4.816   6.195  10.318  1.3076 -0.0384 -0.7141
   99OSM    H6T 9888   4.926   6.326  10.291 -0.0203 -0.3398  1.0992
   99OSM    C7S 9889   4.724   6.341  10.198  0.5277 -0.3169 -0.2850
   99OSM    H7S 9890   4.617   6.323  10.223  0.8261  0.0821  1.2803
   99OSM    H7T 9891   4.765   6.272  10.121  0.2126  1.1546 -1.7983
   99OSM    C8S 9892   4.732   6.485  10.146  0.5013  0.2318  0.2378
   99OSM    H8S 9893   4.829   6.511  10.098  0.1498 -0.8522 -1.0855
   99OSM    H8T 9894   4.711   6.557  10.228 -0.2948  0.4031 -0.1083
   99OSM    C9S 9895   4.608   6.510  10.057 -0.0474  0.7096 -0.2607
   99OSM    H9S 9896   4.604   6.617  10.028  1.0139  0.8034 -0.0701
   99OSM    H9T 9897   4.517   6.483  10.115 -0.2339  0.5904 -0.6061
   99OSM   C10S 9898   4.608   6.426   9.926 -0.6183  0.1593 -0.0525
   99OSM   H10S 9899   4.649   6.325   9.948  0.4776  0.7146  0.4854
   99OSM   H10T 9900   4.679   6.478   9.859 -0.9903  0.6342 -0.0773
   99OSM   C11S 9901   4.477   6.422   9.852 -0.4635 -0.1294  0.1113
   99OSM   H11S 9902   4.431   6.523   9.851 -0.5974 -0.1515 -3.2538
   99OSM   H11T 9903   4.407   6.345   9.891  0.8000 -1.8299 -0.8589
   99OSM   C12S 9904   4.497   6.380   9.699 -0.3230 -0.1040  0.0875
   99OSM   H12S 9905   4.538   6.277   9.694  0.7473  0.3491 -0.7292
   99OSM   H12T 9906   4.399   6.368   9.648  1.2045 -1.4180 -2.6847
   99OSM   C13S 9907   4.589   6.459   9.608  0.1030  0.2724  0.0327
   99OSM   H13S 9908   4.694   6.460   9.643  0.7520 -1.3496 -1.8097
   99OSM   H13T 9909   4.554   6.563   9.592  0.1492 -0.0863 -2.6498
   99OSM   C14S 9910   4.584   6.399   9.469 -0.2281  0.3957 -0.1183
   99OSM   H14S 9911   4.485   6.421   9.425 -1.1579 -1.8770  0.7851
   99OSM   H14T 9912   4.597   6.290   9.482 -1.8108  0.2344  0.1105
   99OSM   C15S 9913   4.695   6.434   9.371  0.5338 -0.4374 -0.3144
   99OSM   H15S 9914   4.792   6.385   9.394  0.5301 -0.5012 -0.4340
   99OSM   H15T 9915   4.708   6.544   9.375  3.0631 -0.7165  0.1239
   99OSM   C16S 9916   4.649   6.408   9.228  0.7139 -0.2354  0.8883
   99OSM   H16S 9917   4.547   6.452   9.221  0.0242 -2.1332 -1.7903
   99OSM   H16T 9918   4.626   6.299   9.220  1.2176 -0.0985 -3.2135
   99OSM   C17S 9919   4.749   6.443   9.113  0.9453  0.4064 -0.0935
   99OSM   H17S 9920   4.708   6.382   9.030 -1.4509 -0.0271  1.3470
   99OSM   H17T 9921   4.849   6.404   9.141  0.5432  0.3154  1.2653
   99OSM   C18S 9922   4.754   6.587   9.070  0.6962  0.2626  0.1685
   99OSM   H18S 9923   4.813   6.644   9.144 -1.1749  0.7812  1.2850
   99OSM   H18T 9924   4.652   6.632   9.064  0.6628  0.1841  0.1452
   99OSM   H18U 9925   4.799   6.588   8.968  0.2713 -3.3270 -0.1242
   99OSM    C1F 9926   4.635   6.846  10.502 -0.7035 -0.0207  0.0674
   99OSM     OF 9927   4.738   6.897  10.544 -0.7784  0.2780  0.0263
   99OSM    C2F 9928   4.536   6.916  10.414 -0.2506 -0.2426 -0.1776
   99OSM    H2F 9929   4.493   7.007  10.462 -0.0929  0.3553 -1.1679
   99OSM    H2G 9930   4.454   6.844  10.393 -1.7577  1.3741  0.0059
   99OSM    C3F 9931   4.613   6.963  10.290  0.9669 -0.1069 -0.0512
   99OSM    H3F 9932   4.689   7.041  10.313 -1.7747  2.6611 -0.0748
   99OSM    H3G 9933   4.671   6.888  10.232 -0.8409 -0.1974 -1.7994
   99OSM    C4F 9934   4.510   7.014  10.187  0.4181 -0.4690 -0.5915
   99OSM    H4F 9935   4.443   7.087  10.237  0.4929 -1.1324  0.4860
   99OSM    H4G 9936   4.455   6.920  10.164  0.9947 -0.3117 -2.7033
   99OSM    C5F 9937   4.569   7.091  10.069 -0.0179  0.0475  0.0491
   99OSM    H5F 9938   4.487   7.152  10.025 -0.7751  0.6716  2.2721
   99OSM    H5G 9939   4.613   7.026   9.990 -0.9600 -0.9450  0.3372
   99OSM    C6F 9940   4.673   7.202  10.098 -0.0678 -0.1195 -0.5908
   99OSM    H6F 9941   4.759   7.156  10.151  1.4719 -0.6062 -3.4233
   99OSM    H6G 9942   4.632   7.284  10.160  1.5861 -0.2937  0.7594
   99OSM    C7F 9943   4.742   7.264   9.978 -0.3554 -0.0414 -0.3435
   99OSM    H7F 9944   4.801   7.187   9.924  1.5018  0.4575  0.8809
   99OSM    H7G 9945   4.810   7.344  10.016 -1.2673  0.3300  0.5400
   99OSM    C8F 9946   4.644   7.321   9.879  0.4751 -0.3814  0.1123
   99OSM    H8F 9947   4.552   7.356   9.931  0.6094 -1.0657  0.8125
   99OSM    H8G 9948   4.610   7.234   9.819  0.5381 -1.9424  2.2792
   99OSM    C9F 9949   4.703   7.435   9.796  0.2072  0.0902 -0.3154
   99OSM    H9F 9950   4.741   7.512   9.864 -1.2896  0.3698  0.2214
   99OSM   C10F 9951   4.713   7.448   9.661  0.2718  0.7026  0.0275
   99OSM   H10F 9952   4.750   7.543   9.619  1.4401  0.1909 -0.1181
   99OSM   C11F 9953   4.661   7.346   9.561 -0.6816 -0.2211 -0.2051
   99OSM   H11F 9954   4.551   7.357   9.556 -0.7828 -1.3262 -0.5978
   99OSM   H11G 9955   4.687   7.241   9.589 -0.9828  0.0627  1.1858
   99OSM   C12F 9956   4.718   7.373   9.422  0.1163 -0.9388  1.1534
   99OSM   H12F 9957   4.675   7.291   9.360  0.8741  0.4416 -1.2689
   99OSM   H12G 9958   4.823   7.342   9.404 -0.6934 -4.2017  1.6978
   99OSM   C13F 9959   4.677   7.512   9.361  0.0772  0.6196 -0.8211
   99OSM   H13F 9960   4.729   7.596   9.411  2.7752 -0.1947 -2.1600
   99OSM   H13G 9961   4.567   7.524   9.373  0.0456 -1.3700  1.2214
   99OSM   C14F 9962   4.685   7.515   9.210  0.3159 -0.2480 -0.0557
   99OSM   H14F 9963   4.619   7.592   9.164 -1.0881 -1.7086 -0.5379
   99OSM   H14G 9964   4.640   7.419   9.178  2.0641 -1.4442  1.0137
   99OSM   C15F 9965   4.824   7.526   9.142  0.6714  0.4685  0.7463
   99OSM   H15F 9966   4.824   7.500   9.034 -1.3809  1.7566  0.4126
   99OSM   H15G 9967   4.886   7.444   9.183  1.0680  0.4400  0.1025
   99OSM   C16F 9968   4.896   7.665   9.160 -0.3505 -0.1174  0.4906
   99OSM   H16F 9969   4.911   7.687   9.268  1.4360 -1.0260  0.4511
   99OSM   H16G 9970   4.823   7.732   9.109  3.0725  1.6165 -2.3856
   99OSM   C17F 9971   5.024   7.679   9.077  0.5751  0.1138  0.0482
   99OSM   H17F 9972   4.985   7.691   8.973  0.2831  0.9924  0.2542
   99OSM   H17G 9973   5.090   7.592   9.061 -2.5426 -2.2536 -0.3898
   99OSM   C18F 9974   5.116   7.793   9.126  0.0238 -0.8281 -0.7466
   99OSM   H18F 9975   5.194   7.765   9.201 -2.4423 -2.1796  1.4105
   99OSM   H18G 9976   5.055   7.864   9.185  0.3266 -0.9873 -0.2340
   99OSM   H18H 9977   5.165   7.850   9.045 -0.5287 -0.3225 -0.7218
  100OSM      N 9978   6.128   1.421  10.903  0.2440 -0.2076  0.2067
  100OSM    C15 9979   6.218   1.444  10.780  0.1683 -1.0987  0.3597
  100OSM   H15A 9980   6.170   1.516  10.714 -2.1052 -3.1626 -0.2901
  100OSM   H15B 9981   6.242   1.359  10.719  0.8617  0.4353 -1.5704
  100OSM   H15C 9982   6.310   1.494  10.806 -1.1576 -0.3846  3.8812
  100OSM    C14 9983   6.044   1.298  10.876  0.1435  0.0354 -0.0407
  100OSM   H14A 9984   5.999   1.301  10.778  0.0383 -0.3877 -0.0046
  100OSM   H14B 9985   5.971   1.284  10.955  1.1260  1.9202  1.2436
  100OSM   H14C 9986   6.117   1.218  10.875 -2.8963 -2.8957  1.5201
  100OSM    C13 9987   6.213   1.400  11.026  0.0786 -0.1230 -0.8633
  100OSM   H13A 9988   6.271   1.486  11.054  0.7398 -0.0558 -2.3693
  100OSM   H13B 9989   6.284   1.320  11.012  2.4827  2.0220 -1.2097
  100OSM   H13C 9990   6.154   1.384  11.115  1.9543 -2.4773  0.0149
  100OSM    C12 9991   6.036   1.545  10.920  0.5770  0.0277 -0.1909
  100OSM   H12A 9992   6.095   1.631  10.948 -1.2677  1.2999 -0.1271
  100OSM   H12B 9993   5.976   1.514  11.004  0.2209 -1.6822 -1.0498
  100OSM    C11 9994   5.945   1.587  10.808  0.5234 -0.9887  0.1687
  100OSM   H11A 9995   5.866   1.649  10.855  2.5393 -0.3634  2.9119
  100OSM   H11B 9996   5.875   1.507  10.775 -1.6597  0.7397  0.5259
  100OSM      P 9997   6.034   1.792  10.700  0.3169  0.3793  0.2020
  100OSM    O13 9998   5.911   1.869  10.670  0.3092 -0.6550 -0.2819
  100OSM    O14 9999   6.104   1.834  10.822 -0.1960 -0.1911  0.2623
  100OSM    O1110000   6.125   1.813  10.574  0.2708 -1.1166  0.4661
  100OSM    O1210001   6.007   1.645  10.695 -0.0695  0.1622  0.0334
  100OSM    C1S10002   6.240   1.732  10.545  0.2525  0.3298 -0.5694
  100OSM    H1S10003   6.235   1.626  10.578  0.4761  1.0508  1.7980
  100OSM    H1T10004   6.325   1.786  10.592  0.3492  1.7527 -2.2924
  100OSM     NF10005   6.378   1.638  10.372 -0.1154 -0.0344  0.1350
  100OSM    HNF10006   6.463   1.690  10.359 -0.4159  0.5972  0.6775
  100OSM    C2S10007   6.273   1.732  10.393  0.3126  0.4296 -0.0828
  100OSM    H2S10008   6.187   1.704  10.329  1.1867  1.3075 -1.6522
  100OSM    C3S10009   6.307   1.870  10.335  0.3088  0.7227  0.1197
  100OSM    H3S10010   6.406   1.903  10.373  1.7399 -2.1560 -0.9091
  100OSM     O310011   6.218   1.977  10.371  0.2765  0.2564 -0.1236
  100OSM    HO310012   6.181   1.931  10.448 -1.5230 -0.6588 -1.5034
  100OSM    C4S10013   6.301   1.857  10.189 -0.0321 -1.0877 -0.0235
  100OSM    H4S10014   6.394   1.816  10.147  0.6513 -1.3291  1.6981
  100OSM    C5S10015   6.194   1.871  10.106  0.2375 -0.1994  0.4640
  100OSM    H5S10016   6.097   1.899  10.149 -0.2030  1.6934 -1.6620
  100OSM    C6S10017   6.191   1.847   9.951  0.1174  0.5531 -0.2305
  100OSM    H6S10018   6.199   1.944   9.897 -1.7473  0.9413  0.1537
  100OSM    H6T10019   6.101   1.787   9.929  0.2827 -0.7333  2.3331
  100OSM    C7S10020   6.308   1.759   9.904  0.0715 -0.1182 -0.0254
  100OSM    H7S10021   6.321   1.675   9.975 -0.4068  1.0415  1.4633
  100OSM    H7T10022   6.402   1.819   9.902  0.8821 -1.2404  2.7959
  100OSM    C8S10023   6.296   1.704   9.756  0.2388  0.4352 -0.1854
  100OSM    H8S10024   6.194   1.665   9.738  0.2413  0.7272 -0.8869
  100OSM    H8T10025   6.371   1.625   9.733  0.1490  0.1716  0.4168
  100OSM    C9S10026   6.307   1.809   9.643 -0.5574  0.0304  0.6952
  100OSM    H9S10027   6.410   1.849   9.630  0.0293 -1.9590 -1.0168
  100OSM    H9T10028   6.240   1.894   9.667 -0.6827 -0.0378  0.5847
  100OSM   C10S10029   6.259   1.754   9.503  0.2522 -0.4016  0.7788
  100OSM   H10S10030   6.148   1.747   9.497  0.3804 -0.8667 -1.3775
  100OSM   H10T10031   6.309   1.658   9.478  1.4785  0.4096  0.0949
  100OSM   C11S10032   6.300   1.857   9.397  0.1480 -0.1341  0.9694
  100OSM   H11S10033   6.410   1.843   9.399  0.1811 -0.2794 -1.1608
  100OSM   H11T10034   6.269   1.960   9.424  0.8354  0.0253  1.1554
  100OSM   C12S10035   6.248   1.831   9.257  0.3359  0.1394  0.1050
  100OSM   H12S10036   6.137   1.829   9.262  0.2447 -0.9968 -2.1105
  100OSM   H12T10037   6.291   1.735   9.223 -0.8766 -0.5840  0.6032
  100OSM   C13S10038   6.282   1.938   9.151  0.1116 -0.2103  0.5008
  100OSM   H13S10039   6.393   1.936   9.142 -0.0980  0.1571 -2.3679
  100OSM   H13T10040   6.240   2.036   9.185 -3.1829 -1.3326 -0.1782
  100OSM   C14S10041   6.230   1.906   9.012  0.0191 -0.5273  0.3050
  100OSM   H14S10042   6.277   1.988   8.952 -0.3143 -1.9468 -1.9597
  100OSM   H14T10043   6.119   1.907   9.010  0.0342 -0.1218 -0.9099
  100OSM   C15S10044   6.280   1.774   8.957  0.5816  0.0311 -0.4466
  100OSM   H15S10045   6.227   1.693   9.011 -2.6703  1.8419 -0.8168
  100OSM   H15T10046   6.388   1.762   8.983  0.9852 -0.2853 -2.1842
  100OSM   C16S10047   6.247   1.765   8.805 -0.1754  0.4149 -0.4973
  100OSM   H16S10048   6.246   1.863   8.754 -0.0495  0.8731  0.3747
  100OSM   H16T10049   6.148   1.715   8.797  0.3071 -0.6759  0.1460
  100OSM   C17S10050   6.356   1.665   8.742  0.3141  0.3462  0.3507
  100OSM   H17S10051   6.349   1.559   8.774 -1.0164  1.2644  3.3147
  100OSM   H17T10052   6.455   1.688   8.787 -0.1803  0.8158  1.2317
  100OSM   C18S10053   6.372   1.682   8.592  0.0777  0.5803  0.0138
  100OSM   H18S10054   6.389   1.787   8.558 -0.4363 -0.0948 -2.4768
  100OSM   H18T10055   6.286   1.646   8.531 -1.1310  0.3722  1.8223
  100OSM   H18U10056   6.463   1.624   8.566 -0.5935 -1.4708  2.1771
  100OSM    C1F10057   6.375   1.509  10.387  0.1924 -0.5128  0.4309
  100OSM     OF10058   6.264   1.454  10.398 -0.4371  0.2221  0.4312
  100OSM    C2F10059   6.500   1.431  10.395 -0.3668 -0.0572  0.4703
  100OSM    H2F10060   6.482   1.351  10.469 -2.4841 -0.0239  0.0047
  100OSM    H2G10061   6.576   1.497  10.441 -1.7493 -0.1825  2.9928
  100OSM    C3F10062   6.533   1.356  10.259  0.1884  0.0983 -0.5997
  100OSM    H3F10063   6.448   1.289  10.232 -1.3383  1.4892  0.6329
  100OSM    H3G10064   6.628   1.303  10.281 -0.8658 -1.8787 -0.6150
  100OSM    C4F10065   6.557   1.449  10.144  0.3161 -0.3182 -0.8340
  100OSM    H4F10066   6.631   1.532  10.150  2.4518 -2.1468 -1.3172
  100OSM    H4G10067   6.454   1.489  10.130 -0.1793 -1.0354  0.6881
  100OSM    C5F10068   6.599   1.378  10.021  0.0708 -0.1882  0.0314
  100OSM    H5F10069   6.520   1.305   9.993  1.0233 -0.0860 -3.1701
  100OSM    H5G10070   6.685   1.316  10.053 -0.4608 -0.9676 -0.0485
  100OSM    C6F10071   6.639   1.486   9.915  0.1115 -0.2375 -0.3227
  100OSM    H6F10072   6.732   1.537   9.947  1.1178 -0.3068 -3.0219
  100OSM    H6G10073   6.557   1.561   9.908  1.3694  1.2781  0.6694
  100OSM    C7F10074   6.650   1.424   9.772 -0.6206 -0.3704 -0.2101
  100OSM    H7F10075   6.556   1.388   9.726 -1.6146 -0.3776  1.7685
  100OSM    H7G10076   6.714   1.332   9.772 -4.7986 -3.4207  0.2893
  100OSM    C8F10077   6.728   1.509   9.673  0.4765 -0.0702 -0.1447
  100OSM    H8F10078   6.769   1.449   9.589 -0.0912 -0.8103  0.1033
  100OSM    H8G10079   6.820   1.548   9.723 -1.3356  0.8163  2.6324
  100OSM    C9F10080   6.657   1.634   9.639  0.7129 -0.0438  0.1376
  100OSM    H9F10081   6.632   1.694   9.727 -0.6610  0.0369 -0.2954
  100OSM   C10F10082   6.610   1.671   9.516 -0.2062 -0.2379 -0.8256
  100OSM   H10F10083   6.548   1.761   9.517  0.2555  0.0827 -0.0530
  100OSM   C11F10084   6.618   1.607   9.379 -0.3379  1.2519 -0.5933
  100OSM   H11F10085   6.515   1.572   9.353 -0.5087  0.0856  1.4882
  100OSM   H11G10086   6.681   1.515   9.384  0.7254  1.9097 -1.8078
  100OSM   C12F10087   6.669   1.702   9.276  0.3987 -0.6910 -0.7327
  100OSM   H12F10088   6.736   1.773   9.331 -1.1246  0.4676 -0.3195
  100OSM   H12G10089   6.589   1.770   9.242  1.9144  1.3475 -0.3562
  100OSM   C13F10090   6.750   1.638   9.157  0.0881  0.0796 -0.6737
  100OSM   H13F10091   6.684   1.558   9.117 -1.0799  2.0680 -2.8447
  100OSM   H13G10092   6.842   1.601   9.207 -1.3783 -2.9857 -0.0775
  100OSM   C14F10093   6.778   1.732   9.047  0.3043 -0.0587 -0.3943
  100OSM   H14F10094   6.828   1.820   9.093 -0.6270  0.9304 -1.2449
  100OSM   H14G10095   6.685   1.755   8.991 -2.9900  1.4313  5.2525
  100OSM   C15F10096   6.877   1.673   8.942 -0.5350 -0.1469  0.2020
  100OSM   H15F10097   6.970   1.643   8.996 -0.1553  2.3101  0.9616
  100OSM   H15G10098   6.889   1.755   8.867  1.3717 -0.7955 -0.2457
  100OSM   C16F10099   6.813   1.563   8.864  0.0914  0.7338 -0.0004
  100OSM   H16F10100   6.742   1.605   8.790 -1.8766 -2.6077 -0.1098
  100OSM   H16G10101   6.759   1.492   8.930  0.9774  0.0882  0.0478
  100OSM   C17F10102   6.920   1.481   8.782 -0.5462 -0.2864  0.0581
  100OSM   H17F10103   6.871   1.394   8.733 -1.4313 -0.0334  0.4947
  100OSM   H17G10104   7.002   1.451   8.850 -0.3915  1.8976  0.8919
  100OSM   C18F10105   6.991   1.563   8.683 -0.1127  0.4677  0.3119
  100OSM   H18F10106   7.057   1.492   8.628  2.0170  1.8467  1.0498
  100OSM   H18G10107   7.058   1.639   8.728  0.9627 -2.4067  3.8468
  100OSM   H18H10108   6.923   1.615   8.612  1.2804  0.9578 -0.6786
  101OSM      N10109   3.266   1.388  11.237 -0.4633  0.3834 -0.2555
  101OSM    C1510110   3.186   1.491  11.307  0.1018 -0.1565  0.2042
  101OSM   H15A10111   3.182   1.484  11.415 -1.9904 -1.5890  0.0553
  101OSM   H15B10112   3.084   1.488  11.274  0.4367  2.1298 -1.1520
  101OSM   H15C10113   3.225   1.589  11.283 -0.4939 -0.0064 -0.1570
  101OSM    C1410114   3.407   1.400  11.275 -0.3683  0.4100 -0.7626
  101OSM   H14A10115   3.442   1.500  11.297  0.9490  0.1247 -1.5248
  101OSM   H14B10116   3.478   1.362  11.204  1.2700  3.1667 -0.6793
  101OSM   H14C10117   3.434   1.351  11.367  1.2890 -2.9090 -2.9145
  101OSM    C1310118   3.211   1.255  11.289  0.7899 -0.7003 -0.2133
  101OSM   H13A10119   3.126   1.216  11.236  0.8965 -1.8877  0.4665
  101OSM   H13B10120   3.185   1.269  11.393  1.4902  0.0452 -0.1273
  101OSM   H13C10121   3.282   1.174  11.283  0.1316 -1.2202 -1.0819
  101OSM    C1210122   3.249   1.401  11.087  0.2464  0.9527  0.1910
  101OSM   H12A10123   3.283   1.496  11.049  1.0074  0.0274 -1.4937
  101OSM   H12B10124   3.145   1.412  11.060 -0.0543  0.9105  1.3184
  101OSM    C1110125   3.319   1.293  11.000  0.0832  0.2824  0.9416
  101OSM   H11A10126   3.266   1.305  10.904  1.3871 -1.6634 -0.0353
  101OSM   H11B10127   3.311   1.188  11.034  0.2602  0.1571  0.5959
  101OSM      P10128   3.528   1.392  10.872 -0.2929  0.0476  0.2703
  101OSM    O1310129   3.516   1.541  10.890 -0.0439  0.1185  0.2980
  101OSM    O1410130   3.666   1.339  10.865  0.6021  0.2360  0.2075
  101OSM    O1110131   3.439   1.345  10.745 -0.0671 -0.2200  0.0766
  101OSM    O1210132   3.464   1.326  10.996  0.4308  0.4083  0.1263
  101OSM    C1S10133   3.408   1.440  10.645 -0.3709  0.4473  0.2781
  101OSM    H1S10134   3.499   1.500  10.620 -0.4448  0.1899 -0.6388
  101OSM    H1T10135   3.328   1.505  10.687 -0.0347  0.7106  0.5167
  101OSM     NF10136   3.326   1.494  10.412 -0.0940 -0.0763 -0.5294
  101OSM    HNF10137   3.233   1.530  10.410 -0.4017 -0.4631  3.3613
  101OSM    C2S10138   3.335   1.390  10.517 -0.0564  0.6742  0.2889
  101OSM    H2S10139   3.411   1.322  10.473  2.1205  3.1237  0.1229
  101OSM    C3S10140   3.205   1.314  10.555  0.4519 -0.0765  0.2931
  101OSM    H3S10141   3.126   1.387  10.582  1.4707  1.3258 -0.4337
  101OSM     O310142   3.215   1.219  10.658  0.2138 -0.1160  0.0830
  101OSM    HO310143   3.288   1.247  10.715  2.3782 -2.5991 -1.3626
  101OSM    C4S10144   3.166   1.233  10.431  0.5598  0.0177  0.3965
  101OSM    H4S10145   3.237   1.150  10.420 -0.1122 -1.1456  4.1884
  101OSM    C5S10146   3.065   1.254  10.340 -0.2176 -0.4917  0.0063
  101OSM    H5S10147   3.005   1.346  10.347 -0.3966 -0.7331  2.2823
  101OSM    C6S10148   3.055   1.166  10.217  0.3966 -0.0616 -0.1594
  101OSM    H6S10149   3.095   1.220  10.128 -0.3842  0.4045 -0.2336
  101OSM    H6T10150   2.946   1.149  10.203  0.0587  1.1719  0.9132
  101OSM    C7S10151   3.125   1.026  10.217  0.4368 -0.0089  0.2850
  101OSM    H7S10152   3.125   0.967  10.311  0.1172  0.6721  0.7180
  101OSM    H7T10153   3.235   1.030  10.200  0.4893 -1.1531  0.3110
  101OSM    C8S10154   3.087   0.933  10.105  0.0781  0.7374  0.2431
  101OSM    H8S10155   2.976   0.930  10.100  0.1455 -0.7251 -0.8877
  101OSM    H8T10156   3.129   0.832  10.126  0.9601  0.9096 -0.6660
  101OSM    C9S10157   3.154   0.981   9.968 -0.0686 -0.6697  0.6424
  101OSM    H9S10158   3.262   1.000   9.979  0.0930 -0.7478 -0.7645
  101OSM    H9T10159   3.102   1.078   9.951  1.0820  0.2009  1.9945
  101OSM   C10S10160   3.141   0.885   9.849  0.3255  0.8948  0.1402
  101OSM   H10S10161   3.036   0.850   9.848 -0.2526  2.5003  1.1858
  101OSM   H10T10162   3.206   0.796   9.859  2.0744  1.8148 -2.5142
  101OSM   C11S10163   3.166   0.959   9.714  0.2430 -0.3670  0.6054
  101OSM   H11S10164   3.277   0.967   9.712  0.0983  1.7365 -2.4004
  101OSM   H11T10165   3.123   1.061   9.716 -2.4058 -1.3296 -2.9312
  101OSM   C12S10166   3.123   0.889   9.584  0.7238 -0.5589  0.1626
  101OSM   H12S10167   3.127   0.964   9.501  1.5595 -0.3793  0.3567
  101OSM   H12T10168   3.015   0.865   9.593  0.7554 -0.6941  0.1739
  101OSM   C13S10169   3.209   0.770   9.532  0.7163  0.2843 -0.0804
  101OSM   H13S10170   3.133   0.717   9.470 -0.4124 -0.5290  1.9295
  101OSM   H13T10171   3.232   0.704   9.619  1.6423 -2.0978 -2.0743
  101OSM   C14S10172   3.328   0.810   9.446  0.0454 -0.2456  0.4066
  101OSM   H14S10173   3.400   0.881   9.492 -1.3872  1.5022 -0.0315
  101OSM   H14T10174   3.286   0.871   9.363  2.6323 -0.0530 -0.8120
  101OSM   C15S10175   3.410   0.694   9.372  0.3597 -0.1090 -0.3944
  101OSM   H15S10176   3.468   0.729   9.284 -0.5813  0.7380 -0.6928
  101OSM   H15T10177   3.347   0.611   9.333  0.3614  0.9713 -2.7891
  101OSM   C16S10178   3.513   0.632   9.470 -0.4819 -0.3235  0.1882
  101OSM   H16S10179   3.553   0.538   9.425  2.5973 -0.1126  2.2989
  101OSM   H16T10180   3.462   0.601   9.564 -1.6831 -1.2434 -0.7434
  101OSM   C17S10181   3.620   0.731   9.501 -0.4930  0.0635  0.0612
  101OSM   H17S10182   3.584   0.809   9.572 -1.7011 -2.2914  2.1251
  101OSM   H17T10183   3.658   0.776   9.407 -2.0814 -0.4199 -0.8400
  101OSM   C18S10184   3.733   0.660   9.571  0.7917  0.5191 -0.0152
  101OSM   H18S10185   3.799   0.736   9.617 -1.0965  2.9231 -1.1363
  101OSM   H18T10186   3.799   0.601   9.504  0.3004 -0.7793  0.6352
  101OSM   H18U10187   3.682   0.601   9.650 -0.0915  1.0865 -0.1532
  101OSM    C1F10188   3.420   1.564  10.355  0.3145 -0.1971 -0.4886
  101OSM     OF10189   3.537   1.533  10.360  0.2393 -0.1591  0.6830
  101OSM    C2F10190   3.368   1.692  10.296 -0.7099  0.2676  0.2578
  101OSM    H2F10191   3.393   1.769  10.372  0.3358  0.9652 -0.7567
  101OSM    H2G10192   3.259   1.691  10.278 -0.6643  0.9414 -0.0588
  101OSM    C3F10193   3.445   1.732  10.170  0.0321  0.2678  0.2447
  101OSM    H3F10194   3.551   1.697  10.170 -0.1445 -0.2747  0.8802
  101OSM    H3G10195   3.444   1.843  10.164  0.6805  0.2617  0.0125
  101OSM    C4F10196   3.381   1.663  10.048  0.0544 -0.4871  0.4995
  101OSM    H4F10197   3.275   1.696  10.042  0.2302  0.0514  0.2953
  101OSM    H4G10198   3.389   1.554  10.066 -0.0072 -0.1513  2.6662
  101OSM    C5F10199   3.441   1.689   9.910  0.1502 -0.0207  0.2517
  101OSM    H5F10200   3.449   1.587   9.867  0.5571  0.9534 -2.1140
  101OSM    H5G10201   3.544   1.727   9.929 -0.0721  0.2201  0.9676
  101OSM    C6F10202   3.365   1.791   9.824 -0.8811 -0.5062  0.6099
  101OSM    H6F10203   3.259   1.759   9.819 -0.8750 -0.3362 -0.5937
  101OSM    H6G10204   3.367   1.893   9.868  0.5194  0.7327 -2.2175
  101OSM    C7F10205   3.429   1.804   9.685 -0.0550  0.8418 -0.1307
  101OSM    H7F10206   3.418   1.710   9.626 -1.3205  0.4566  0.7235
  101OSM    H7G10207   3.539   1.819   9.694 -0.1437  0.0107  2.5963
  101OSM    C8F10208   3.367   1.919   9.593 -0.0181  0.3621  0.0987
  101OSM    H8F10209   3.257   1.905   9.588  0.1972 -1.7443  0.7679
  101OSM    H8G10210   3.402   1.893   9.491 -0.8133  1.1795 -0.3928
  101OSM    C9F10211   3.400   2.053   9.643  0.6203 -0.3021 -0.3236
  101OSM    H9F10212   3.397   2.066   9.752 -2.4809 -1.3991 -0.2315
  101OSM   C10F10213   3.444   2.157   9.562 -0.1250  0.9375  0.5768
  101OSM   H10F10214   3.455   2.256   9.608 -0.0034  0.5950  1.2897
  101OSM   C11F10215   3.453   2.152   9.410  0.0251 -0.3729  0.8941
  101OSM   H11F10216   3.486   2.054   9.370 -1.0052 -1.9162  3.6571
  101OSM   H11G10217   3.541   2.215   9.384 -0.3857 -0.0922  0.1699
  101OSM   C12F10218   3.331   2.208   9.345  0.5488 -0.1648 -0.5562
  101OSM   H12F10219   3.302   2.308   9.383  2.0404 -0.2195  0.7663
  101OSM   H12G10220   3.248   2.136   9.363  0.4629  0.0007 -0.2849
  101OSM   C13F10221   3.344   2.234   9.195  0.4918 -0.2030 -0.4620
  101OSM   H13F10222   3.386   2.145   9.144  2.3300  0.4841 -0.1927
  101OSM   H13G10223   3.416   2.317   9.177  0.3907 -0.5552 -2.6070
  101OSM   C14F10224   3.198   2.266   9.136  0.3730  0.2242 -0.1200
  101OSM   H14F10225   3.175   2.369   9.170 -0.2858 -0.3931  1.3686
  101OSM   H14G10226   3.117   2.194   9.162  0.7686 -1.0425 -2.2643
  101OSM   C15F10227   3.196   2.270   8.977 -0.2405 -0.3110  0.1326
  101OSM   H15F10228   3.218   2.166   8.946 -2.6075 -1.5430  2.4363
  101OSM   H15G10229   3.277   2.338   8.944  0.3548 -1.9833 -1.9558
  101OSM   C16F10230   3.060   2.317   8.918 -1.0039  0.3199  0.5165
  101OSM   H16F10231   2.978   2.251   8.956 -1.9958  1.2074 -0.0486
  101OSM   H16G10232   3.072   2.307   8.808  2.3141 -1.1893  0.9610
  101OSM   C17F10233   3.016   2.464   8.937  0.1847 -0.0300 -0.0352
  101OSM   H17F10234   2.980   2.470   9.042 -1.1207  3.0670 -0.5986
  101OSM   H17G10235   2.928   2.482   8.872  0.6408 -2.5394 -1.4221
  101OSM   C18F10236   3.126   2.564   8.920  0.1896  0.3279  0.2866
  101OSM   H18F10237   3.087   2.666   8.902 -1.2062 -0.0903  0.8104
  101OSM   H18G10238   3.182   2.534   8.829 -0.4923  0.5486 -0.2043
  101OSM   H18H10239   3.201   2.561   9.002 -1.8167  0.3566  2.1892
  102OSM      N10240   4.778   2.804  10.811  0.5435  0.3286 -0.0131
  102OSM    C1510241   4.748   2.679  10.734 -0.2369 -0.2539 -0.4959
  102OSM   H15A10242   4.765   2.689  10.628  0.4622  1.6171 -0.2117
  102OSM   H15B10243   4.643   2.661  10.757  0.3765 -0.6253  2.2732
  102OSM   H15C10244   4.813   2.598  10.763  1.0262  0.9853  0.1718
  102OSM    C1410245   4.737   2.785  10.952  0.2052 -0.1228  0.3326
  102OSM   H14A10246   4.768   2.871  11.009 -0.9358  1.1484 -0.9252
  102OSM   H14B10247   4.777   2.699  11.004 -1.7751 -1.1454  0.2292
  102OSM   H14C10248   4.629   2.775  10.952  0.0720  1.1849 -0.3236
  102OSM    C1310249   4.927   2.815  10.813 -0.1311  0.1808 -0.2068
  102OSM   H13A10250   4.978   2.732  10.860  1.4027  0.9317 -0.5027
  102OSM   H13B10251   4.959   2.909  10.855  0.0257  0.1268 -0.2040
  102OSM   H13C10252   4.963   2.805  10.712 -1.2639 -0.3135 -0.5746
  102OSM    C1210253   4.711   2.920  10.738 -0.7037  0.1836  0.4386
  102OSM   H12A10254   4.685   3.002  10.802 -1.6446  1.2687 -1.2899
  102OSM   H12B10255   4.619   2.894  10.687 -0.2945  0.8980 -0.6795
  102OSM    C1110256   4.781   2.974  10.612  0.7829  0.0481  0.8631
  102OSM   H11A10257   4.720   3.018  10.531 -0.6004 -0.8414  1.4070
  102OSM   H11B10258   4.815   2.885  10.555  0.4370 -0.2098  1.0536
  102OSM      P10259   4.893   3.200  10.679  0.1613  0.2717 -0.5166
  102OSM    O1310260   4.802   3.209  10.795  0.2918 -0.4118 -0.2948
  102OSM    O1410261   5.033   3.245  10.704 -0.1292 -0.3045 -0.2649
  102OSM    O1110262   4.835   3.270  10.551  0.4355 -0.0639  0.1795
  102OSM    O1210263   4.893   3.048  10.649 -0.1864 -0.0608 -0.0172
  102OSM    C1S10264   4.906   3.384  10.493  0.2234 -0.0088  0.1177
  102OSM    H1S10265   4.980   3.346  10.419  0.6980  1.4849 -0.2009
  102OSM    H1T10266   4.956   3.435  10.578 -1.2542 -1.0803  1.6354
  102OSM     NF10267   4.892   3.549  10.310 -0.2375 -0.5862 -0.0654
  102OSM    HNF10268   4.914   3.641  10.340  0.6922 -0.7361 -0.2802
  102OSM    C2S10269   4.809   3.465  10.399 -0.0384 -0.1266 -0.5628
  102OSM    H2S10270   4.762   3.387  10.336 -0.6355 -0.0295 -0.2404
  102OSM    C3S10271   4.709   3.541  10.487 -0.2657 -0.2148  0.6303
  102OSM    H3S10272   4.773   3.595  10.560  0.2322 -1.6948  1.3140
  102OSM     O310273   4.632   3.438  10.553 -0.0167 -0.2306  0.2933
  102OSM    HO310274   4.693   3.366  10.568  1.5107  0.4404 -2.2741
  102OSM    C4S10275   4.626   3.637  10.403 -0.0145 -0.2389 -0.3138
  102OSM    H4S10276   4.671   3.738  10.403 -3.6356  1.4573 -1.6386
  102OSM    C5S10277   4.507   3.627  10.346 -0.5628 -0.5001  0.5018
  102OSM    H5S10278   4.452   3.532  10.356 -0.1826 -0.7423  0.3312
  102OSM    C6S10279   4.430   3.728  10.264  0.0565  0.0919 -0.9188
  102OSM    H6S10280   4.489   3.822  10.254  0.5104 -0.3389 -2.5002
  102OSM    H6T10281   4.330   3.741  10.310  1.2548  1.0082  1.5420
  102OSM    C7S10282   4.416   3.682  10.115 -0.3790 -0.2435 -0.2709
  102OSM    H7S10283   4.358   3.755  10.055 -0.2381  0.5387  0.5272
  102OSM    H7T10284   4.352   3.592  10.110 -0.9098  0.2251 -1.9782
  102OSM    C8S10285   4.550   3.678  10.027  0.3785  0.1934 -0.4036
  102OSM    H8S10286   4.608   3.588  10.057  3.0982  1.2146 -2.4412
  102OSM    H8T10287   4.609   3.770  10.046 -1.3916  0.8579  2.1324
  102OSM    C9S10288   4.524   3.675   9.879 -0.2854  0.3726  0.3247
  102OSM    H9S10289   4.445   3.745   9.846  0.7890  1.1828 -0.5799
  102OSM    H9T10290   4.476   3.581   9.847  0.8511  0.6489 -2.2964
  102OSM   C10S10291   4.658   3.681   9.790 -0.0204 -0.0363 -0.0985
  102OSM   H10S10292   4.730   3.609   9.833  1.4385  1.2458 -0.3404
  102OSM   H10T10293   4.693   3.787   9.796  0.2754 -0.2050  1.2349
  102OSM   C11S10294   4.646   3.643   9.637  0.1114  0.0433 -0.0517
  102OSM   H11S10295   4.607   3.540   9.621 -0.3172  0.1952  0.0070
  102OSM   H11T10296   4.743   3.663   9.587 -0.2416  0.6115 -0.5175
  102OSM   C12S10297   4.549   3.750   9.573  0.3269 -0.1835 -0.2720
  102OSM   H12S10298   4.598   3.848   9.589 -2.2893  1.0440  0.6532
  102OSM   H12T10299   4.452   3.748   9.628 -0.0491 -2.0134 -0.9698
  102OSM   C13S10300   4.525   3.751   9.418  0.2273 -0.5604  0.2091
  102OSM   H13S10301   4.619   3.777   9.365 -0.1857 -0.4772 -0.4730
  102OSM   H13T10302   4.446   3.827   9.401  1.3718  0.9329  1.3666
  102OSM   C14S10303   4.481   3.612   9.379 -0.1748 -0.3876 -0.2651
  102OSM   H14S10304   4.388   3.597   9.438  0.8646 -0.5071  1.3573
  102OSM   H14T10305   4.554   3.533   9.409 -0.1574 -0.0990  0.4537
  102OSM   C15S10306   4.435   3.604   9.233 -0.2646  0.4711  0.4155
  102OSM   H15S10307   4.513   3.651   9.169 -1.4344  1.4434 -0.3168
  102OSM   H15T10308   4.349   3.675   9.234 -1.6518 -1.1686  0.0992
  102OSM   C16S10309   4.422   3.459   9.173 -0.4172 -0.3404  0.6020
  102OSM   H16S10310   4.339   3.421   9.235 -0.5834 -1.4043 -0.2500
  102OSM   H16T10311   4.519   3.408   9.191 -0.0391 -0.0111 -0.4461
  102OSM   C17S10312   4.372   3.438   9.025  0.0031  0.3413  0.2809
  102OSM   H17S10313   4.274   3.487   9.004 -0.3321 -0.1014  0.8135
  102OSM   H17T10314   4.354   3.329   9.023 -2.8764  0.7536  0.7616
  102OSM   C18S10315   4.474   3.475   8.921  0.6278  0.0586  0.2155
  102OSM   H18S10316   4.541   3.387   8.908 -0.6117 -0.7760 -0.6456
  102OSM   H18T10317   4.532   3.564   8.953 -0.2075  0.7423 -0.1604
  102OSM   H18U10318   4.422   3.503   8.827  0.6589 -1.4288 -0.2597
  102OSM    C1F10319   4.954   3.508  10.204 -0.3150 -1.0850  0.3572
  102OSM     OF10320   4.963   3.388  10.186 -0.1787 -0.0373  0.2969
  102OSM    C2F10321   5.026   3.611  10.123 -1.1362  0.3918 -0.1950
  102OSM    H2F10322   5.043   3.557  10.028  1.7319  0.2833  0.3301
  102OSM    H2G10323   5.119   3.634  10.179 -0.3209 -2.0860 -0.4549
  102OSM    C3F10324   4.963   3.751  10.097 -0.2675 -0.0720 -0.0577
  102OSM    H3F10325   4.945   3.795  10.198 -1.2956  0.5588 -0.5124
  102OSM    H3G10326   4.864   3.749  10.047  0.1523  1.2678 -0.9709
  102OSM    C4F10327   5.050   3.843  10.007 -0.0764 -0.3978 -0.4617
  102OSM    H4F10328   5.144   3.872  10.058  0.0623  0.1755 -1.0363
  102OSM    H4G10329   4.988   3.931   9.979  0.6505  0.7100  1.3684
  102OSM    C5F10330   5.088   3.772   9.871  0.0975  1.6606 -0.2215
  102OSM    H5F10331   5.008   3.701   9.843 -0.2430  1.2084  1.8170
  102OSM    H5G10332   5.184   3.719   9.893  0.6748  3.1889  0.9537
  102OSM    C6F10333   5.110   3.883   9.763  0.4245 -0.6723  0.5171
  102OSM    H6F10334   5.193   3.948   9.799 -0.9055  1.6735 -0.5040
  102OSM    H6G10335   5.030   3.959   9.746  1.5462 -0.0153 -2.2062
  102OSM    C7F10336   5.129   3.811   9.631  0.3630 -0.1431  0.3973
  102OSM    H7F10337   5.033   3.765   9.599  0.8863 -0.6717 -0.4464
  102OSM    H7G10338   5.204   3.730   9.642  3.0277  1.7264 -2.9525
  102OSM    C8F10339   5.187   3.905   9.522  0.3156 -0.3299  0.4534
  102OSM    H8F10340   5.294   3.925   9.542  0.3818  0.2192 -0.4298
  102OSM    H8G10341   5.135   4.003   9.522 -2.6909 -1.8659  1.4812
  102OSM    C9F10342   5.177   3.829   9.391 -0.4777  0.4639 -0.4872
  102OSM    H9F10343   5.234   3.735   9.389 -0.1349  0.6204  1.4131
  102OSM   C10F10344   5.116   3.872   9.282 -0.4622 -0.9552 -0.3867
  102OSM   H10F10345   5.143   3.827   9.186  4.0298 -0.6611  0.6092
  102OSM   C11F10346   5.040   3.995   9.266  0.4599  0.0838  0.3777
  102OSM   H11F10347   5.109   4.079   9.291  0.5465  0.1498 -0.0687
  102OSM   H11G10348   4.957   3.989   9.339 -0.7946  2.6536 -0.7678
  102OSM   C12F10349   4.974   4.019   9.130  0.2054  0.0732  0.6047
  102OSM   H12F10350   5.062   4.025   9.061  0.4514  1.3681  1.0026
  102OSM   H12G10351   4.915   4.113   9.119 -0.3180 -0.3917 -0.7101
  102OSM   C13F10352   4.875   3.915   9.066 -0.2894  0.5148  0.6736
  102OSM   H13F10353   4.793   3.902   9.140  0.4459 -2.0606  1.0902
  102OSM   H13G10354   4.920   3.816   9.045 -2.2286  0.1515 -1.9825
  102OSM   C14F10355   4.790   3.962   8.947 -0.8039  0.2482  0.2526
  102OSM   H14F10356   4.857   3.957   8.859  1.1522 -1.0820  1.7688
  102OSM   H14G10357   4.757   4.067   8.962  1.9607  1.2227 -0.2395
  102OSM   C15F10358   4.665   3.875   8.921 -1.0275 -0.5781 -0.0995
  102OSM   H15F10359   4.590   3.900   8.999  0.8502 -2.0360  2.2350
  102OSM   H15G10360   4.695   3.768   8.924  2.2028  0.2896  0.6667
  102OSM   C16F10361   4.601   3.896   8.783  0.2341  0.3131 -0.6347
  102OSM   H16F10362   4.504   3.843   8.770  1.1729 -1.1625 -1.8146
  102OSM   H16G10363   4.671   3.847   8.712  0.3488 -4.2825  2.4649
  102OSM   C17F10364   4.584   4.050   8.732 -0.0641  0.7337  0.1686
  102OSM   H17F10365   4.672   4.113   8.756 -0.6599  2.0922 -1.1285
  102OSM   H17G10366   4.502   4.100   8.787  1.4897  1.1136  2.2028
  102OSM   C18F10367   4.539   4.053   8.586 -0.6336  0.3092 -0.4779
  102OSM   H18F10368   4.485   3.957   8.570  2.5880 -1.6221 -0.1067
  102OSM   H18G10369   4.631   4.045   8.524  1.0461 -1.8451  2.1747
  102OSM   H18H10370   4.486   4.148   8.562 -1.2986 -0.3054 -1.4697
  103OSM      N10371   4.210   5.938  10.994  0.4110  0.5640 -0.5968
  103OSM    C1510372   4.118   5.892  11.108 -0.5293  0.1120 -0.4221
  103OSM   H15A10373   4.112   5.784  11.107 -0.3827  0.1046 -0.3929
  103OSM   H15B10374   4.016   5.929  11.105 -2.8031 -5.6677 -1.7199
  103OSM   H15C10375   4.158   5.921  11.203  0.0843 -1.1235 -0.2863
  103OSM    C1410376   4.231   6.090  11.001 -0.3758  0.1584  0.0862
  103OSM   H14A10377   4.140   6.145  10.979 -1.7513 -1.0111  2.6455
  103OSM   H14B10378   4.306   6.129  10.935  0.6622 -0.6261  0.7841
  103OSM   H14C10379   4.259   6.114  11.103 -1.2465  0.2122  0.3227
  103OSM    C1310380   4.339   5.868  11.018 -0.8945  0.8314 -0.5022
  103OSM   H13A10381   4.392   5.855  10.925 -0.6650  0.7508 -0.3585
  103OSM   H13B10382   4.320   5.766  11.046  0.4553  0.7086 -0.0100
  103OSM   H13C10383   4.401   5.918  11.091 -2.0547 -0.2235  1.2455
  103OSM    C1210384   4.150   5.901  10.854 -0.4265  0.4479 -0.7392
  103OSM   H12A10385   4.139   5.794  10.849  0.5655  0.2997  0.1747
  103OSM   H12B10386   4.211   5.933  10.771  1.8927  0.8615  1.0701
  103OSM    C1110387   4.010   5.950  10.831 -0.1073  0.3795  0.1357
  103OSM   H11A10388   3.933   5.927  10.908 -2.9858  1.4680 -2.3158
  103OSM   H11B10389   3.970   5.897  10.742 -0.7198 -1.2234  1.3362
  103OSM      P10390   3.906   6.189  10.855  0.1835  0.4448 -0.2489
  103OSM    O1310391   3.827   6.130  10.965 -0.1266 -0.1838 -0.2882
  103OSM    O1410392   3.983   6.309  10.897 -0.0662 -0.0168 -0.2198
  103OSM    O1110393   3.818   6.246  10.739 -0.7625  0.2116 -0.2255
  103OSM    O1210394   4.011   6.094  10.793  0.3483  0.4076  0.0031
  103OSM    C1S10395   3.860   6.309  10.619 -0.1396  0.1968  0.8603
  103OSM    H1S10396   3.910   6.231  10.558 -0.2340  0.9407 -0.1748
  103OSM    H1T10397   3.936   6.386  10.642  1.5214 -1.3642  0.6907
  103OSM     NF10398   3.783   6.441  10.425 -0.2082 -0.0402  0.0706
  103OSM    HNF10399   3.761   6.538  10.420 -0.0296 -0.0657 -1.3312
  103OSM    C2S10400   3.734   6.362  10.540 -0.1082  0.1026 -0.1663
  103OSM    H2S10401   3.687   6.271  10.497 -0.8512  1.4577 -2.2808
  103OSM    C3S10402   3.637   6.442  10.628 -0.1585  0.1150 -1.4333
  103OSM    H3S10403   3.688   6.534  10.664  2.0387 -1.7199  0.2531
  103OSM     O310404   3.595   6.378  10.754  0.4142 -0.7838  0.5476
  103OSM    HO310405   3.653   6.306  10.779  1.6362 -0.4158 -1.1140
  103OSM    C4S10406   3.523   6.477  10.552  0.1089  0.6669  0.0354
  103OSM    H4S10407   3.451   6.394  10.540 -0.0535  0.5099  1.9969
  103OSM    C5S10408   3.493   6.601  10.509  0.6849 -0.1838 -0.2383
  103OSM    H5S10409   3.562   6.686  10.508  2.3631 -1.5217  0.3269
  103OSM    C6S10410   3.375   6.633  10.424 -0.2504  0.0372  0.3702
  103OSM    H6S10411   3.312   6.711  10.473 -1.6289  0.2669 -1.7175
  103OSM    H6T10412   3.298   6.556  10.405  0.0064 -0.2164  0.3608
  103OSM    C7S10413   3.407   6.697  10.286  0.5128 -0.2801 -0.3375
  103OSM    H7S10414   3.467   6.790  10.293  2.3540 -1.6320  3.1354
  103OSM    H7T10415   3.314   6.729  10.233  1.7164  0.2268 -2.1600
  103OSM    C8S10416   3.469   6.596  10.191  0.6297 -0.1842  0.4976
  103OSM    H8S10417   3.399   6.511  10.184  2.7976 -2.2849  2.9892
  103OSM    H8T10418   3.553   6.553  10.250  1.6669 -0.1415 -0.9038
  103OSM    C9S10419   3.497   6.641  10.049  1.1949 -0.4890  0.2918
  103OSM    H9S10420   3.584   6.706  10.023  1.2091  0.3192  2.3096
  103OSM    H9T10421   3.405   6.696  10.020  0.8969 -1.0558  0.1448
  103OSM   C10S10422   3.519   6.516   9.955 -0.8927 -0.4296 -0.6846
  103OSM   H10S10423   3.438   6.444   9.981 -0.4903 -0.6188  0.0317
  103OSM   H10T10424   3.618   6.467   9.953  1.4265  3.9811 -0.0362
  103OSM   C11S10425   3.497   6.557   9.805  0.0416  0.5638 -1.0769
  103OSM   H11S10426   3.395   6.601   9.804  0.1168  0.8249  0.8976
  103OSM   H11T10427   3.486   6.464   9.745  0.7566 -0.3660  0.2013
  103OSM   C12S10428   3.607   6.650   9.758  0.0540 -0.6780  0.5719
  103OSM   H12S10429   3.698   6.601   9.798  0.5142  0.2304  0.6736
  103OSM   H12T10430   3.610   6.741   9.822 -1.6343 -1.7062  2.1564
  103OSM   C13S10431   3.607   6.684   9.611 -0.1441  0.4727  0.0721
  103OSM   H13S10432   3.681   6.760   9.580 -0.0186 -0.7007 -2.6130
  103OSM   H13T10433   3.504   6.712   9.583 -0.3930 -1.0108 -0.5782
  103OSM   C14S10434   3.643   6.569   9.518  0.3248  0.3047  0.8025
  103OSM   H14S10435   3.574   6.481   9.519 -0.1234  0.6212 -0.4822
  103OSM   H14T10436   3.742   6.532   9.551  0.3791 -1.7003 -1.4236
  103OSM   C15S10437   3.656   6.606   9.370  0.7823  0.5062  0.9991
  103OSM   H15S10438   3.722   6.534   9.319  1.8051 -0.3610  3.4436
  103OSM   H15T10439   3.711   6.702   9.362 -1.7572  1.9043 -0.6460
  103OSM   C16S10440   3.522   6.618   9.302  0.1513  0.0542  0.0562
  103OSM   H16S10441   3.486   6.723   9.297 -0.4189 -0.1893 -1.2978
  103OSM   H16T10442   3.450   6.555   9.359 -1.4628  3.0992  1.4833
  103OSM   C17S10443   3.540   6.572   9.155  0.7197 -0.3199 -1.1497
  103OSM   H17S10444   3.581   6.469   9.156 -2.5144 -1.6546  0.2290
  103OSM   H17T10445   3.614   6.643   9.112 -1.1838  1.7690 -1.0750
  103OSM   C18S10446   3.412   6.573   9.069  0.3684 -0.5053  0.1743
  103OSM   H18S10447   3.430   6.523   8.972  0.8505 -0.1470  0.0782
  103OSM   H18T10448   3.373   6.676   9.054  3.6408  0.9771  1.1696
  103OSM   H18U10449   3.334   6.504   9.107  0.7945 -1.2987 -0.3821
  103OSM    C1F10450   3.851   6.384  10.324  0.3627 -0.6177  0.3517
  103OSM     OF10451   3.854   6.262  10.296  0.2795  0.4960 -0.1792
  103OSM    C2F10452   3.919   6.484  10.227  0.0403 -0.7220 -0.0536
  103OSM    H2F10453   3.965   6.563  10.290 -0.1264 -0.6134 -0.0667
  103OSM    H2G10454   3.840   6.527  10.162 -0.5237 -0.4975  0.7709
  103OSM    C3F10455   4.031   6.412  10.151 -0.3357 -0.3621  0.6865
  103OSM    H3F10456   3.990   6.324  10.096  0.0323  1.2704 -2.3602
  103OSM    H3G10457   4.098   6.370  10.228  0.7203  2.8445  1.5995
  103OSM    C4F10458   4.113   6.492  10.045 -0.5140  0.4536  0.7857
  103OSM    H4F10459   4.185   6.423   9.995 -2.3964 -1.7264  1.0089
  103OSM    H4G10460   4.175   6.573  10.090  0.5392 -0.1897  0.5203
  103OSM    C5F10461   4.029   6.541   9.926  0.0600  0.1932  0.6498
  103OSM    H5F10462   3.956   6.617   9.963  0.3460 -0.9204  3.6463
  103OSM    H5G10463   3.968   6.453   9.899  0.1436  0.2429  0.2921
  103OSM    C6F10464   4.112   6.578   9.808  0.2504  0.7296  0.4796
  103OSM    H6F10465   4.170   6.487   9.779 -0.8196  0.3247 -0.4577
  103OSM    H6G10466   4.178   6.666   9.819  1.6835 -0.4154  1.2306
  103OSM    C7F10467   4.019   6.599   9.685 -0.0963  0.5808  0.4665
  103OSM    H7F10468   3.940   6.670   9.718  1.0206  1.5744  1.0457
  103OSM    H7G10469   3.975   6.499   9.665  0.0331  0.2317  1.8629
  103OSM    C8F10470   4.073   6.670   9.557  0.4400  0.4346  0.1996
  103OSM    H8F10471   4.095   6.776   9.579 -0.5389  0.6958 -0.0528
  103OSM    H8G10472   3.982   6.679   9.495 -0.3985 -1.1147  1.1741
  103OSM    C9F10473   4.183   6.596   9.486 -0.1379  0.4024  0.6838
  103OSM    H9F10474   4.242   6.530   9.552 -0.0788 -0.8561 -0.6131
  103OSM   C10F10475   4.204   6.584   9.350 -0.1120  0.3497 -0.0042
  103OSM   H10F10476   4.299   6.537   9.320 -0.8007  0.8281 -3.0647
  103OSM   C11F10477   4.115   6.627   9.235 -0.5008 -0.4283 -0.1659
  103OSM   H11F10478   4.174   6.680   9.157  0.8359 -0.2055  0.9699
  103OSM   H11G10479   4.035   6.699   9.262  1.0351  1.4065 -0.3171
  103OSM   C12F10480   4.048   6.511   9.169  0.1474 -0.1341 -0.2221
  103OSM   H12F10481   3.979   6.452   9.235  0.8034 -2.9434 -1.9724
  103OSM   H12G10482   4.125   6.443   9.127  3.5466  3.5451 -0.1758
  103OSM   C13F10483   3.963   6.568   9.054 -0.1744  0.4367  0.7790
  103OSM   H13F10484   4.030   6.647   9.014 -0.4702  0.4725  0.3517
  103OSM   H13G10485   3.868   6.618   9.083 -1.5784 -0.3523 -2.2811
  103OSM   C14F10486   3.926   6.463   8.940 -0.0943  0.5279  0.8666
  103OSM   H14F10487   3.868   6.387   8.996  0.6747  1.4464  2.9678
  103OSM   H14G10488   4.023   6.425   8.901  0.2538  0.4766  1.7709
  103OSM   C15F10489   3.850   6.538   8.832 -0.7796 -0.0213 -1.2845
  103OSM   H15F10490   3.933   6.602   8.797  1.3839 -2.2780 -0.4541
  103OSM   H15G10491   3.766   6.595   8.877  0.4115  0.3532  0.5546
  103OSM   C16F10492   3.797   6.439   8.725 -0.0683 -0.1700 -0.7302
  103OSM   H16F10493   3.691   6.423   8.754  0.5323 -2.5466  0.2783
  103OSM   H16G10494   3.848   6.341   8.717 -2.3028 -1.2991 -1.4769
  103OSM   C17F10495   3.804   6.502   8.583  0.9952 -0.6503  0.2688
  103OSM   H17F10496   3.907   6.491   8.542  0.6726  0.4287 -0.8819
  103OSM   H17G10497   3.785   6.610   8.596  0.9158 -0.8232  1.6163
  103OSM   C18F10498   3.728   6.432   8.476  0.1791  0.4886 -0.5324
  103OSM   H18F10499   3.762   6.453   8.373 -0.5953  3.3869 -0.2341
  103OSM   H18G10500   3.619   6.454   8.482 -0.1752 -1.2171 -0.5416
  103OSM   H18H10501   3.749   6.325   8.497  2.0633  0.9048 -0.1574
  104OSM      N10502   5.678   5.482  10.773 -0.3059  0.2276 -0.1993
  104OSM    C1510503   5.558   5.563  10.824 -0.5451  0.5684 -0.4731
  104OSM   H15A10504   5.533   5.534  10.925 -0.6401 -0.9017 -0.9018
  104OSM   H15B10505   5.468   5.524  10.777  0.3948 -2.8474  0.4182
  104OSM   H15C10506   5.585   5.666  10.805  0.6630  0.4738  0.6949
  104OSM    C1410507   5.649   5.340  10.787  0.3338 -0.4816  0.9503
  104OSM   H14A10508   5.543   5.327  10.771  0.2405  1.7784 -0.4191
  104OSM   H14B10509   5.662   5.296  10.885 -1.1560  0.0432  1.3942
  104OSM   H14C10510   5.705   5.280  10.717  0.9321  1.7691 -0.5482
  104OSM    C1310511   5.692   5.520  10.628  0.5634  0.5270  0.0788
  104OSM   H13A10512   5.596   5.505  10.581  0.1810  0.0167  1.0114
  104OSM   H13B10513   5.765   5.459  10.577 -0.8195 -1.1678  0.0653
  104OSM   H13C10514   5.726   5.622  10.620 -0.0706  0.8515  1.4288
  104OSM    C1210515   5.804   5.512  10.854 -0.4631 -0.6798 -0.2333
  104OSM   H12A10516   5.878   5.444  10.814 -0.9264 -2.1119  1.2492
  104OSM   H12B10517   5.789   5.479  10.956 -2.5392 -0.5552 -0.4866
  104OSM    C1110518   5.867   5.654  10.854 -0.1859  0.0381 -0.3336
  104OSM   H11A10519   5.888   5.684  10.750  1.2451 -1.1254 -0.4064
  104OSM   H11B10520   5.965   5.651  10.907 -0.4799 -0.8524  0.1761
  104OSM      P10521   5.823   5.889  10.956  0.0026  0.3385  0.4534
  104OSM    O1310522   5.707   5.966  11.009  0.5341  0.1586 -0.5062
  104OSM    O1410523   5.942   5.892  11.039 -0.0620  0.1844  0.0924
  104OSM    O1110524   5.863   5.949  10.814  0.2963 -0.5626 -0.0093
  104OSM    O1210525   5.779   5.739  10.922  0.0587 -0.0980  0.1039
  104OSM    C1S10526   5.758   5.949  10.718 -0.5952 -0.0917 -1.2792
  104OSM    H1S10527   5.688   6.032  10.739 -1.3575 -0.0149 -3.9546
  104OSM    H1T10528   5.708   5.850  10.709 -0.4342 -0.2585 -0.3613
  104OSM     NF10529   5.696   5.990  10.473  0.7392 -0.3560 -0.0132
  104OSM    HNF10530   5.686   5.911  10.413 -0.6000 -0.0603 -0.1999
  104OSM    C2S10531   5.801   5.990  10.572 -0.7734  0.7928  0.9866
  104OSM    H2S10532   5.846   6.091  10.577 -1.4044  1.0707  1.0971
  104OSM    C3S10533   5.914   5.893  10.522  0.3266  0.0824 -0.7651
  104OSM    H3S10534   5.879   5.789  10.503  3.5724 -1.3249  0.5483
  104OSM     O310535   6.020   5.874  10.612 -0.1435  0.1419  0.4676
  104OSM    HO310536   5.973   5.907  10.689 -0.6115 -0.0347  0.2603
  104OSM    C4S10537   5.966   5.936  10.384  0.0177  0.3442  0.5071
  104OSM    H4S10538   5.954   6.044  10.365 -0.4613  0.4262  1.2788
  104OSM    C5S10539   6.014   5.850  10.284  0.3738  0.5096  0.0636
  104OSM    H5S10540   6.018   5.742  10.306  2.5196  0.5734  0.0804
  104OSM    C6S10541   6.066   5.892  10.147  0.0277 -0.0980 -0.3157
  104OSM    H6S10542   6.033   5.995  10.124  1.1689  0.0094 -1.5609
  104OSM    H6T10543   6.023   5.833  10.063 -2.2052 -0.0815  0.7955
  104OSM    C7S10544   6.219   5.856  10.145  0.6433 -0.2501  0.8615
  104OSM    H7S10545   6.236   5.748  10.161 -2.0932 -1.0829 -1.4100
  104OSM    H7T10546   6.268   5.907  10.231 -0.7767 -2.2312  2.8884
  104OSM    C8S10547   6.282   5.899  10.008 -0.1922  0.4843  0.8005
  104OSM    H8S10548   6.392   5.885  10.016 -0.1068  0.9025  0.3401
  104OSM    H8T10549   6.263   6.008   9.992  1.2710  0.3568 -1.9509
  104OSM    C9S10550   6.229   5.824   9.887 -0.1540  0.0665  0.1754
  104OSM    H9S10551   6.119   5.821   9.873 -0.0587 -0.2535 -0.5578
  104OSM    H9T10552   6.251   5.715   9.899  1.1737  0.2173 -0.8333
  104OSM   C10S10553   6.285   5.873   9.751 -0.2557 -0.0501  0.7224
  104OSM   H10S10554   6.394   5.848   9.746 -0.2150  0.4132 -0.7554
  104OSM   H10T10555   6.261   5.981   9.746  1.9930  0.4650  0.5170
  104OSM   C11S10556   6.216   5.802   9.630 -0.0624  0.0405 -0.4199
  104OSM   H11S10557   6.115   5.847   9.621 -0.8786 -1.6317  0.0795
  104OSM   H11T10558   6.191   5.695   9.644  0.8171 -0.2557 -1.0538
  104OSM   C12S10559   6.291   5.826   9.493 -0.5355  0.1046  0.1111
  104OSM   H12S10560   6.384   5.767   9.502  0.3899  1.3632 -0.9502
  104OSM   H12T10561   6.309   5.935   9.481 -4.3919  0.8678  0.4117
  104OSM   C13S10562   6.223   5.763   9.362 -0.6355  0.0590  0.3281
  104OSM   H13S10563   6.147   5.829   9.315  0.8758  0.4779 -1.5957
  104OSM   H13T10564   6.187   5.666   9.402 -1.8245  0.0400 -0.7547
  104OSM   C14S10565   6.328   5.748   9.256 -0.7861  0.4046  0.7619
  104OSM   H14S10566   6.396   5.666   9.291  0.7375  1.1505 -0.4214
  104OSM   H14T10567   6.376   5.847   9.242 -1.0364  0.1223 -2.3496
  104OSM   C15S10568   6.275   5.701   9.118  0.2112 -0.4629  0.2950
  104OSM   H15S10569   6.214   5.788   9.086 -0.2297 -1.1188 -0.6453
  104OSM   H15T10570   6.211   5.611   9.123 -0.0399 -0.2631  0.7898
  104OSM   C16S10571   6.384   5.680   9.010 -0.0710  0.2858 -0.5642
  104OSM   H16S10572   6.339   5.638   8.917  0.2459 -0.1834 -0.5094
  104OSM   H16T10573   6.452   5.597   9.038  0.2693 -0.5101 -3.5792
  104OSM   C17S10574   6.455   5.818   8.979 -0.0991  0.9418 -0.4331
  104OSM   H17S10575   6.528   5.838   9.061  0.2320 -0.8539 -0.2448
  104OSM   H17T10576   6.378   5.897   8.977 -1.0429  0.1291  2.1118
  104OSM   C18S10577   6.525   5.799   8.841 -0.4081 -0.2475  0.3166
  104OSM   H18S10578   6.603   5.720   8.846  0.1170  0.1238 -1.5176
  104OSM   H18T10579   6.581   5.889   8.806  1.2315 -1.5281 -0.4746
  104OSM   H18U10580   6.458   5.775   8.756  0.5094  0.3865 -0.6072
  104OSM    C1F10581   5.591   6.072  10.484 -0.3432  0.2720  0.0167
  104OSM     OF10582   5.568   6.154  10.573 -0.0063 -0.0942 -0.0298
  104OSM    C2F10583   5.491   6.059  10.371  0.0518 -0.6415  0.4036
  104OSM    H2F10584   5.451   5.957  10.350  0.0398 -0.4899 -0.3221
  104OSM    H2G10585   5.542   6.095  10.279 -1.2676 -0.5430 -0.3019
  104OSM    C3F10586   5.367   6.150  10.380  0.1747 -0.3313 -0.0248
  104OSM    H3F10587   5.399   6.257  10.390 -0.2267 -0.2715  0.6656
  104OSM    H3G10588   5.313   6.121  10.473  1.5525 -1.0778  0.5630
  104OSM    C4F10589   5.271   6.137  10.263  0.4687  0.1973  0.7499
  104OSM    H4F10590   5.339   6.154  10.176  0.2274  2.8359  1.0259
  104OSM    H4G10591   5.202   6.223  10.251  0.0707 -0.5654 -3.2711
  104OSM    C5F10592   5.211   6.000  10.246 -0.0319 -0.6965 -0.5990
  104OSM    H5F10593   5.131   5.993  10.322  2.0947  1.5152  1.9271
  104OSM    H5G10594   5.272   5.912  10.278  1.3636  0.2430 -0.6460
  104OSM    C6F10595   5.165   5.972  10.094 -0.1307 -0.5397 -0.2915
  104OSM    H6F10596   5.153   5.862  10.084  3.5383 -0.9543 -0.9037
  104OSM    H6G10597   5.256   6.004  10.039  0.7099 -1.7898  0.3515
  104OSM    C7F10598   5.036   6.052  10.051  0.2409  0.1162  0.6155
  104OSM    H7F10599   5.056   6.159  10.076 -1.4728  0.7031 -0.4188
  104OSM    H7G10600   4.964   6.019  10.129  0.3965  1.0234  1.1527
  104OSM    C8F10601   4.992   6.033   9.906  0.3771 -0.1817 -0.5080
  104OSM    H8F10602   4.941   5.935   9.909 -0.4779  0.3009  1.1467
  104OSM    H8G10603   5.092   6.030   9.859  0.4115  0.0838 -0.4533
  104OSM    C9F10604   4.911   6.144   9.848  0.6016 -0.1885 -0.0167
  104OSM    H9F10605   4.911   6.246   9.889 -0.8377 -0.3426  0.3983
  104OSM   C10F10606   4.829   6.130   9.738  0.0168  0.0919  0.3528
  104OSM   H10F10607   4.773   6.219   9.705  1.2462  1.0217  0.7533
  104OSM   C11F10608   4.811   6.002   9.658  0.7127  0.3842  0.2806
  104OSM   H11F10609   4.720   5.942   9.683  0.0907  0.4393 -1.8169
  104OSM   H11G10610   4.898   5.934   9.663  0.0227 -0.5680 -0.4448
  104OSM   C12F10611   4.791   6.057   9.513  1.1770  0.2111 -0.9145
  104OSM   H12F10612   4.882   6.117   9.494  2.1527 -0.2498  1.9821
  104OSM   H12G10613   4.699   6.118   9.507  0.8149 -0.2029  0.2372
  104OSM   C13F10614   4.771   5.938   9.415 -0.2274 -0.2568  0.4084
  104OSM   H13F10615   4.687   5.870   9.441 -0.4438  0.4945  1.7449
  104OSM   H13G10616   4.866   5.881   9.419  0.1906  0.2860 -1.4780
  104OSM   C14F10617   4.749   5.998   9.275 -0.0483 -0.2559 -0.0267
  104OSM   H14F10618   4.846   6.045   9.248 -0.8835  0.4609 -1.9428
  104OSM   H14G10619   4.673   6.079   9.265 -0.2891 -0.4022  0.6392
  104OSM   C15F10620   4.713   5.887   9.166 -0.2794 -0.1153 -0.0534
  104OSM   H15F10621   4.652   5.810   9.217 -0.3463  0.9155  1.4625
  104OSM   H15G10622   4.808   5.841   9.130 -1.9091 -1.7111 -2.5260
  104OSM   C16F10623   4.636   5.952   9.049  0.2222 -0.4771  0.7922
  104OSM   H16F10624   4.551   6.011   9.087  2.2023  1.1634  2.8142
  104OSM   H16G10625   4.587   5.872   8.989  0.8094  0.2756 -0.7194
  104OSM   C17F10626   4.712   6.046   8.957 -0.2434  0.7176 -1.0643
  104OSM   H17F10627   4.798   5.988   8.917 -1.0655 -1.4941  0.2285
  104OSM   H17G10628   4.752   6.127   9.022 -0.3427 -0.0942  0.0271
  104OSM   C18F10629   4.634   6.109   8.842  0.4252  0.3815  0.0323
  104OSM   H18F10630   4.603   6.023   8.779  0.8585 -0.6719  1.2209
  104OSM   H18G10631   4.696   6.186   8.791 -2.0046  1.2227 -1.7279
  104OSM   H18H10632   4.555   6.169   8.892 -0.0680  1.5863 -2.1724
  105OSM      N10633   2.873   2.262  11.061  0.5181  0.3878 -1.2551
  105OSM    C1510634   2.737   2.323  11.058  0.5712  0.5510 -0.1062
  105OSM   H15A10635   2.731   2.429  11.034 -0.4188  0.3646 -0.6873
  105OSM   H15B10636   2.687   2.324  11.153 -1.0848  1.3301 -0.9508
  105OSM   H15C10637   2.674   2.264  10.994  1.7603  0.0343 -0.8259
  105OSM    C1410638   2.965   2.347  11.138 -0.0954  0.1879 -0.2285
  105OSM   H14A10639   3.060   2.299  11.160 -1.2393 -1.9704  0.1547
  105OSM   H14B10640   2.925   2.357  11.237 -0.5062  0.2136 -0.3961
  105OSM   H14C10641   2.965   2.444  11.090  0.0882  0.3841  0.1700
  105OSM    C1310642   2.859   2.137  11.137  0.5475  0.2102 -0.1507
  105OSM   H13A10643   2.793   2.140  11.223  0.5695  0.2748 -0.1369
  105OSM   H13B10644   2.956   2.103  11.170  1.6994  3.6081  0.1236
  105OSM   H13C10645   2.807   2.061  11.081 -2.0436  1.1949  0.8164
  105OSM    C1210646   2.923   2.234  10.925  0.3237  0.6699 -0.2680
  105OSM   H12A10647   3.027   2.203  10.925  0.7843  2.1581 -0.7646
  105OSM   H12B10648   2.921   2.329  10.873 -0.9472  0.1039 -1.2417
  105OSM    C1110649   2.850   2.145  10.825  0.0317  0.7819  0.4327
  105OSM   H11A10650   2.911   2.160  10.733  0.0472  0.9992  0.4780
  105OSM   H11B10651   2.750   2.184  10.797 -0.8866 -0.0914  2.3996
  105OSM      P10652   2.744   1.904  10.824  0.0419 -0.4013  0.3647
  105OSM    O1310653   2.808   1.772  10.789  0.6689 -0.1829  0.7697
  105OSM    O1410654   2.635   1.906  10.929  0.0718  0.2521  0.7877
  105OSM    O1110655   2.696   1.962  10.682 -0.5598  0.7777 -0.0228
  105OSM    O1210656   2.859   2.010  10.860 -0.5771  0.3532 -0.2216
  105OSM    C1S10657   2.555   1.967  10.641  0.2820 -0.0554 -0.4139
  105OSM    H1S10658   2.500   2.039  10.705 -0.3497  1.4551 -2.5918
  105OSM    H1T10659   2.504   1.870  10.660  0.2751  0.6542  3.8389
  105OSM     NF10660   2.409   2.057  10.461 -0.3788 -0.1754  0.0919
  105OSM    HNF10661   2.339   1.992  10.432  0.9771 -0.9173 -1.6606
  105OSM    C2S10662   2.542   2.006  10.491  0.0750 -0.5435 -0.1028
  105OSM    H2S10663   2.620   2.081  10.468  0.0584 -1.3155 -2.8347
  105OSM    C3S10664   2.581   1.883  10.396 -0.4155  0.2287 -0.1584
  105OSM    H3S10665   2.508   1.800  10.410  0.1473 -0.4695 -1.2841
  105OSM     O310666   2.706   1.826  10.424  0.2595 -0.0735 -0.8079
  105OSM    HO310667   2.739   1.884  10.493  2.5906 -1.3965 -0.7761
  105OSM    C4S10668   2.568   1.916  10.254  0.1064  0.2178 -0.0372
  105OSM    H4S10669   2.636   1.994  10.216  0.7355 -0.6579 -0.7318
  105OSM    C5S10670   2.477   1.861  10.168  1.0305 -0.6563 -0.7477
  105OSM    H5S10671   2.402   1.798  10.217  1.0518 -0.4218 -0.4073
  105OSM    C6S10672   2.453   1.902  10.028 -0.2238  0.3710  0.0264
  105OSM    H6S10673   2.359   1.961  10.025 -0.1428  0.5078  0.1336
  105OSM    H6T10674   2.420   1.815   9.967 -2.1652  2.0217 -1.3625
  105OSM    C7S10675   2.567   1.983   9.950  0.5951 -0.2765  0.3839
  105OSM    H7S10676   2.666   1.932   9.956 -0.5582 -2.9398 -1.7842
  105OSM    H7T10677   2.579   2.087   9.985  0.5894 -0.0348 -0.3175
  105OSM    C8S10678   2.539   1.995   9.805 -0.4809  0.0184 -0.8136
  105OSM    H8S10679   2.584   2.088   9.764  0.1960 -0.1107 -0.3674
  105OSM    H8T10680   2.430   2.015   9.794 -0.9569 -1.4405  0.9991
  105OSM    C9S10681   2.588   1.875   9.726  0.7634 -0.1165 -0.0885
  105OSM    H9S10682   2.537   1.783   9.764  1.2689  0.3256  1.7083
  105OSM    H9T10683   2.695   1.857   9.748  0.9233  0.1061 -0.6869
  105OSM   C10S10684   2.572   1.898   9.578  0.4741  0.1513  0.5509
  105OSM   H10S10685   2.618   1.991   9.539  0.7458  0.1666  0.9025
  105OSM   H10T10686   2.463   1.917   9.569  0.1753 -0.7840  1.9721
  105OSM   C11S10687   2.613   1.779   9.484 -0.5403 -0.4531 -0.8572
  105OSM   H11S10688   2.573   1.682   9.521  0.2659  0.0019  1.2641
  105OSM   H11T10689   2.723   1.772   9.475 -0.3755  1.0246 -0.1188
  105OSM   C12S10690   2.566   1.814   9.342 -0.1288 -0.5503  0.5543
  105OSM   H12S10691   2.619   1.908   9.314 -3.0338  0.8966 -0.2443
  105OSM   H12T10692   2.457   1.834   9.351 -0.1451  0.6822 -1.9077
  105OSM   C13S10693   2.593   1.693   9.246 -0.1576 -0.6011 -0.2190
  105OSM   H13S10694   2.516   1.619   9.275 -0.2413 -0.3702  0.1650
  105OSM   H13T10695   2.692   1.652   9.277  0.0995  0.7191  0.7763
  105OSM   C14S10696   2.593   1.731   9.101  0.0345 -0.5539  0.3446
  105OSM   H14S10697   2.615   1.637   9.045 -1.3116  0.3457 -1.7802
  105OSM   H14T10698   2.680   1.794   9.075 -0.8283 -0.5540 -2.8072
  105OSM   C15S10699   2.468   1.806   9.052  0.0192 -0.1665  0.3838
  105OSM   H15S10700   2.441   1.893   9.116  3.6328  1.2187  0.1533
  105OSM   H15T10701   2.381   1.738   9.055 -0.7626  0.6118 -3.0732
  105OSM   C16S10702   2.480   1.854   8.909  0.7018  0.1351 -0.8818
  105OSM   H16S10703   2.518   1.765   8.853  1.6962  2.4106 -3.9619
  105OSM   H16T10704   2.555   1.935   8.900  0.4160  0.6443  1.1662
  105OSM   C17S10705   2.346   1.900   8.862 -0.6430  0.2791  0.5807
  105OSM   H17S10706   2.295   1.975   8.926 -2.4492  1.3599 -2.0301
  105OSM   H17T10707   2.278   1.813   8.871  0.8408 -1.1042 -1.1817
  105OSM   C18S10708   2.360   1.966   8.723 -0.4924 -0.4182 -0.0325
  105OSM   H18S10709   2.258   1.970   8.680 -0.6663 -3.4233 -0.0660
  105OSM   H18T10710   2.407   1.893   8.653 -0.5285  0.7641 -1.2948
  105OSM   H18U10711   2.419   2.060   8.716 -0.8759 -0.0833  1.1369
  105OSM    C1F10712   2.364   2.179  10.479  0.3034 -0.5771  0.1923
  105OSM     OF10713   2.438   2.268  10.517  0.4818  0.8173 -0.2407
  105OSM    C2F10714   2.215   2.190  10.460  0.4216 -0.1311  0.2165
  105OSM    H2F10715   2.173   2.236  10.552  0.1702  1.6077 -0.7441
  105OSM    H2G10716   2.176   2.086  10.454 -0.8795  0.3584 -0.2268
  105OSM    C3F10717   2.176   2.273  10.342  0.2982 -0.2668 -0.3013
  105OSM    H3F10718   2.256   2.348  10.324 -4.0056  4.3659 -1.1241
  105OSM    H3G10719   2.083   2.331  10.364  0.0416 -0.4208 -0.9928
  105OSM    C4F10720   2.164   2.195  10.210  0.3707  0.1552 -0.2156
  105OSM    H4F10721   2.088   2.116  10.227  0.0767  0.1940 -1.3141
  105OSM    H4G10722   2.251   2.134  10.177 -0.6867 -0.2083 -2.4698
  105OSM    C5F10723   2.137   2.284  10.089 -0.0775 -0.8993  0.4996
  105OSM    H5F10724   2.218   2.360  10.079  0.0526 -1.0767  0.1915
  105OSM    H5G10725   2.044   2.345  10.092  1.4468  1.6412 -1.1639
  105OSM    C6F10726   2.125   2.215   9.953  0.2958 -0.3468 -0.3681
  105OSM    H6F10727   2.039   2.145   9.956 -1.0845  1.3637  2.3032
  105OSM    H6G10728   2.211   2.147   9.933  0.8572  0.1576  0.2861
  105OSM    C7F10729   2.112   2.310   9.827  0.4140  1.0008 -0.7090
  105OSM    H7F10730   2.198   2.380   9.830  0.2336  1.1689  0.6915
  105OSM    H7G10731   2.023   2.375   9.845  0.7597  1.3049 -0.0913
  105OSM    C8F10732   2.109   2.224   9.702 -0.0376 -0.3019  0.3564
  105OSM    H8F10733   2.006   2.183   9.689 -0.1120 -0.6072  1.8696
  105OSM    H8G10734   2.177   2.138   9.716 -0.8952 -0.7371  1.8927
  105OSM    C9F10735   2.148   2.309   9.582 -0.1077 -0.1835 -0.1262
  105OSM    H9F10736   2.072   2.386   9.564 -0.1359 -0.0317  0.6216
  105OSM   C10F10737   2.242   2.292   9.492  0.0036 -0.2033  0.0786
  105OSM   H10F10738   2.248   2.363   9.409 -2.0935  0.0795  0.1518
  105OSM   C11F10739   2.349   2.187   9.487 -0.4360  0.1780 -0.1573
  105OSM   H11F10740   2.316   2.100   9.548 -1.3708  0.6344  0.0005
  105OSM   H11G10741   2.440   2.220   9.541 -0.2224 -0.1839 -0.2970
  105OSM   C12F10742   2.388   2.140   9.343  0.3994 -0.6136 -0.2045
  105OSM   H12F10743   2.298   2.093   9.299 -0.2949 -0.9621  1.5747
  105OSM   H12G10744   2.470   2.065   9.350 -1.8166 -2.8661  2.4261
  105OSM   C13F10745   2.445   2.255   9.256  0.2749  0.7909 -0.1513
  105OSM   H13F10746   2.534   2.301   9.306  0.5493  0.5882 -0.4539
  105OSM   H13G10747   2.374   2.340   9.251  0.1636  0.7135  0.1250
  105OSM   C14F10748   2.465   2.202   9.112  0.0000  0.5661  0.2156
  105OSM   H14F10749   2.373   2.164   9.063  1.0345 -2.5287  0.5726
  105OSM   H14G10750   2.534   2.114   9.114 -0.1376  0.2938 -3.0418
  105OSM   C15F10751   2.536   2.309   9.021 -0.8053 -0.7549 -0.0957
  105OSM   H15F10752   2.623   2.350   9.076 -0.4917  0.0606 -1.1917
  105OSM   H15G10753   2.469   2.396   9.005  0.8028  1.2118  3.2457
  105OSM   C16F10754   2.575   2.242   8.886  0.4883  0.0477 -0.4199
  105OSM   H16F10755   2.480   2.204   8.842  0.1095 -0.3630  0.7451
  105OSM   H16G10756   2.634   2.151   8.911 -0.3932  0.3010  2.7558
  105OSM   C17F10757   2.647   2.327   8.785 -0.2155  0.1746  0.0864
  105OSM   H17F10758   2.645   2.282   8.684  1.0627  0.6411 -0.1623
  105OSM   H17G10759   2.754   2.326   8.816 -0.9052 -0.9114  2.5495
  105OSM   C18F10760   2.589   2.467   8.776  0.8893  0.0839 -0.3070
  105OSM   H18F10761   2.621   2.518   8.683  1.1244 -0.0515 -0.2983
  105OSM   H18G10762   2.604   2.536   8.862 -2.9843  1.9045 -0.9721
  105OSM   H18H10763   2.478   2.458   8.774  0.7516  0.9342  2.0907
  106OSM      N10764   0.888   1.604  10.965 -0.3968 -0.4695 -0.0763
  106OSM    C1510765   0.870   1.689  10.839 -0.0723  0.3536  0.2532
  106OSM   H15A10766   0.951   1.760  10.833  1.8001 -1.7500 -0.2873
  106OSM   H15B10767   0.783   1.752  10.840  0.7635  1.5160  2.5793
  106OSM   H15C10768   0.868   1.620  10.756 -4.1664  0.7731 -0.0662
  106OSM    C1410769   1.037   1.571  10.970 -0.3510 -0.3198  0.0978
  106OSM   H14A10770   1.067   1.518  10.881 -2.1868 -1.6445  0.2354
  106OSM   H14B10771   1.064   1.512  11.057  1.1177  0.5513  0.2496
  106OSM   H14C10772   1.094   1.662  10.983 -1.0334  0.3898 -1.8133
  106OSM    C1310773   0.865   1.699  11.084 -0.5685  0.3917 -0.0918
  106OSM   H13A10774   0.939   1.778  11.088  0.2334 -0.3194 -0.7123
  106OSM   H13B10775   0.878   1.640  11.173  1.7832  0.7447 -0.1685
  106OSM   H13C10776   0.764   1.738  11.083  0.0175  1.9350 -0.8666
  106OSM    C1210777   0.797   1.479  10.955 -0.1514  0.1355 -0.6147
  106OSM   H12A10778   0.693   1.489  10.980 -0.2233 -1.9859  0.0078
  106OSM   H12B10779   0.839   1.409  11.026  2.0345  2.4694  0.4752
  106OSM    C1110780   0.800   1.421  10.816 -0.1411 -0.0835  0.3616
  106OSM   H11A10781   0.769   1.315  10.825  2.3804 -0.7218  2.0469
  106OSM   H11B10782   0.901   1.419  10.770  0.0939  2.6790  0.6481
  106OSM      P10783   0.687   1.452  10.585  0.5795 -0.3447  0.2570
  106OSM    O1310784   0.585   1.345  10.578  0.4262  0.2452  0.1830
  106OSM    O1410785   0.667   1.577  10.508  0.0499 -0.4811 -0.0740
  106OSM    O1110786   0.827   1.394  10.552 -0.1050 -0.0177  0.1157
  106OSM    O1210787   0.696   1.482  10.735  0.2562  0.3633  0.2785
  106OSM    C1S10788   0.864   1.358  10.417 -0.1508 -1.0605 -0.0779
  106OSM    H1S10789   0.778   1.319  10.357 -0.4995 -0.9316  0.3386
  106OSM    H1T10790   0.932   1.270  10.426  2.2723  0.9739  2.5578
  106OSM     NF10791   0.999   1.400  10.220  0.3185 -0.9423  0.1847
  106OSM    HNF10792   1.097   1.384  10.231  0.0585 -1.8418  1.2837
  106OSM    C2S10793   0.936   1.465  10.336 -0.1721  0.0546 -0.0094
  106OSM    H2S10794   0.864   1.546  10.313 -0.4751 -0.1656  0.1469
  106OSM    C3S10795   1.038   1.535  10.428  0.1669 -0.6983 -0.0912
  106OSM    H3S10796   1.121   1.466  10.458 -0.3020 -1.0151  0.4944
  106OSM     O310797   0.995   1.587  10.552  0.6515  0.1110 -0.0104
  106OSM    HO310798   0.912   1.540  10.544  0.6856  0.0422  0.0434
  106OSM    C4S10799   1.103   1.645  10.347 -0.3339  0.1263 -0.7023
  106OSM    H4S10800   1.037   1.708  10.286  0.2154  0.8434 -0.5664
  106OSM    C5S10801   1.236   1.654  10.344  0.1343  0.3224  0.2537
  106OSM    H5S10802   1.296   1.577  10.393  0.5420  0.0123 -0.7374
  106OSM    C6S10803   1.329   1.757  10.272  0.5020  0.6061  0.0755
  106OSM    H6S10804   1.424   1.758  10.329  0.9363 -0.0884 -0.6283
  106OSM    H6T10805   1.278   1.856  10.274 -0.2825  0.2203 -0.4168
  106OSM    C7S10806   1.374   1.730  10.128 -0.3983  0.2889  0.6436
  106OSM    H7S10807   1.416   1.628  10.116  0.6738  0.8021 -0.0284
  106OSM    H7T10808   1.458   1.799  10.106  0.6065 -1.3671 -0.7588
  106OSM    C8S10809   1.264   1.747  10.023  0.1867  0.1979  0.3875
  106OSM    H8S10810   1.244   1.857  10.024  1.0730  0.3807  2.8898
  106OSM    H8T10811   1.168   1.698  10.048 -2.4122  4.5176 -0.4954
  106OSM    C9S10812   1.314   1.715   9.881 -1.1552  0.4444  0.1870
  106OSM    H9S10813   1.424   1.720   9.878 -1.0463 -1.7760 -0.6578
  106OSM    H9T10814   1.261   1.771   9.801  0.7944  0.0051 -1.4403
  106OSM   C10S10815   1.255   1.565   9.846  0.3799  0.2759 -0.0136
  106OSM   H10S10816   1.144   1.563   9.850  0.3056 -2.0977 -2.1053
  106OSM   H10T10817   1.311   1.500   9.917  1.7715  1.9948  0.5083
  106OSM   C11S10818   1.306   1.523   9.707 -0.5292  0.0110 -0.1673
  106OSM   H11S10819   1.301   1.415   9.685  1.1788 -0.2818  0.8467
  106OSM   H11T10820   1.414   1.548   9.705 -0.2245 -1.2626  0.2906
  106OSM   C12S10821   1.246   1.588   9.580  0.5478  0.3826 -0.8568
  106OSM   H12S10822   1.253   1.698   9.590  0.0264  0.4986 -1.7505
  106OSM   H12T10823   1.150   1.534   9.568  0.8749 -0.8546  1.6174
  106OSM   C13S10824   1.348   1.551   9.464 -0.1488 -0.6344 -0.9956
  106OSM   H13S10825   1.340   1.441   9.450  1.5167 -1.1624  1.8817
  106OSM   H13T10826   1.452   1.580   9.490  0.2212 -2.2609 -0.5935
  106OSM   C14S10827   1.292   1.628   9.347  0.1151 -0.0451  0.8253
  106OSM   H14S10828   1.278   1.736   9.371 -0.7461 -0.0969  0.5744
  106OSM   H14T10829   1.196   1.588   9.309 -0.1777  0.5087  0.9742
  106OSM   C15S10830   1.389   1.624   9.228  0.6563 -0.1950  0.2342
  106OSM   H15S10831   1.403   1.519   9.193  0.4217 -0.8695  2.1298
  106OSM   H15T10832   1.488   1.655   9.267  1.3300 -0.6541 -1.0833
  106OSM   C16S10833   1.353   1.718   9.109  0.7704  0.5797 -0.0434
  106OSM   H16S10834   1.290   1.799   9.153  1.4617  1.2233 -0.2286
  106OSM   H16T10835   1.285   1.654   9.049 -0.9560  1.1822  1.2328
  106OSM   C17S10836   1.474   1.775   9.037  0.2945  0.3151 -0.0214
  106OSM   H17S10837   1.542   1.689   9.018  2.0943  1.4709  0.9601
  106OSM   H17T10838   1.536   1.830   9.111 -1.1017  0.4377  1.0714
  106OSM   C18S10839   1.429   1.852   8.909 -0.1937 -0.4337 -0.2782
  106OSM   H18S10840   1.384   1.944   8.952  0.1262  0.0015 -0.8817
  106OSM   H18T10841   1.355   1.788   8.856  0.6894 -1.4260 -0.3152
  106OSM   H18U10842   1.515   1.879   8.845 -1.8391  0.2543 -2.2563
  106OSM    C1F10843   0.927   1.351  10.123  0.4672  0.4647  0.1829
  106OSM     OF10844   0.807   1.384  10.114  0.0938  0.4130  0.0814
  106OSM    C2F10845   0.996   1.255  10.028  0.7108  0.1766 -0.0001
  106OSM    H2F10846   0.983   1.150  10.060 -1.2757 -0.5350 -2.9391
  106OSM    H2G10847   1.106   1.269  10.022  0.3797  1.8901 -3.3402
  106OSM    C3F10848   0.940   1.274   9.879  0.3101 -0.3338  0.6060
  106OSM    H3F10849   0.934   1.381   9.852 -1.9136  0.1373  2.7912
  106OSM    H3G10850   0.839   1.228   9.869 -0.7959  1.8550  1.4494
  106OSM    C4F10851   1.035   1.212   9.779 -0.4599 -0.0778  0.1885
  106OSM    H4F10852   1.031   1.102   9.766  2.8753 -0.0564 -1.6462
  106OSM    H4G10853   1.137   1.247   9.806 -0.6626  1.4624 -0.9204
  106OSM    C5F10854   1.002   1.259   9.639 -0.4602 -0.4469  0.7397
  106OSM    H5F10855   1.008   1.370   9.643 -0.3458 -0.4886  2.3302
  106OSM    H5G10856   0.900   1.226   9.611  0.1157 -1.2936 -0.3708
  106OSM    C6F10857   1.099   1.198   9.533 -0.0765 -0.4779  0.6968
  106OSM    H6F10858   1.114   1.089   9.552 -2.1120 -0.8773  0.1184
  106OSM    H6G10859   1.201   1.241   9.523 -0.5634  1.0544  2.1425
  106OSM    C7F10860   1.023   1.217   9.397  0.0219 -0.5301  0.5638
  106OSM    H7F10861   0.975   1.317   9.392  0.6682 -0.1872  1.1019
  106OSM    H7G10862   0.943   1.141   9.387 -1.7780  1.4931 -1.0083
  106OSM    C8F10863   1.116   1.218   9.271 -0.6876 -0.4103 -0.8257
  106OSM    H8F10864   1.193   1.298   9.278 -0.3982 -0.8568  1.2993
  106OSM    H8G10865   1.037   1.224   9.193 -1.4687 -1.4264 -0.1314
  106OSM    C9F10866   1.177   1.076   9.249 -0.0190  0.5012  0.5294
  106OSM    H9F10867   1.244   1.067   9.336  1.5354  2.4311 -0.4297
  106OSM   C10F10868   1.167   0.999   9.135  0.8360 -0.1940 -0.4848
  106OSM   H10F10869   1.200   0.895   9.148 -2.2460 -1.0207  1.3643
  106OSM   C11F10870   1.099   1.036   9.002 -0.2736  0.4337  0.1147
  106OSM   H11F10871   1.175   1.091   8.943  1.7734 -1.8149  0.5650
  106OSM   H11G10872   1.005   1.094   9.018 -1.8849 -2.5983  2.1261
  106OSM   C12F10873   1.070   0.916   8.915  0.4615  0.6192  0.1887
  106OSM   H12F10874   1.015   0.834   8.965  0.3809 -0.0697 -1.0250
  106OSM   H12G10875   1.160   0.867   8.871  0.3782 -0.9635  1.7442
  106OSM   C13F10876   0.990   0.974   8.785 -0.2818  0.8904 -0.9886
  106OSM   H13F10877   1.066   1.040   8.737  2.5017 -1.8686 -0.5081
  106OSM   H13G10878   0.906   1.041   8.811 -0.8607 -0.5833  1.0599
  106OSM   C14F10879   0.955   0.862   8.681 -0.3313 -0.3644 -0.2960
  106OSM   H14F10880   0.880   0.800   8.735 -0.1345 -0.6000 -0.2969
  106OSM   H14G10881   1.043   0.799   8.658 -0.3819 -0.2548 -0.7821
  106OSM   C15F10882   0.912   0.929   8.549 -0.4417 -0.5213  0.5718
  106OSM   H15F10883   1.000   0.985   8.510 -0.6076 -0.4167  0.3499
  106OSM   H15G10884   0.832   1.002   8.572  0.4616  0.4544  0.6507
  106OSM   C16F10885   0.855   0.829   8.446 -0.5107  0.0508  0.1761
  106OSM   H16F10886   0.772   0.762   8.477  2.2953 -3.0102  1.3811
  106OSM   H16G10887   0.937   0.763   8.412 -0.1249  0.5268  0.1766
  106OSM   C17F10888   0.786   0.891   8.320 -0.3771  0.0660  0.4366
  106OSM   H17F10889   0.705   0.961   8.349  0.2466  0.5326  1.0605
  106OSM   H17G10890   0.735   0.808   8.266 -1.4238 -0.7683  2.6693
  106OSM   C18F10891   0.883   0.967   8.233  0.0226  0.6838 -0.6862
  106OSM   H18F10892   0.957   0.891   8.199 -0.7105  0.1269 -1.0550
  106OSM   H18G10893   0.946   1.044   8.282 -0.7377 -0.1529  1.6793
  106OSM   H18H10894   0.840   1.014   8.142  4.7230  2.6009 -2.0497
  107OSM      N10895   3.503   6.102  11.142 -0.8150 -0.4267  0.2013
  107OSM    C1510896   3.405   6.121  11.255 -1.1114  0.1899 -0.0137
  107OSM   H15A10897   3.447   6.115  11.354 -1.1938  1.9370  0.1475
  107OSM   H15B10898   3.333   6.041  11.255 -1.4330  0.4721  1.4818
  107OSM   H15C10899   3.368   6.222  11.246 -0.1785  0.7992  2.5369
  107OSM    C1410900   3.575   6.235  11.117  0.2164  0.0664  0.9091
  107OSM   H14A10901   3.659   6.228  11.049  0.2781  3.3694  0.5695
  107OSM   H14B10902   3.626   6.270  11.205 -1.2837  0.6169  1.5756
  107OSM   H14C10903   3.505   6.307  11.078 -0.4687 -0.6691  0.7590
  107OSM    C1310904   3.611   6.012  11.183  0.8660  0.6160  0.1028
  107OSM   H13A10905   3.694   5.999  11.116  0.2797  0.3266 -0.5841
  107OSM   H13B10906   3.569   5.913  11.197  1.3163  0.5347  0.8818
  107OSM   H13C10907   3.659   6.050  11.272 -0.0608  1.0176  0.4442
  107OSM    C1210908   3.442   6.054  11.016  0.5168  0.5283 -0.2789
  107OSM   H12A10909   3.521   6.035  10.945 -0.5088  1.0469 -1.5934
  107OSM   H12B10910   3.389   6.140  10.978 -0.6404  0.3064  0.7915
  107OSM    C1110911   3.358   5.925  11.012 -1.0010 -0.1125  0.9660
  107OSM   H11A10912   3.285   5.920  10.928 -2.3655  0.4617  2.0864
  107OSM   H11B10913   3.300   5.935  11.106  1.4353  0.9731  2.3957
  107OSM      P10914   3.513   5.758  10.902  0.0727 -0.2184  0.2385
  107OSM    O1310915   3.650   5.710  10.920  0.0607 -0.3930  0.8529
  107OSM    O1410916   3.418   5.675  10.829  0.3541  0.2102 -0.2501
  107OSM    O1110917   3.527   5.897  10.823 -0.1479  0.2524  0.4422
  107OSM    O1210918   3.449   5.821  11.032 -0.3344  0.1238  0.9164
  107OSM    C1S10919   3.623   5.914  10.714  0.3241 -0.1393  0.2107
  107OSM    H1S10920   3.716   5.859  10.739  0.0986 -1.8194 -2.4157
  107OSM    H1T10921   3.661   6.018  10.703 -0.7470  0.1183 -1.1651
  107OSM     NF10922   3.667   5.868  10.467  0.0051 -0.2978  0.3713
  107OSM    HNF10923   3.666   5.945  10.403 -3.1391  0.2793  1.0002
  107OSM    C2S10924   3.567   5.877  10.573  0.8669  0.4356  0.0425
  107OSM    H2S10925   3.517   5.778  10.581  0.4799  0.4245 -2.2385
  107OSM    C3S10926   3.439   5.974  10.539 -1.0909 -0.2711 -0.1318
  107OSM    H3S10927   3.482   6.076  10.527 -1.0842 -0.2674 -0.0743
  107OSM     O310928   3.342   5.981  10.641 -0.0226 -0.0427  0.9234
  107OSM    HO310929   3.379   5.933  10.716 -2.5325  0.1283  2.3357
  107OSM    C4S10930   3.383   5.930  10.409  0.7800 -0.3016 -0.2723
  107OSM    H4S10931   3.421   5.997  10.330 -0.8749  1.3728  0.3251
  107OSM    C5S10932   3.293   5.836  10.385 -0.0533  0.1530 -0.0994
  107OSM    H5S10933   3.246   5.769  10.459 -1.8413  0.4261 -0.9493
  107OSM    C6S10934   3.245   5.805  10.246  0.5116  0.1957  0.1744
  107OSM    H6S10935   3.144   5.849  10.231  0.1216 -0.7924 -0.1248
  107OSM    H6T10936   3.240   5.694  10.241  2.1619  0.0059  1.8408
  107OSM    C7S10937   3.307   5.856  10.117  0.1203  0.2141 -0.6916
  107OSM    H7S10938   3.412   5.820  10.126 -0.2474 -0.3949  1.6475
  107OSM    H7T10939   3.303   5.967  10.112  1.2568  0.1969 -2.0844
  107OSM    C8S10940   3.253   5.780   9.998 -0.0214 -0.7506 -0.0589
  107OSM    H8S10941   3.143   5.775   9.987 -0.2536  3.6304 -0.6592
  107OSM    H8T10942   3.296   5.678   9.986  3.0279  0.3864  0.7090
  107OSM    C9S10943   3.287   5.855   9.865 -0.3133 -0.1715  0.1813
  107OSM    H9S10944   3.395   5.878   9.875 -0.4330 -0.2336  1.6581
  107OSM    H9T10945   3.236   5.954   9.859  1.8738  1.1298  2.2258
  107OSM   C10S10946   3.257   5.772   9.736 -0.2860 -0.1778 -0.7319
  107OSM   H10S10947   3.149   5.771   9.709 -0.4535 -1.3004 -0.0673
  107OSM   H10T10948   3.295   5.670   9.756 -0.0845 -0.1578 -1.0183
  107OSM   C11S10949   3.326   5.817   9.611 -0.3305 -0.7539 -0.0504
  107OSM   H11S10950   3.435   5.809   9.628  0.0611  0.5355 -1.8063
  107OSM   H11T10951   3.305   5.926   9.609  1.5082 -0.3993 -0.2587
  107OSM   C12S10952   3.293   5.742   9.481  0.2459  0.1081  0.3294
  107OSM   H12S10953   3.189   5.763   9.446  0.5435  1.8118  0.3908
  107OSM   H12T10954   3.300   5.635   9.510 -1.3110  0.2570  1.3326
  107OSM   C13S10955   3.386   5.768   9.365  0.4003  0.7330  0.1476
  107OSM   H13S10956   3.480   5.719   9.399  0.2986 -0.2514 -0.9385
  107OSM   H13T10957   3.409   5.876   9.354 -3.0301  1.4310 -0.7131
  107OSM   C14S10958   3.332   5.685   9.235 -0.3887 -0.0753  0.4006
  107OSM   H14S10959   3.229   5.726   9.224 -0.4582  0.2042  1.9928
  107OSM   H14T10960   3.322   5.579   9.267 -0.4554 -0.2657 -0.2349
  107OSM   C15S10961   3.419   5.698   9.110  0.1958 -0.0170 -0.4718
  107OSM   H15S10962   3.510   5.634   9.113 -1.0585 -1.8129  0.4338
  107OSM   H15T10963   3.440   5.803   9.079  1.0232  0.8230  2.7112
  107OSM   C16S10964   3.340   5.648   8.986 -0.3150 -0.3682 -0.3964
  107OSM   H16S10965   3.251   5.713   8.973  0.8608  1.1383 -1.1372
  107OSM   H16T10966   3.317   5.543   9.010 -0.1706 -0.0774  1.0771
  107OSM   C17S10967   3.412   5.654   8.858  0.0549  0.2703  0.1594
  107OSM   H17S10968   3.421   5.765   8.847  2.0065  0.1783  0.6328
  107OSM   H17T10969   3.351   5.614   8.774  0.7471 -0.1087 -0.1710
  107OSM   C18S10970   3.551   5.591   8.864  0.9741  0.2881 -0.0504
  107OSM   H18S10971   3.619   5.631   8.943  1.7841 -3.0930  1.0801
  107OSM   H18T10972   3.597   5.587   8.764  0.6170  1.4240 -0.2622
  107OSM   H18U10973   3.530   5.484   8.886 -1.5087  0.8453  0.4749
  107OSM    C1F10974   3.773   5.780  10.477  0.3818 -0.6878 -0.0616
  107OSM     OF10975   3.765   5.673  10.539 -0.0543 -0.1892  0.8152
  107OSM    C2F10976   3.905   5.819  10.425  0.4925  0.5116  0.4132
  107OSM    H2F10977   3.971   5.856  10.507  0.1153  0.6218  0.6713
  107OSM    H2G10978   3.885   5.913  10.368 -1.2586 -0.8171 -1.2383
  107OSM    C3F10979   3.972   5.716  10.328 -0.0925  1.1801  0.5516
  107OSM    H3F10980   3.891   5.684  10.260 -1.8641 -1.0220  3.5665
  107OSM    H3G10981   4.004   5.627  10.387 -1.9714 -0.3608 -0.7054
  107OSM    C4F10982   4.092   5.768  10.250 -0.1859 -0.3143 -0.1077
  107OSM    H4F10983   4.145   5.828  10.327  0.6105 -0.6207 -0.4152
  107OSM    H4G10984   4.058   5.838  10.171  1.8317  1.5559  0.6245
  107OSM    C5F10985   4.178   5.663  10.181  0.5743 -0.4212 -0.3681
  107OSM    H5F10986   4.236   5.616  10.263  0.6510  0.1078 -0.1170
  107OSM    H5G10987   4.244   5.714  10.109  1.5972  0.4341  1.1527
  107OSM    C6F10988   4.089   5.564  10.102 -0.5478 -0.3163  0.4394
  107OSM    H6F10989   4.015   5.622  10.042  0.4512  0.5284  0.0061
  107OSM    H6G10990   4.024   5.511  10.176  0.3349  1.9408  2.9186
  107OSM    C7F10991   4.170   5.471  10.014 -0.0354 -0.3444 -0.8390
  107OSM    H7F10992   4.119   5.376   9.984 -0.8871 -0.8494  1.9984
  107OSM    H7G10993   4.246   5.438  10.088 -0.5100 -0.9830 -0.6317
  107OSM    C8F10994   4.212   5.542   9.893 -0.3347 -0.0431  0.0812
  107OSM    H8F10995   4.263   5.634   9.927 -0.3132  0.6695 -1.8013
  107OSM    H8G10996   4.115   5.562   9.841  0.5262  1.6066 -0.9103
  107OSM    C9F10997   4.310   5.462   9.808 -0.7522 -0.0552 -0.1616
  107OSM    H9F10998   4.396   5.430   9.870 -1.2794 -0.8009  0.1977
  107OSM   C10F10999   4.298   5.429   9.674  0.2379  0.7063  0.0462
  107OSM   H10F11000   4.382   5.374   9.628 -1.0786 -0.5056 -0.9289
  107OSM   C11F11001   4.187   5.446   9.573 -0.1819  0.8007 -1.0680
  107OSM   H11F11002   4.090   5.486   9.612  0.8579  0.1007  2.4527
  107OSM   H11G11003   4.164   5.344   9.536 -0.6054  0.5695 -0.1973
  107OSM   C12F11004   4.221   5.531   9.451 -0.2433  0.0410 -0.3054
  107OSM   H12F11005   4.315   5.491   9.407 -1.0673 -1.1650 -1.0199
  107OSM   H12G11006   4.243   5.636   9.479  0.7902  0.0461 -1.1238
  107OSM   C13F11007   4.111   5.535   9.346 -0.3722  1.3404 -0.5483
  107OSM   H13F11008   4.101   5.640   9.311 -0.5964  1.7635  0.7594
  107OSM   H13G11009   4.012   5.515   9.393  0.8187  1.1675  1.9777
  107OSM   C14F11010   4.132   5.447   9.218  0.3355 -0.5600  0.5440
  107OSM   H14F11011   4.232   5.470   9.177  1.0845  0.2754  2.7666
  107OSM   H14G11012   4.042   5.468   9.157 -0.9730 -3.2394  1.4743
  107OSM   C15F11013   4.109   5.298   9.246  0.5458  0.3663 -0.0486
  107OSM   H15F11014   4.009   5.273   9.287 -0.4582  0.5443 -2.2685
  107OSM   H15G11015   4.183   5.255   9.318 -1.8627 -1.5548  1.3637
  107OSM   C16F11016   4.121   5.218   9.110 -0.5169  0.1245 -0.5887
  107OSM   H16F11017   4.224   5.223   9.069  0.0866  0.9588  0.9952
  107OSM   H16G11018   4.053   5.266   9.036 -0.5797  1.1865  0.1357
  107OSM   C17F11019   4.072   5.073   9.134  0.0092  0.0608  0.5322
  107OSM   H17F11020   3.974   5.088   9.184  0.5695  2.9583  0.8403
  107OSM   H17G11021   4.142   5.034   9.210 -2.2111 -0.2828  2.4258
  107OSM   C18F11022   4.080   4.990   9.005  0.7912  0.4098 -0.8804
  107OSM   H18F11023   3.989   4.999   8.942 -0.8782  1.2640  1.5750
  107OSM   H18G11024   4.106   4.885   9.034 -0.6890  0.5732  1.1668
  107OSM   H18H11025   4.163   5.031   8.944  0.2970  2.2084 -0.3741
  108OSM      N11026   1.518   0.673  10.623  0.6740 -0.1732 -0.4613
  108OSM    C1511027   1.545   0.597  10.746  0.1218 -0.3055 -0.0685
  108OSM   H15A11028   1.557   0.491  10.729 -1.1480 -0.8054  2.0119
  108OSM   H15B11029   1.466   0.612  10.817 -2.0867 -0.3107 -2.4537
  108OSM   H15C11030   1.636   0.640  10.786  1.8339  0.4672 -4.4121
  108OSM    C1411031   1.483   0.817  10.648  0.5106  0.1347 -0.0230
  108OSM   H14A11032   1.381   0.825  10.682 -0.2616 -1.2006 -1.9586
  108OSM   H14B11033   1.503   0.876  10.561  3.0913 -1.5273 -0.5972
  108OSM   H14C11034   1.543   0.862  10.726 -2.0061 -0.7159  2.5318
  108OSM    C1311035   1.643   0.677  10.539  0.5217  0.5964  0.5014
  108OSM   H13A11036   1.737   0.698  10.589 -0.4319  0.1054  2.5315
  108OSM   H13B11037   1.639   0.745  10.455  0.5135 -0.5203 -0.4170
  108OSM   H13C11038   1.663   0.587  10.482 -0.2285  1.7964 -1.7394
  108OSM    C1211039   1.404   0.614  10.553 -0.0912 -0.0505 -0.8335
  108OSM   H12A11040   1.385   0.666  10.460 -1.6797 -0.4376 -0.7356
  108OSM   H12B11041   1.315   0.652  10.601  2.5374  1.8261  2.7741
  108OSM    C1111042   1.401   0.462  10.543 -0.0791 -0.0159  0.2740
  108OSM   H11A11043   1.507   0.430  10.531  0.1755  0.4514  1.2108
  108OSM   H11B11044   1.341   0.427  10.456  1.7100  0.4191 -1.1708
  108OSM      P11045   1.200   0.433  10.704  0.1112 -0.0120 -0.1159
  108OSM    O1311046   1.145   0.310  10.775  0.6272  0.0006 -0.4460
  108OSM    O1411047   1.180   0.564  10.762 -0.1979 -0.1751 -0.9345
  108OSM    O1111048   1.125   0.437  10.562  0.2299  0.1378 -0.6308
  108OSM    O1211049   1.346   0.399  10.661 -0.7440  0.2578 -0.0673
  108OSM    C1S11050   0.990   0.496  10.572 -0.4015  0.3533 -0.1628
  108OSM    H1S11051   0.994   0.602  10.604  0.2599  0.4993 -0.7197
  108OSM    H1T11052   0.929   0.435  10.642 -0.9993  0.8765 -0.2219
  108OSM     NF11053   0.826   0.583  10.428 -0.8826 -0.1253  0.9412
  108OSM    HNF11054   0.738   0.542  10.451 -0.9027  0.5071  2.0316
  108OSM    C2S11055   0.933   0.493  10.439 -0.7066 -1.2005 -0.3032
  108OSM    H2S11056   1.015   0.532  10.374 -0.2267  0.4502  1.2401
  108OSM    C3S11057   0.887   0.346  10.412  0.6960 -0.2778  0.1552
  108OSM    H3S11058   0.808   0.309  10.480 -2.4759  1.1982 -2.5598
  108OSM     O311059   0.994   0.256  10.424  0.1934 -0.3444 -0.5429
  108OSM    HO311060   1.059   0.307  10.474 -1.2523  1.0086  0.0036
  108OSM    C4S11061   0.837   0.331  10.267 -0.6393  0.6632  0.0891
  108OSM    H4S11062   0.908   0.300  10.189 -0.3319  0.0183  0.6234
  108OSM    C5S11063   0.713   0.343  10.226  0.4687  0.5303  0.3606
  108OSM    H5S11064   0.634   0.345  10.303  1.1947  1.5515  1.0816
  108OSM    C6S11065   0.674   0.324  10.084  0.4362  0.0663 -0.1192
  108OSM    H6S11066   0.762   0.323  10.016  0.9571  0.9865  0.5378
  108OSM    H6T11067   0.617   0.415  10.055 -0.8493  0.0924  2.4151
  108OSM    C7S11068   0.594   0.196  10.068 -0.1932  0.5256 -0.5510
  108OSM    H7S11069   0.523   0.179  10.151  0.7650 -1.4993 -0.1101
  108OSM    H7T11070   0.660   0.107  10.068 -0.4741  0.3050 -1.7306
  108OSM    C8S11071   0.507   0.188   9.943 -0.2954  0.0142 -0.6406
  108OSM    H8S11072   0.431   0.267   9.960  0.9444  1.0061  0.4076
  108OSM    H8T11073   0.463   0.087   9.927  0.3697 -0.5179  0.7813
  108OSM    C9S11074   0.584   0.205   9.810 -0.1413  0.3270  0.1949
  108OSM    H9S11075   0.679   0.150   9.821 -1.0129 -1.4941 -1.1784
  108OSM    H9T11076   0.616   0.310   9.792  0.7154  0.3191  1.6290
  108OSM   C10S11077   0.501   0.156   9.689 -0.1601 -0.0564 -0.1829
  108OSM   H10S11078   0.402   0.206   9.693 -1.3154 -2.2266 -1.1575
  108OSM   H10T11079   0.485   0.046   9.696  1.7134 -0.3161  0.3376
  108OSM   C11S11080   0.543   0.197   9.551 -1.5911 -0.1159 -0.5172
  108OSM   H11S11081   0.642   0.150   9.533 -1.3989 -0.1871  0.6533
  108OSM   H11T11082   0.568   0.304   9.532  1.3465 -1.0981 -2.5601
  108OSM   C12S11083   0.437   0.151   9.444 -1.0684 -0.3836 -0.4529
  108OSM   H12S11084   0.345   0.141   9.505 -0.7158  0.9012  0.2996
  108OSM   H12T11085   0.459   0.053   9.395  1.5585 -0.0591 -0.0073
  108OSM   C13S11086   0.418   0.254   9.329 -0.2583 -0.5464  0.5040
  108OSM   H13S11087   0.510   0.249   9.266 -0.5331 -1.4665  0.1632
  108OSM   H13T11088   0.400   0.361   9.353  0.2032 -0.2661 -0.3566
  108OSM   C14S11089   0.306   0.210   9.235  0.3678 -0.1582  0.3469
  108OSM   H14S11090   0.205   0.223   9.280 -0.2323  3.3472 -1.8606
  108OSM   H14T11091   0.328   0.107   9.199 -0.7822 -0.5200  0.6434
  108OSM   C15S11092   0.321   0.295   9.105 -0.3895 -0.5927 -0.4400
  108OSM   H15S11093   0.416   0.263   9.057  0.1071  2.0829 -1.3218
  108OSM   H15T11094   0.332   0.403   9.129  0.5514 -0.4604 -1.4208
  108OSM   C16S11095   0.209   0.274   9.010 -0.0288  0.3277  0.7144
  108OSM   H16S11096   0.109   0.266   9.057  0.5546 -1.0509  1.7623
  108OSM   H16T11097   0.225   0.173   8.964  0.5081  1.0051 -0.6198
  108OSM   C17S11098   0.210   0.382   8.894 -0.1458 -0.2060 -0.0517
  108OSM   H17S11099   0.311   0.370   8.850  0.1851  0.3147  0.5476
  108OSM   H17T11100   0.213   0.476   8.953 -2.4601 -1.5389  2.3199
  108OSM   C18S11101   0.100   0.385   8.795 -0.2279 -0.2727  0.4179
  108OSM   H18S11102   0.122   0.305   8.720  0.0149 -0.6582  0.8983
  108OSM   H18T11103   0.104   0.484   8.744 -0.5015 -1.1144 -1.2991
  108OSM   H18U11104  -0.004   0.376   8.834 -0.9692 -1.6559 -1.7064
  108OSM    C1F11105   0.838   0.716  10.412 -0.6460  0.3046  0.4379
  108OSM     OF11106   0.946   0.767  10.378  0.4656  0.0885  0.0901
  108OSM    C2F11107   0.718   0.802  10.440  0.2983 -0.3692  0.0399
  108OSM    H2F11108   0.715   0.819  10.549 -2.6789  4.9338 -0.6787
  108OSM    H2G11109   0.622   0.750  10.417  0.1511  0.3327 -0.9955
  108OSM    C3F11110   0.732   0.940  10.371 -0.3121 -0.0490 -0.4295
  108OSM    H3F11111   0.822   0.993  10.408 -0.5347 -0.2970  0.4873
  108OSM    H3G11112   0.653   1.005  10.415 -0.4723  0.5679 -1.6066
  108OSM    C4F11113   0.731   0.945  10.219  0.1245  0.0411 -0.4103
  108OSM    H4F11114   0.813   0.883  10.177  0.2094  0.2578 -0.5681
  108OSM    H4G11115   0.731   1.052  10.189  0.6516 -0.0161 -0.6212
  108OSM    C5F11116   0.611   0.888  10.143  0.1541  0.3063  0.0040
  108OSM    H5F11117   0.513   0.926  10.180 -0.3449 -1.0465  0.0839
  108OSM    H5G11118   0.607   0.778  10.149 -1.3968  0.4817  3.9246
  108OSM    C6F11119   0.629   0.914   9.988  0.3596  0.0909  0.0376
  108OSM    H6F11120   0.733   0.885   9.962 -0.0423 -0.7023 -0.7213
  108OSM    H6G11121   0.612   1.022   9.972  1.7196  0.5402  1.5058
  108OSM    C7F11122   0.534   0.826   9.896  0.2205 -0.3625 -0.4435
  108OSM    H7F11123   0.434   0.873   9.886 -0.0412 -0.8285 -0.0121
  108OSM    H7G11124   0.520   0.727   9.945 -2.3688 -0.1617 -0.7490
  108OSM    C8F11125   0.597   0.792   9.757  0.2266  0.3568  0.4672
  108OSM    H8F11126   0.708   0.796   9.759  0.4302 -2.0237 -2.2090
  108OSM    H8G11127   0.575   0.881   9.694 -0.7793  0.7328  1.3362
  108OSM    C9F11128   0.557   0.657   9.700  0.0807  0.1575  0.0388
  108OSM    H9F11129   0.582   0.562   9.750 -0.7477  0.7060  1.5285
  108OSM   C10F11130   0.483   0.634   9.592  0.0629  0.3127  0.5386
  108OSM   H10F11131   0.463   0.531   9.559 -2.1070  0.8002  0.2254
  108OSM   C11F11132   0.418   0.740   9.505  0.4520 -0.1159  0.1752
  108OSM   H11F11133   0.465   0.840   9.505 -2.1152  1.1482 -1.6890
  108OSM   H11G11134   0.318   0.764   9.547  0.4835 -0.2297  0.3188
  108OSM   C12F11135   0.405   0.689   9.365  0.5470 -0.5822 -0.6165
  108OSM   H12F11136   0.371   0.770   9.298  2.3125  0.5832 -0.1541
  108OSM   H12G11137   0.329   0.608   9.363 -1.0662  0.8877  0.4614
  108OSM   C13F11138   0.532   0.639   9.292 -0.0653  0.8517  0.5368
  108OSM   H13F11139   0.549   0.530   9.304  0.3364  0.8057 -0.4178
  108OSM   H13G11140   0.623   0.682   9.340 -0.6471 -0.4682  2.8962
  108OSM   C14F11141   0.517   0.672   9.143  0.0535  0.4612 -0.2809
  108OSM   H14F11142   0.511   0.780   9.119  0.0242  0.2256 -1.3512
  108OSM   H14G11143   0.420   0.628   9.114 -0.9396  2.4374 -0.0512
  108OSM   C15F11144   0.630   0.605   9.070 -0.1186  0.6746 -0.0246
  108OSM   H15F11145   0.624   0.498   9.096 -2.0885  1.1664  1.7216
  108OSM   H15G11146   0.722   0.655   9.107 -1.6814  1.9887  2.2681
  108OSM   C16F11147   0.606   0.616   8.915  0.3579  0.5577  0.3193
  108OSM   H16F11148   0.604   0.722   8.880  0.6324  0.3948 -0.2040
  108OSM   H16G11149   0.509   0.569   8.890  0.5098  0.1705  0.4552
  108OSM   C17F11150   0.725   0.535   8.846  0.0060 -0.0408 -0.3053
  108OSM   H17F11151   0.750   0.434   8.886  2.6780  0.7738  0.2325
  108OSM   H17G11152   0.822   0.587   8.862  0.1217 -0.3710  0.0771
  108OSM   C18F11153   0.707   0.538   8.692 -0.3045 -0.1081  0.5118
  108OSM   H18F11154   0.710   0.642   8.652  2.8030  0.3533  1.7673
  108OSM   H18G11155   0.617   0.484   8.657 -1.1385  1.1951  0.5861
  108OSM   H18H11156   0.793   0.486   8.646 -1.1532 -0.6426 -0.4814
  109OSM      N11157   6.431   4.975  11.125  0.0930 -0.3296  0.6404
  109OSM    C1511158   6.533   4.877  11.183 -0.6046  0.0116  0.6389
  109OSM   H15A11159   6.582   4.819  11.106 -1.3803 -0.1868  0.2893
  109OSM   H15B11160   6.485   4.808  11.250 -0.0144 -0.3006  0.7384
  109OSM   H15C11161   6.606   4.932  11.241  0.4995 -0.2205 -0.5146
  109OSM    C1411162   6.354   5.034  11.244 -0.4203 -0.4977 -0.3659
  109OSM   H14A11163   6.423   5.034  11.327  0.6150  0.7285 -1.2088
  109OSM   H14B11164   6.260   4.985  11.268  0.9612 -1.6209  2.9719
  109OSM   H14C11165   6.326   5.132  11.206  1.1338 -0.4614 -1.4440
  109OSM    C1311166   6.506   5.088  11.068 -0.1890  0.3769 -0.4146
  109OSM   H13A11167   6.574   5.128  11.143  0.1155 -2.2471  0.7554
  109OSM   H13B11168   6.439   5.164  11.030 -0.2666  1.0162  0.9494
  109OSM   H13C11169   6.567   5.063  10.983 -0.3615  1.0658 -0.7453
  109OSM    C1211170   6.342   4.909  11.023  0.1317  0.0924 -0.2234
  109OSM   H12A11171   6.274   4.839  11.068 -0.5646  0.6866 -0.3432
  109OSM   H12B11172   6.396   4.852  10.949  1.4262 -0.6352  1.2519
  109OSM    C1111173   6.244   5.000  10.940  0.0194  0.5632 -0.6078
  109OSM   H11A11174   6.187   4.923  10.883  0.9645 -0.8006  0.2584
  109OSM   H11B11175   6.311   5.071  10.887  0.2157  0.7643 -0.0877
  109OSM      P11176   6.142   5.221  11.016 -0.1727  0.0753 -0.2821
  109OSM    O1311177   6.010   5.273  11.053 -0.5484  0.3432 -0.4595
  109OSM    O1411178   6.257   5.280  11.091 -0.1768  0.3365  0.1513
  109OSM    O1111179   6.163   5.245  10.859  0.1919 -0.4922 -0.8174
  109OSM    O1211180   6.154   5.069  11.027 -0.2052 -0.1535 -0.4730
  109OSM    C1S11181   6.262   5.345  10.819  0.0150  0.1587  0.3362
  109OSM    H1S11182   6.358   5.291  10.832 -0.7908 -1.0364  1.4108
  109OSM    H1T11183   6.263   5.438  10.880 -1.8851 -0.2760  1.0631
  109OSM     NF11184   6.360   5.464  10.609 -0.0588  0.6087  0.1998
  109OSM    HNF11185   6.341   5.561  10.608 -1.2508  0.3771 -0.5203
  109OSM    C2S11186   6.247   5.385  10.666  0.1033  0.1387 -0.0015
  109OSM    H2S11187   6.240   5.285  10.616  0.9813  0.8809 -1.6401
  109OSM    C3S11188   6.109   5.446  10.633  0.6380 -0.3267  0.4000
  109OSM    H3S11189   6.097   5.541  10.689  0.1164 -0.2798  0.2098
  109OSM     O311190   6.003   5.369  10.681  0.2201  0.2131 -0.6627
  109OSM    HO311191   6.045   5.296  10.727  0.3270  0.9786  0.4643
  109OSM    C4S11192   6.109   5.481  10.485 -0.6029  0.2061  0.3497
  109OSM    H4S11193   6.174   5.568  10.466  0.0353 -0.0782  1.2063
  109OSM    C5S11194   6.057   5.403  10.385 -0.0694 -0.6331 -0.4488
  109OSM    H5S11195   6.020   5.301  10.404  1.8059 -1.4422 -0.9814
  109OSM    C6S11196   6.053   5.429  10.241  0.1600  0.0967  0.4278
  109OSM    H6S11197   6.077   5.536  10.221 -0.8080  0.4044  0.9299
  109OSM    H6T11198   5.948   5.420  10.206 -0.1629 -0.7854  1.5988
  109OSM    C7S11199   6.140   5.345  10.143 -0.1220 -0.0232  0.3095
  109OSM    H7S11200   6.084   5.249  10.138 -1.3662  0.6758  0.5495
  109OSM    H7T11201   6.231   5.302  10.189  0.0437 -0.6714 -0.6310
  109OSM    C8S11202   6.167   5.417  10.012 -0.1990  0.0512  0.5640
  109OSM    H8S11203   6.233   5.505  10.025 -0.8427  0.4352  1.2640
  109OSM    H8T11204   6.072   5.449   9.965  0.9969  3.3719  0.2960
  109OSM    C9S11205   6.255   5.320   9.930  0.2771 -0.5895 -0.0468
  109OSM    H9S11206   6.197   5.233   9.896  0.6824 -0.9874  0.2718
  109OSM    H9T11207   6.342   5.280   9.987 -0.6128  0.1102  1.8666
  109OSM   C10S11208   6.305   5.397   9.804  0.1765 -0.2968  0.3090
  109OSM   H10S11209   6.375   5.477   9.838  0.2789 -0.4378  0.4278
  109OSM   H10T11210   6.219   5.443   9.749  2.3089 -0.2122 -3.0774
  109OSM   C11S11211   6.395   5.317   9.711 -0.5888 -0.3376 -0.0592
  109OSM   H11S11212   6.363   5.214   9.684 -2.0114  0.7205 -2.5327
  109OSM   H11T11213   6.492   5.327   9.764  0.8521 -0.2118 -2.6648
  109OSM   C12S11214   6.417   5.392   9.582 -0.4983 -0.2716  0.8990
  109OSM   H12S11215   6.462   5.491   9.607 -1.1791  0.5613 -1.0766
  109OSM   H12T11216   6.319   5.397   9.531 -0.2766 -1.5952  0.3298
  109OSM   C13S11217   6.529   5.319   9.490 -0.0778  0.2872 -0.2579
  109OSM   H13S11218   6.489   5.216   9.484 -1.7835  0.7249  2.6120
  109OSM   H13T11219   6.624   5.322   9.548 -0.9964  0.9053  1.2660
  109OSM   C14S11220   6.535   5.371   9.346 -0.3251  0.3204 -0.2947
  109OSM   H14S11221   6.542   5.482   9.337  1.4735  0.1924 -0.7572
  109OSM   H14T11222   6.444   5.327   9.299  0.9768 -1.3877 -1.2811
  109OSM   C15S11223   6.649   5.310   9.261 -0.2441  0.1682 -0.3132
  109OSM   H15S11224   6.640   5.199   9.257  2.5819 -0.1071  0.4637
  109OSM   H15T11225   6.744   5.347   9.304 -0.5500 -1.6730  2.0575
  109OSM   C16S11226   6.637   5.358   9.110  0.0937  0.5099 -0.3589
  109OSM   H16S11227   6.663   5.466   9.105 -0.3251  0.6949  1.2307
  109OSM   H16T11228   6.534   5.346   9.071  0.3516  1.5100 -1.3444
  109OSM   C17S11229   6.746   5.288   9.031 -0.4895 -0.2307  0.0693
  109OSM   H17S11230   6.716   5.322   8.929  1.8816  0.9363 -0.2682
  109OSM   H17T11231   6.729   5.179   9.023  0.8826 -0.5240  1.0094
  109OSM   C18S11232   6.888   5.322   9.070 -0.3194  0.1874 -0.0631
  109OSM   H18S11233   6.909   5.430   9.053 -0.3981  0.4958  1.6720
  109OSM   H18T11234   6.967   5.260   9.025 -0.9386 -0.1887 -0.6328
  109OSM   H18U11235   6.906   5.312   9.179 -1.0535  2.2501  0.2847
  109OSM    C1F11236   6.484   5.414  10.586  0.8274  0.1514  0.6067
  109OSM     OF11237   6.514   5.294  10.592 -1.0167 -0.1092 -0.2026
  109OSM    C2F11238   6.586   5.513  10.558  0.1674  0.1393 -0.1233
  109OSM    H2F11239   6.679   5.456  10.539 -1.0236 -1.4426 -1.3723
  109OSM    H2G11240   6.594   5.583  10.644  2.7640  0.2391 -0.3987
  109OSM    C3F11241   6.554   5.588  10.430 -0.2040  0.8468  0.3366
  109OSM    H3F11242   6.641   5.656  10.415  0.2292 -0.4909 -4.1756
  109OSM    H3G11243   6.457   5.641  10.433 -1.3490 -1.2765  1.1652
  109OSM    C4F11244   6.565   5.485  10.311  0.5664 -1.0942  0.5266
  109OSM    H4F11245   6.513   5.392  10.342 -1.0762 -0.1156  0.7741
  109OSM    H4G11246   6.672   5.457  10.297  0.7255 -0.0751 -0.3437
  109OSM    C5F11247   6.504   5.541  10.185  0.1082 -0.0769 -0.1925
  109OSM    H5F11248   6.397   5.570  10.197  0.0726  1.4596 -3.5873
  109OSM    H5G11249   6.494   5.468  10.101  0.8877 -1.1869  0.6717
  109OSM    C6F11250   6.577   5.660  10.119  0.1239 -0.0693 -0.7432
  109OSM    H6F11251   6.594   5.727  10.206  0.5977 -0.6777 -0.3666
  109OSM    H6G11252   6.520   5.707  10.036 -2.3548 -1.8332 -0.0931
  109OSM    C7F11253   6.718   5.625  10.075  0.0278 -0.5526  0.2214
  109OSM    H7F11254   6.775   5.590  10.164  0.1661  1.6619  1.0524
  109OSM    H7G11255   6.764   5.724  10.052  1.4907 -0.8005  1.9235
  109OSM    C8F11256   6.741   5.532   9.953  0.4891  0.3327 -0.4806
  109OSM    H8F11257   6.696   5.432   9.971 -0.3883  0.6396 -0.9184
  109OSM    H8G11258   6.851   5.517   9.948  0.8314  1.6868  2.0112
  109OSM    C9F11259   6.687   5.585   9.823 -0.0407  0.3840  0.4545
  109OSM    H9F11260   6.610   5.664   9.830  0.2233  0.5339  1.8978
  109OSM   C10F11261   6.740   5.559   9.701  0.1110  0.0658  0.5714
  109OSM   H10F11262   6.686   5.598   9.614  0.2304 -1.1612 -0.0593
  109OSM   C11F11263   6.853   5.464   9.665  1.1213 -0.9048 -0.0246
  109OSM   H11F11264   6.811   5.367   9.629  0.5840 -0.5295 -0.4124
  109OSM   H11G11265   6.922   5.432   9.746  3.0008 -1.2205 -1.6900
  109OSM   C12F11266   6.938   5.528   9.546  0.4905 -0.1213  0.4999
  109OSM   H12F11267   6.993   5.600   9.609 -0.2114  0.0471  0.9165
  109OSM   H12G11268   6.877   5.564   9.460 -0.9196 -1.6506  0.8392
  109OSM   C13F11269   7.043   5.424   9.499  0.5257  0.5995  0.0546
  109OSM   H13F11270   6.993   5.345   9.439 -1.4395  1.8376  0.0099
  109OSM   H13G11271   7.090   5.376   9.587  0.5622 -1.0159 -0.8251
  109OSM   C14F11272   7.156   5.483   9.412 -0.0045 -0.0329 -0.0482
  109OSM   H14F11273   7.193   5.582   9.447  1.8914 -0.0142 -2.0314
  109OSM   H14G11274   7.112   5.497   9.311  0.6746 -1.2448 -0.5217
  109OSM   C15F11275   7.287   5.400   9.400 -0.1084 -0.2270  0.8622
  109OSM   H15F11276   7.259   5.298   9.364  2.3329 -0.3815 -0.7357
  109OSM   H15G11277   7.318   5.390   9.506  0.3502  1.0126  0.8458
  109OSM   C16F11278   7.391   5.461   9.308  0.0395  0.7065  0.2478
  109OSM   H16F11279   7.485   5.406   9.332 -0.6553 -0.7234 -0.2186
  109OSM   H16G11280   7.420   5.560   9.348  0.9083  0.4319  0.3050
  109OSM   C17F11281   7.364   5.464   9.155 -0.6491 -0.4695  0.0841
  109OSM   H17F11282   7.440   5.531   9.110  0.8659 -2.6010 -0.5976
  109OSM   H17G11283   7.269   5.515   9.127 -0.7826 -0.9313 -0.3081
  109OSM   C18F11284   7.382   5.324   9.079  0.2472  0.2666 -0.5129
  109OSM   H18F11285   7.488   5.297   9.091 -0.2411 -0.4653  2.4162
  109OSM   H18G11286   7.366   5.332   8.969  1.6991 -1.9347 -0.9150
  109OSM   H18H11287   7.330   5.238   9.126  0.3671  0.1710 -0.5563
  110OSM      N11288   6.541   3.701  11.008 -0.0806 -0.3509 -0.0413
  110OSM    C1511289   6.428   3.659  10.917  0.1255 -0.3013  0.0030
  110OSM   H15A11290   6.481   3.624  10.830 -1.4368 -0.2302 -0.9883
  110OSM   H15B11291   6.357   3.739  10.902 -2.3047 -1.5151  4.1545
  110OSM   H15C11292   6.370   3.574  10.950 -0.1689 -0.5684 -1.1821
  110OSM    C1411293   6.476   3.777  11.124 -0.0668 -0.8678 -0.5611
  110OSM   H14A11294   6.437   3.873  11.093  3.5254  0.4926 -1.0956
  110OSM   H14B11295   6.546   3.803  11.201 -0.0852 -0.6715 -0.6107
  110OSM   H14C11296   6.400   3.706  11.156  0.4586 -0.6055  1.3271
  110OSM    C1311297   6.616   3.589  11.071  0.2228  0.6574  0.1383
  110OSM   H13A11298   6.556   3.532  11.140  2.0157  0.6507  1.7608
  110OSM   H13B11299   6.689   3.626  11.142 -1.5250 -0.7658  2.7440
  110OSM   H13C11300   6.667   3.518  11.008  2.9039  1.2520  1.5594
  110OSM    C1211301   6.633   3.793  10.933  0.0666  0.2670  0.1370
  110OSM   H12A11302   6.713   3.832  10.994 -2.3968  2.5693  2.0220
  110OSM   H12B11303   6.575   3.878  10.903 -0.4995  0.3671  1.5074
  110OSM    C1111304   6.698   3.735  10.797  0.3942  0.4167  0.5318
  110OSM   H11A11305   6.730   3.822  10.736 -1.8685  1.8592  1.3341
  110OSM   H11B11306   6.620   3.699  10.727  1.7854  1.0336 -1.3735
  110OSM      P11307   6.942   3.673  10.887 -0.2273 -0.0365  0.2520
  110OSM    O1311308   6.922   3.780  10.985 -0.1494 -0.3881 -0.7504
  110OSM    O1411309   7.011   3.554  10.926  0.5546  0.0291 -0.1305
  110OSM    O1111310   7.005   3.741  10.764  1.0055 -0.5321 -0.0841
  110OSM    O1211311   6.799   3.640  10.826  0.1421  0.0828 -0.4576
  110OSM    C1S11312   6.973   3.681  10.635 -0.3404 -0.0682  0.1224
  110OSM    H1S11313   6.865   3.660  10.620  0.1733 -0.9629 -2.6493
  110OSM    H1T11314   7.035   3.589  10.630  0.6234  0.6616 -2.8291
  110OSM     NF11315   6.971   3.715  10.386 -0.8998 -0.0023  0.0450
  110OSM    HNF11316   7.036   3.661  10.333  0.1603  1.5470 -0.2719
  110OSM    C2S11317   7.007   3.774  10.509  0.4691 -0.7613  0.1742
  110OSM    H2S11318   6.956   3.873  10.515 -1.0054 -1.4939  0.0329
  110OSM    C3S11319   7.159   3.819  10.520 -0.4053 -0.1378 -0.3058
  110OSM    H3S11320   7.221   3.727  10.523 -0.2775 -0.0401  0.0715
  110OSM     O311321   7.186   3.878  10.644  0.3402 -0.5465  0.0261
  110OSM    HO311322   7.114   3.852  10.702  1.0845 -0.7872  0.8622
  110OSM    C4S11323   7.198   3.911  10.412 -0.5008  0.1212 -0.2802
  110OSM    H4S11324   7.130   3.990  10.376  0.7010  1.2890 -0.0544
  110OSM    C5S11325   7.309   3.897  10.336 -0.1721  0.4807 -0.2097
  110OSM    H5S11326   7.374   3.814  10.367 -0.4478 -0.7407 -2.7672
  110OSM    C6S11327   7.344   3.984  10.222  0.1177 -0.3546 -0.8448
  110OSM    H6S11328   7.370   3.919  10.135 -2.1156 -0.0080 -1.7998
  110OSM    H6T11329   7.441   4.027  10.253 -0.4363  0.4536 -0.2242
  110OSM    C7S11330   7.248   4.101  10.175  0.1299 -0.3615  0.0977
  110OSM    H7S11331   7.211   4.160  10.262  1.9787 -0.0502  0.6811
  110OSM    H7T11332   7.161   4.053  10.124  1.9867 -3.3031 -0.3914
  110OSM    C8S11333   7.313   4.206  10.086 -0.0609 -0.4883 -0.5124
  110OSM    H8S11334   7.390   4.264  10.141 -0.5797  2.5646 -2.9048
  110OSM    H8T11335   7.233   4.272  10.047  0.6807  1.7650  1.6542
  110OSM    C9S11336   7.371   4.143   9.959 -0.6989  0.5168 -0.2606
  110OSM    H9S11337   7.295   4.081   9.906  1.3516 -0.1007 -2.5595
  110OSM    H9T11338   7.452   4.072   9.985 -0.7433  1.2078  1.8330
  110OSM   C10S11339   7.406   4.248   9.860  0.3595 -0.5870  0.6282
  110OSM   H10S11340   7.451   4.342   9.898  0.9094  0.1124 -1.6702
  110OSM   H10T11341   7.322   4.287   9.799 -0.2140 -1.7782  0.6269
  110OSM   C11S11342   7.505   4.198   9.748 -0.0677  0.7269 -0.1694
  110OSM   H11S11343   7.476   4.093   9.726 -1.1128  1.4847 -2.5252
  110OSM   H11T11344   7.602   4.193   9.802 -0.7994 -0.7673  1.0530
  110OSM   C12S11345   7.507   4.272   9.618 -0.0335 -0.0977 -0.2534
  110OSM   H12S11346   7.581   4.354   9.628 -0.0746 -0.1533  0.4924
  110OSM   H12T11347   7.413   4.314   9.575 -0.4163  1.2107  1.8122
  110OSM   C13S11348   7.568   4.177   9.510 -0.5583  0.1666  0.1402
  110OSM   H13S11349   7.517   4.080   9.530  0.9667 -0.9285 -1.2097
  110OSM   H13T11350   7.677   4.166   9.527 -0.2772  1.8291 -0.4455
  110OSM   C14S11351   7.533   4.238   9.372 -0.1827 -0.7763 -1.0013
  110OSM   H14S11352   7.572   4.341   9.371 -0.7124 -0.5475  0.4137
  110OSM   H14T11353   7.422   4.231   9.367 -0.1524  0.3698 -4.3338
  110OSM   C15S11354   7.591   4.148   9.253 -0.3710 -0.9181  0.5713
  110OSM   H15S11355   7.573   4.041   9.274 -1.7654 -1.2051 -1.8743
  110OSM   H15T11356   7.697   4.179   9.249 -1.1619  2.1231  1.6048
  110OSM   C16S11357   7.521   4.176   9.120 -0.5537  1.0055  0.2997
  110OSM   H16S11358   7.532   4.281   9.085  0.5195  1.0188  0.6491
  110OSM   H16T11359   7.411   4.164   9.126 -0.5309  0.4281 -0.4350
  110OSM   C17S11360   7.560   4.085   9.002 -0.8533  0.3797  0.0473
  110OSM   H17S11361   7.473   4.075   8.934  0.0819 -2.0254 -0.8446
  110OSM   H17T11362   7.583   3.980   9.029  0.3363  0.9220  1.1880
  110OSM   C18S11363   7.673   4.152   8.920  0.3460 -0.1984  0.9421
  110OSM   H18S11364   7.686   4.098   8.824  1.6622 -0.0342  1.0191
  110OSM   H18T11365   7.770   4.157   8.974  0.4945 -1.5551  0.8174
  110OSM   H18U11366   7.636   4.253   8.893  1.2421  0.2608  1.4029
  110OSM    C1F11367   6.847   3.683  10.361  0.3937 -0.7386 -0.6597
  110OSM     OF11368   6.754   3.751  10.405  0.1494  0.0457  0.6689
  110OSM    C2F11369   6.820   3.587  10.254 -0.0514  0.1999 -0.1884
  110OSM    H2F11370   6.796   3.492  10.307  1.0828  0.4009  0.7080
  110OSM    H2G11371   6.908   3.574  10.187  0.1185  0.9359 -0.1204
  110OSM    C3F11372   6.683   3.624  10.195 -0.6377  0.3234 -0.1460
  110OSM    H3F11373   6.673   3.724  10.148 -0.8773  0.5546  0.3981
  110OSM    H3G11374   6.603   3.618  10.271 -2.4332  1.0564 -1.9191
  110OSM    C4F11375   6.642   3.520  10.084 -0.2988  0.5368 -0.1520
  110OSM    H4F11376   6.546   3.542  10.033 -1.2164  0.5298  1.5455
  110OSM    H4G11377   6.618   3.424  10.136  1.3303  0.7837  1.0998
  110OSM    C5F11378   6.750   3.492   9.983  0.4505 -0.4925  0.5763
  110OSM    H5F11379   6.724   3.389   9.949  1.7730 -0.6032 -0.1424
  110OSM    H5G11380   6.856   3.477  10.013  0.2647 -2.8430  0.1554
  110OSM    C6F11381   6.737   3.583   9.857 -0.0614  0.6443 -0.1074
  110OSM    H6F11382   6.792   3.679   9.865 -1.2418  1.2503  0.9104
  110OSM    H6G11383   6.626   3.594   9.849 -0.2290 -0.5210  0.5687
  110OSM    C7F11384   6.779   3.506   9.732 -0.6800  0.3422  0.1853
  110OSM    H7F11385   6.719   3.412   9.729 -1.3652  0.7358  1.1767
  110OSM    H7G11386   6.887   3.479   9.729 -0.7928 -0.0261 -0.5694
  110OSM    C8F11387   6.760   3.575   9.595 -1.3663 -0.0707  0.0197
  110OSM    H8F11388   6.653   3.606   9.590 -1.3548 -0.1324 -0.5990
  110OSM    H8G11389   6.776   3.494   9.520 -0.0306 -0.0174  0.2356
  110OSM    C9F11390   6.856   3.690   9.571 -0.2299 -0.0516  0.9149
  110OSM    H9F11391   6.935   3.717   9.643 -0.4711  3.0370  0.0679
  110OSM   C10F11392   6.841   3.790   9.478  0.1660  0.4593  0.4912
  110OSM   H10F11393   6.922   3.862   9.463 -0.9498  1.9919  1.6613
  110OSM   C11F11394   6.727   3.798   9.380 -1.0493  0.5103  0.0696
  110OSM   H11F11395   6.675   3.897   9.384 -1.0450  0.6629 -2.6167
  110OSM   H11G11396   6.644   3.727   9.401 -2.0514  1.0920 -1.7554
  110OSM   C12F11397   6.774   3.788   9.234 -0.0602  0.3513 -0.1943
  110OSM   H12F11398   6.772   3.681   9.203  1.5955  0.6152 -1.2755
  110OSM   H12G11399   6.880   3.820   9.226  1.3412 -3.8502  0.3898
  110OSM   C13F11400   6.684   3.865   9.131 -0.0280  0.0846 -0.0166
  110OSM   H13F11401   6.688   3.972   9.162 -0.3276  0.1382 -0.1679
  110OSM   H13G11402   6.578   3.836   9.136  0.5982 -1.9433  1.9990
  110OSM   C14F11403   6.731   3.854   8.990  0.5253 -0.5208  0.3002
  110OSM   H14F11404   6.714   3.751   8.952  1.5068 -0.0543 -1.4643
  110OSM   H14G11405   6.840   3.874   8.993  0.2713  1.1925 -0.8299
  110OSM   C15F11406   6.655   3.952   8.894  0.5110  0.5628 -1.0015
  110OSM   H15F11407   6.656   4.057   8.930 -1.3251  0.3948 -0.4202
  110OSM   H15G11408   6.546   3.930   8.886  0.2592  1.6250 -0.6114
  110OSM   C16F11409   6.705   3.948   8.746  0.7237  0.1392 -0.3613
  110OSM   H16F11410   6.638   4.011   8.683  0.0080 -0.0869  0.1622
  110OSM   H16G11411   6.681   3.842   8.721 -0.4241  0.1674  0.5599
  110OSM   C17F11412   6.848   3.984   8.712 -0.2130 -0.5082  0.3457
  110OSM   H17F11413   6.873   3.936   8.614  4.1210  2.1388 -0.0314
  110OSM   H17G11414   6.907   3.938   8.795  2.3165 -3.2429 -2.7886
  110OSM   C18F11415   6.880   4.139   8.699  0.3823 -0.3908  0.2397
  110OSM   H18F11416   6.803   4.190   8.636 -0.1400 -1.7706 -0.2529
  110OSM   H18G11417   6.975   4.171   8.651 -0.3204  1.9446  0.3077
  110OSM   H18H11418   6.852   4.192   8.793  0.2835  1.3296 -0.7301
  111OSM      N11419   2.046   2.171  10.994  0.0234  0.2587  0.8314
  111OSM    C1511420   2.075   2.241  11.122 -0.5458  0.0589 -0.0172
  111OSM   H15A11421   2.117   2.185  11.204  0.7156 -1.0322 -1.4064
  111OSM   H15B11422   1.984   2.288  11.158 -0.7469 -0.7578  0.5480
  111OSM   H15C11423   2.147   2.320  11.108 -1.7054  1.0695 -0.4275
  111OSM    C1411424   1.963   2.053  11.037  0.0210 -0.5282 -0.0231
  111OSM   H14A11425   1.864   2.090  11.055 -0.0039 -0.5576 -0.0990
  111OSM   H14B11426   2.015   2.003  11.118  1.8240  0.5361 -0.4935
  111OSM   H14C11427   1.949   1.987  10.953 -0.8229  0.0841 -0.3614
  111OSM    C1311428   1.969   2.261  10.910  0.4559  0.2605  0.8057
  111OSM   H13A11429   1.878   2.298  10.956  1.4530  1.7823  1.6254
  111OSM   H13B11430   1.928   2.211  10.824  1.7866  0.9882 -0.2804
  111OSM   H13C11431   2.026   2.343  10.869 -1.2792  0.6023 -0.9906
  111OSM    C1211432   2.175   2.127  10.931  0.2100  0.3662  0.0602
  111OSM   H12A11433   2.215   2.058  11.003  2.2954  1.3023 -0.1734
  111OSM   H12B11434   2.244   2.210  10.921 -0.5328  0.9593 -0.2025
  111OSM    C1111435   2.174   2.063  10.798  0.3388 -0.1011  0.3637
  111OSM   H11A11436   2.278   2.053  10.761  0.0232  4.8964 -2.3656
  111OSM   H11B11437   2.123   2.134  10.729 -1.1607 -0.7692  0.7714
  111OSM      P11438   2.052   1.863  10.685 -0.0416 -0.0361  0.2303
  111OSM    O1311439   2.175   1.814  10.616 -0.3029 -0.3825  0.4125
  111OSM    O1411440   1.951   1.759  10.725  0.8407  0.0076 -0.5630
  111OSM    O1111441   1.980   1.969  10.579  0.1893  0.2532 -0.5769
  111OSM    O1211442   2.107   1.940  10.813  0.0491  0.0960 -0.0730
  111OSM    C1S11443   1.864   2.040  10.607 -0.0267  0.9891  0.4368
  111OSM    H1S11444   1.862   2.103  10.699  0.4704  0.8733  0.5253
  111OSM    H1T11445   1.788   1.963  10.632 -1.0623  1.3883 -1.3886
  111OSM     NF11446   1.698   2.195  10.525  0.5446 -0.3873  0.4427
  111OSM    HNF11447   1.608   2.154  10.528 -1.0448  2.9540  0.8775
  111OSM    C2S11448   1.816   2.121  10.483  0.4708 -0.5269  0.0311
  111OSM    H2S11449   1.898   2.187  10.447 -0.7106 -0.1042 -1.9524
  111OSM    C3S11450   1.787   2.024  10.363  0.1674  0.3088  0.2021
  111OSM    H3S11451   1.709   1.948  10.387  0.3668 -0.8038 -2.4418
  111OSM     O311452   1.898   1.936  10.332  0.4100  0.0205 -0.3393
  111OSM    HO311453   1.949   1.943  10.413 -0.9998 -0.0566  0.5717
  111OSM    C4S11454   1.743   2.098  10.238 -0.9602 -0.0478  0.5844
  111OSM    H4S11455   1.818   2.173  10.207  0.4008 -0.4965  2.6243
  111OSM    C5S11456   1.627   2.087  10.169  0.0838  0.9494 -0.0697
  111OSM    H5S11457   1.543   2.038  10.220  0.3473  0.3614 -0.1983
  111OSM    C6S11458   1.593   2.174  10.043 -0.1176 -0.3866 -0.6678
  111OSM    H6S11459   1.689   2.203   9.995 -0.8949  1.9957 -0.8625
  111OSM    H6T11460   1.527   2.256  10.080  1.3318  1.3148 -1.7830
  111OSM    C7S11461   1.528   2.079   9.943 -0.7197 -1.0271  0.6975
  111OSM    H7S11462   1.428   2.051   9.983 -1.0995 -0.4926  0.1126
  111OSM    H7T11463   1.585   1.984   9.936  0.0719 -0.3146 -3.9745
  111OSM    C8S11464   1.520   2.142   9.801 -0.2735 -0.6780 -0.1531
  111OSM    H8S11465   1.622   2.168   9.767 -0.0377 -0.6935  0.5247
  111OSM    H8T11466   1.462   2.235   9.822  0.2822 -0.1587 -0.8928
  111OSM    C9S11467   1.453   2.039   9.709 -0.2397 -0.2056  0.1743
  111OSM    H9S11468   1.365   1.995   9.761  0.7453  0.5377  2.5149
  111OSM    H9T11469   1.530   1.965   9.680  0.3000  0.0942  0.8422
  111OSM   C10S11470   1.397   2.101   9.572 -0.1948 -0.2024  0.5355
  111OSM   H10S11471   1.334   2.191   9.586 -1.2847 -0.8940  0.1101
  111OSM   H10T11472   1.335   2.022   9.523  0.8678 -0.9335  0.3521
  111OSM   C11S11473   1.500   2.165   9.488 -0.7934 -0.1964 -0.3796
  111OSM   H11S11474   1.550   2.076   9.445  0.8281  1.5944 -2.3561
  111OSM   H11T11475   1.586   2.210   9.543 -0.5637 -2.0383  0.7757
  111OSM   C12S11476   1.453   2.255   9.368 -0.3477 -0.1383  0.5550
  111OSM   H12S11477   1.437   2.353   9.418  1.8759 -1.5969  4.2804
  111OSM   H12T11478   1.354   2.211   9.342  0.4976 -0.9194 -1.4342
  111OSM   C13S11479   1.533   2.271   9.241  0.4107 -1.1763  0.1019
  111OSM   H13S11480   1.633   2.316   9.258 -0.6968  0.6022  2.0908
  111OSM   H13T11481   1.481   2.333   9.164 -0.3429 -1.4835  0.3603
  111OSM   C14S11482   1.559   2.139   9.173  0.7298  0.2575  0.7147
  111OSM   H14S11483   1.460   2.108   9.135  1.6250  3.3942 -4.6591
  111OSM   H14T11484   1.582   2.065   9.253 -0.5731 -1.9745 -0.9260
  111OSM   C15S11485   1.659   2.137   9.061 -0.2135  0.0998 -0.4555
  111OSM   H15S11486   1.688   2.031   9.047 -2.2521 -0.8914  2.3472
  111OSM   H15T11487   1.757   2.188   9.076  0.2721 -0.4753 -1.5986
  111OSM   C16S11488   1.603   2.201   8.936 -0.3127 -0.0991 -0.3134
  111OSM   H16S11489   1.540   2.290   8.958 -1.6309 -0.9715 -0.4876
  111OSM   H16T11490   1.534   2.127   8.889 -1.4437  0.1753  0.9156
  111OSM   C17S11491   1.698   2.256   8.834  0.1169 -0.7023  0.2377
  111OSM   H17S11492   1.748   2.165   8.796  0.5065 -0.0083 -0.9393
  111OSM   H17T11493   1.770   2.329   8.876  1.3716 -0.0236 -2.9379
  111OSM   C18S11494   1.629   2.333   8.717 -0.0363 -0.3314 -0.0101
  111OSM   H18S11495   1.547   2.389   8.765  0.0458 -0.5085  0.3357
  111OSM   H18T11496   1.593   2.261   8.641 -0.2279  2.0703 -2.2865
  111OSM   H18U11497   1.702   2.404   8.671  0.2405 -1.9955 -2.2515
  111OSM    C1F11498   1.714   2.305  10.600  0.6929  0.1353  0.6404
  111OSM     OF11499   1.825   2.335  10.639 -0.2802 -0.4529 -0.3178
  111OSM    C2F11500   1.585   2.381  10.622 -0.0616 -0.0662  0.4257
  111OSM    H2F11501   1.555   2.370  10.729 -0.3183 -0.5583  0.3036
  111OSM    H2G11502   1.505   2.344  10.555 -0.2002 -0.4651  0.8110
  111OSM    C3F11503   1.595   2.537  10.588 -0.1877  0.2189 -0.3091
  111OSM    H3F11504   1.660   2.583  10.666  0.4081 -0.7899 -0.2010
  111OSM    H3G11505   1.497   2.586  10.604 -1.0475 -2.2532  2.3541
  111OSM    C4F11506   1.648   2.569  10.444  0.5545 -0.4802  0.4194
  111OSM    H4F11507   1.753   2.538  10.430  0.2866 -2.1939  1.9726
  111OSM    H4G11508   1.643   2.677  10.421  0.8492 -0.7688 -1.0814
  111OSM    C5F11509   1.574   2.486  10.337  0.5703  0.0054 -0.0099
  111OSM    H5F11510   1.468   2.461  10.359 -0.0836 -0.5556 -3.5384
  111OSM    H5G11511   1.625   2.387  10.333 -0.2561 -0.4571  0.8748
  111OSM    C6F11512   1.576   2.557  10.198  0.8664  0.3453 -0.1723
  111OSM    H6F11513   1.516   2.651  10.195 -1.0600 -0.8758 -0.9210
  111OSM    H6G11514   1.520   2.488  10.132  2.6328 -0.8722 -0.4314
  111OSM    C7F11515   1.710   2.573  10.130  0.9157 -0.2036 -0.2199
  111OSM    H7F11516   1.748   2.469  10.140 -2.0952 -1.4309 -0.9175
  111OSM    H7G11517   1.771   2.640  10.194  0.3149 -0.3265  0.4906
  111OSM    C8F11518   1.708   2.612   9.986  0.5736 -0.1964  0.3591
  111OSM    H8F11519   1.815   2.634   9.965 -0.1392  0.4157 -2.9823
  111OSM    H8G11520   1.652   2.706   9.967  0.1755 -0.5869 -0.4699
  111OSM    C9F11521   1.663   2.500   9.889 -0.2104  0.1771  0.2316
  111OSM    H9F11522   1.575   2.442   9.922  0.5905 -1.9275 -1.2030
  111OSM   C10F11523   1.712   2.460   9.770 -0.2787  0.0465  0.3565
  111OSM   H10F11524   1.670   2.377   9.711 -0.0208  0.0604  0.1525
  111OSM   C11F11525   1.830   2.533   9.692  0.4695 -0.1735  0.3556
  111OSM   H11F11526   1.918   2.465   9.696  1.3355  0.8296 -1.1387
  111OSM   H11G11527   1.855   2.632   9.735 -1.0849  0.3549  0.0651
  111OSM   C12F11528   1.801   2.561   9.541  0.4292 -0.4861 -0.7796
  111OSM   H12F11529   1.886   2.621   9.503 -0.3071  1.5022  0.6070
  111OSM   H12G11530   1.711   2.622   9.518  1.4151  0.4483 -2.2525
  111OSM   C13F11531   1.796   2.426   9.461  0.1559  0.1258  0.4871
  111OSM   H13F11532   1.700   2.378   9.434 -0.3038  2.6816 -2.7978
  111OSM   H13G11533   1.845   2.350   9.526  0.7283  1.3675  1.5325
  111OSM   C14F11534   1.882   2.446   9.337 -0.1437  0.1348 -0.1863
  111OSM   H14F11535   1.971   2.507   9.361  0.9685 -0.4940 -2.5253
  111OSM   H14G11536   1.820   2.514   9.274 -0.3536 -0.6637 -0.8539
  111OSM   C15F11537   1.935   2.322   9.272 -0.5294 -0.0798  0.0236
  111OSM   H15F11538   1.849   2.252   9.268 -1.7339  1.1660  2.6068
  111OSM   H15G11539   2.007   2.266   9.336 -0.4190 -1.2156 -1.0787
  111OSM   C16F11540   2.000   2.351   9.133 -0.3120  0.3634  0.5417
  111OSM   H16F11541   2.081   2.427   9.138  0.2006  0.0584 -2.1155
  111OSM   H16G11542   1.924   2.387   9.060  0.4925 -2.6779 -1.9070
  111OSM   C17F11543   2.050   2.218   9.073 -0.2626 -0.2742 -0.4840
  111OSM   H17F11544   1.988   2.133   9.109 -0.1876 -0.2416 -0.2799
  111OSM   H17G11545   2.151   2.192   9.111 -0.6702 -2.3230 -0.7313
  111OSM   C18F11546   2.059   2.216   8.924 -0.0825 -0.5171 -0.0863
  111OSM   H18F11547   2.106   2.312   8.894 -0.7671 -0.1413  0.0306
  111OSM   H18G11548   1.960   2.214   8.872  0.7253  1.6608 -1.7870
  111OSM   H18H11549   2.108   2.123   8.889 -1.1776 -1.5021  0.9435
  112OSM      N11550   0.591   0.233  11.193  0.8362  0.1427 -0.4553
  112OSM    C1511551   0.593   0.139  11.302  0.0316  0.4269 -0.6984
  112OSM   H15A11552   0.669   0.158  11.377  0.5701  0.4812 -1.2600
  112OSM   H15B11553   0.619   0.041  11.265  0.6968  0.1339  0.5009
  112OSM   H15C11554   0.496   0.127  11.349 -0.9983 -1.1605 -3.1717
  112OSM    C1411555   0.736   0.246  11.156  0.3397  0.4959  0.7433
  112OSM   H14A11556   0.794   0.246  11.247  1.9549  2.9558 -0.2517
  112OSM   H14B11557   0.752   0.339  11.103  2.4991  1.2952  2.7236
  112OSM   H14C11558   0.759   0.169  11.084 -0.9062  0.9898 -0.1845
  112OSM    C1311559   0.509   0.175  11.074 -0.6653 -0.8029 -0.4753
  112OSM   H13A11560   0.564   0.084  11.049  1.5946  0.4016 -0.0428
  112OSM   H13B11561   0.494   0.247  10.995 -4.0776 -1.0894 -0.1443
  112OSM   H13C11562   0.405   0.150  11.090 -0.8199 -0.2253 -0.5886
  112OSM    C1211563   0.533   0.370  11.229 -0.0301 -0.4210 -0.2277
  112OSM   H12A11564   0.591   0.411  11.311 -2.5640  0.8467  0.9837
  112OSM   H12B11565   0.434   0.350  11.268  0.3801 -0.2623  0.9170
  112OSM    C1111566   0.519   0.472  11.114 -0.0643  0.0952  0.5204
  112OSM   H11A11567   0.486   0.572  11.148  2.4695  1.6552 -1.4117
  112OSM   H11B11568   0.435   0.431  11.054  0.2529 -1.3879  1.0694
  112OSM      P11569   0.647   0.493  10.889  0.0511 -0.0190 -0.3817
  112OSM    O1311570   0.583   0.616  10.825  0.7923 -0.1507  1.3405
  112OSM    O1411571   0.783   0.447  10.850 -0.0714 -0.1651  0.4128
  112OSM    O1111572   0.556   0.367  10.860  0.2300 -0.1202  0.9491
  112OSM    O1211573   0.648   0.490  11.046 -0.4961 -0.5279 -0.3424
  112OSM    C1S11574   0.456   0.366  10.751  0.7378  0.3918 -0.4864
  112OSM    H1S11575   0.416   0.466  10.726 -0.6776 -0.2399 -0.7918
  112OSM    H1T11576   0.368   0.313  10.793 -0.4277  2.4974 -0.2045
  112OSM     NF11577   0.430   0.316  10.503 -0.8784  0.2746 -0.5079
  112OSM    HNF11578   0.344   0.267  10.491  0.5863 -2.3785 -0.5761
  112OSM    C2S11579   0.515   0.291  10.619 -0.2481 -0.4150  0.3030
  112OSM    H2S11580   0.619   0.327  10.608 -0.1255 -1.0323 -0.5918
  112OSM    C3S11581   0.521   0.144  10.644 -0.7645  0.4921 -0.1538
  112OSM    H3S11582   0.418   0.104  10.654 -1.6200  2.8028  0.7799
  112OSM     O311583   0.578   0.097  10.768 -0.3701 -0.0327  0.2196
  112OSM    HO311584   0.600   0.182  10.807 -0.9725 -1.6621  4.3541
  112OSM    C4S11585   0.579   0.059  10.529  0.5390  0.5467 -0.0459
  112OSM    H4S11586   0.497   0.039  10.459 -0.6378  3.8277  0.3260
  112OSM    C5S11587   0.703   0.012  10.509  0.5043  0.2973  0.2096
  112OSM    H5S11588   0.776   0.046  10.583 -0.8151  0.4692  1.4446
  112OSM    C6S11589   0.755  -0.065  10.392  0.0654  0.6586 -1.0453
  112OSM    H6S11590   0.817  -0.149  10.431 -2.3119 -1.3863 -1.5439
  112OSM    H6T11591   0.820   0.003  10.333  1.4349  1.7678  1.6512
  112OSM    C7S11592   0.646  -0.122  10.304 -0.8563  0.5760 -0.1777
  112OSM    H7S11593   0.577  -0.036  10.288 -0.8178  0.8837  1.2010
  112OSM    H7T11594   0.598  -0.214  10.343 -2.0656  1.6697  0.9957
  112OSM    C8S11595   0.688  -0.156  10.160 -0.0737 -0.7066  0.0374
  112OSM    H8S11596   0.743  -0.252  10.170  0.9455 -0.0030  1.3321
  112OSM    H8T11597   0.739  -0.066  10.118  0.8313 -2.2211 -2.2442
  112OSM    C9S11598   0.569  -0.185  10.064  0.6138  0.1027 -0.2775
  112OSM    H9S11599   0.489  -0.111  10.085  2.6624  2.8372 -1.7496
  112OSM    H9T11600   0.528  -0.287  10.077  1.2335 -0.0353  0.6153
  112OSM   C10S11601   0.596  -0.181   9.910  0.3429  0.2138  0.0982
  112OSM   H10S11602   0.684  -0.244   9.884  0.6048  0.6025  0.0382
  112OSM   H10T11603   0.623  -0.074   9.891 -0.5877  0.7377  1.6163
  112OSM   C11S11604   0.472  -0.231   9.829 -0.0289 -0.0759  0.0558
  112OSM   H11S11605   0.383  -0.169   9.854 -0.7179 -0.0789 -2.2718
  112OSM   H11T11606   0.453  -0.335   9.864  2.0140 -0.8106 -0.9255
  112OSM   C12S11607   0.484  -0.240   9.675  0.2044 -0.9476 -0.2394
  112OSM   H12S11608   0.561  -0.317   9.653 -0.7743 -1.5282 -1.6964
  112OSM   H12T11609   0.536  -0.154   9.628  0.7013 -0.0524  1.8859
  112OSM   C13S11610   0.355  -0.263   9.606  0.4437  0.1576 -0.2912
  112OSM   H13S11611   0.296  -0.173   9.579 -0.5159 -0.8108 -1.5446
  112OSM   H13T11612   0.289  -0.334   9.661 -0.4965  0.4656 -0.9977
  112OSM   C14S11613   0.384  -0.334   9.472  0.2777  0.5946  0.6622
  112OSM   H14S11614   0.298  -0.397   9.439  0.9501  0.2419 -0.4570
  112OSM   H14T11615   0.470  -0.402   9.486  1.7228  2.2768  0.1237
  112OSM   C15S11616   0.431  -0.235   9.362  0.8635  0.1631 -0.4583
  112OSM   H15S11617   0.519  -0.171   9.386  0.6180 -0.5708  2.6612
  112OSM   H15T11618   0.345  -0.171   9.332 -0.2451 -0.6034  0.9807
  112OSM   C16S11619   0.458  -0.324   9.240  0.0287 -0.1425  0.6428
  112OSM   H16S11620   0.367  -0.384   9.220 -0.2638  1.6464 -3.9369
  112OSM   H16T11621   0.540  -0.398   9.252 -0.0868 -0.2569  0.7297
  112OSM   C17S11622   0.475  -0.236   9.116  0.0729  0.5159 -0.0798
  112OSM   H17S11623   0.537  -0.284   9.037 -2.3397 -1.4169 -0.8448
  112OSM   H17T11624   0.527  -0.146   9.155 -1.0808 -0.9009  5.1731
  112OSM   C18S11625   0.340  -0.200   9.052 -0.7380  0.2156 -0.0614
  112OSM   H18S11626   0.350  -0.113   8.984 -1.2406 -0.2098 -0.6880
  112OSM   H18T11627   0.265  -0.157   9.122 -1.1909 -0.5296 -0.0837
  112OSM   H18U11628   0.290  -0.276   8.989  0.5669 -1.0423  0.3939
  112OSM    C1F11629   0.431   0.437  10.436  0.6377  0.0052 -0.5548
  112OSM     OF11630   0.518   0.525  10.459  0.1232  0.1910  0.7679
  112OSM    C2F11631   0.327   0.451  10.324 -0.1855 -0.4647  0.1018
  112OSM    H2F11632   0.240   0.404  10.375  0.4170 -0.6479  0.9616
  112OSM    H2G11633   0.358   0.383  10.242 -1.4318  0.0871 -0.8629
  112OSM    C3F11634   0.310   0.594  10.274  0.5429  0.2964  0.3389
  112OSM    H3F11635   0.407   0.631  10.233 -0.8377  2.7380 -0.8514
  112OSM    H3G11636   0.284   0.663  10.358  0.7923  2.0727 -1.0033
  112OSM    C4F11637   0.201   0.607  10.170  0.0974 -0.0026 -0.3181
  112OSM    H4F11638   0.181   0.711  10.136 -1.7949 -0.3591 -0.3144
  112OSM    H4G11639   0.109   0.576  10.224 -0.1414 -0.1600 -0.8190
  112OSM    C5F11640   0.231   0.528  10.046 -0.1672 -0.0094  0.7824
  112OSM    H5F11641   0.224   0.418  10.062  2.1498 -0.1696  0.8786
  112OSM    H5G11642   0.334   0.555  10.013 -0.8659  0.8838 -0.7105
  112OSM    C6F11643   0.136   0.556   9.924  0.5451  0.2358  0.0477
  112OSM    H6F11644   0.130   0.663   9.897  1.3599  0.2663 -0.0182
  112OSM    H6G11645   0.034   0.525   9.955  1.0593 -0.6471  0.8912
  112OSM    C7F11646   0.165   0.470   9.806  0.0801 -0.5207 -0.2115
  112OSM    H7F11647   0.163   0.361   9.825 -1.6006 -0.4653  0.0101
  112OSM    H7G11648   0.268   0.482   9.765 -0.1829  2.7904 -0.1100
  112OSM    C8F11649   0.066   0.489   9.686  0.3297 -0.3719 -0.1338
  112OSM    H8F11650   0.098   0.437   9.593  1.2658 -1.6813  0.9158
  112OSM    H8G11651   0.065   0.598   9.664 -2.1544  0.1362  2.2913
  112OSM    C9F11652  -0.075   0.439   9.717 -0.4346 -0.6237  0.1696
  112OSM    H9F11653  -0.132   0.481   9.802 -0.1317 -0.8304  0.4776
  112OSM   C10F11654  -0.131   0.336   9.663  0.1765  0.5892 -0.0600
  112OSM   H10F11655  -0.228   0.299   9.699 -0.4658 -0.7975 -3.0124
  112OSM   C11F11656  -0.078   0.257   9.543  0.2349  0.0872 -0.8288
  112OSM   H11F11657  -0.011   0.176   9.578 -0.6826 -0.5477 -0.5250
  112OSM   H11G11658  -0.010   0.315   9.477  0.4490  0.8808  0.0690
  112OSM   C12F11659  -0.193   0.210   9.452 -0.3663 -0.7266 -0.2642
  112OSM   H12F11660  -0.237   0.309   9.427 -1.4156 -1.0572  0.2202
  112OSM   H12G11661  -0.265   0.149   9.511  0.6960 -0.5492  1.2627
  112OSM   C13F11662  -0.138   0.137   9.323  0.1595  0.0568 -0.1422
  112OSM   H13F11663  -0.095   0.039   9.354 -0.6216 -0.3122 -0.1859
  112OSM   H13G11664  -0.069   0.205   9.270 -0.5709  0.8815 -0.0491
  112OSM   C14F11665  -0.254   0.101   9.221  0.1782 -0.0364 -0.0301
  112OSM   H14F11666  -0.304   0.198   9.202  2.3135  0.8598 -1.1859
  112OSM   H14G11667  -0.319   0.027   9.273 -1.1601  1.0611 -0.1176
  112OSM   C15F11668  -0.214   0.042   9.081 -0.4338 -0.1740 -0.5831
  112OSM   H15F11669  -0.155   0.120   9.029 -2.8795  1.2768 -1.2978
  112OSM   H15G11670  -0.307   0.030   9.021 -1.5092 -0.2941  1.0506
  112OSM   C16F11671  -0.131  -0.081   9.082 -0.1776  1.1351 -0.9555
  112OSM   H16F11672  -0.188  -0.146   9.152  0.2064  1.9126  0.0971
  112OSM   H16G11673  -0.037  -0.062   9.139  0.2099 -0.1939 -1.1464
  112OSM   C17F11674  -0.098  -0.152   8.950 -0.4329  0.2787  0.1853
  112OSM   H17F11675  -0.197  -0.167   8.901 -0.0766 -0.5635 -0.2776
  112OSM   H17G11676  -0.050  -0.248   8.979  1.0522  0.9591  0.0229
  112OSM   C18F11677  -0.002  -0.070   8.854 -0.6724 -0.0012  0.9673
  112OSM   H18F11678  -0.041   0.026   8.815  1.5620  0.5428 -0.0430
  112OSM   H18G11679   0.043  -0.121   8.766  0.9213  2.1990  0.4335
  112OSM   H18H11680   0.085  -0.035   8.914  0.5435 -0.0097 -0.7516
  113OSM      N11681   0.683   6.122  11.268 -0.5900 -0.1812 -0.5222
  113OSM    C1511682   0.746   6.005  11.323  0.3388  0.6067 -0.0687
  113OSM   H15A11683   0.697   5.977  11.415 -1.2190  2.6776 -0.2562
  113OSM   H15B11684   0.849   6.029  11.344  0.0406  0.1595  2.0638
  113OSM   H15C11685   0.741   5.921  11.255 -0.5351  1.1353 -0.6672
  113OSM    C1411686   0.544   6.098  11.226  0.2611 -0.1014 -0.7310
  113OSM   H14A11687   0.484   6.184  11.199 -1.0895 -0.5402  0.8295
  113OSM   H14B11688   0.485   6.058  11.307  0.7945 -0.5382 -0.5538
  113OSM   H14C11689   0.548   6.022  11.150  0.4328 -2.3710  1.4982
  113OSM    C1311690   0.685   6.224  11.378 -0.3883  0.0891 -0.3447
  113OSM   H13A11691   0.778   6.223  11.434 -1.2227 -1.3188  1.0948
  113OSM   H13B11692   0.611   6.202  11.454  0.2682 -0.2031  0.2172
  113OSM   H13C11693   0.669   6.326  11.349  0.3384 -0.0351 -1.1803
  113OSM    C1211694   0.770   6.180  11.156 -0.1915  0.2745 -0.2518
  113OSM   H12A11695   0.866   6.200  11.202 -1.3014 -1.2679  2.8455
  113OSM   H12B11696   0.749   6.282  11.127 -0.9369  0.2918  0.3367
  113OSM    C1111697   0.793   6.100  11.025  0.5271 -0.1690 -0.5251
  113OSM   H11A11698   0.845   6.005  11.051  1.1730 -0.3358 -2.3416
  113OSM   H11B11699   0.868   6.155  10.965  1.4994 -1.9586 -0.9880
  113OSM      P11700   0.598   6.186  10.869  0.6430  0.2985 -0.1088
  113OSM    O1311701   0.487   6.115  10.794 -0.3876  0.5910 -0.3923
  113OSM    O1411702   0.566   6.309  10.950  0.8630  0.0089  0.0246
  113OSM    O1111703   0.716   6.228  10.771  0.5713  0.3622 -0.2678
  113OSM    O1211704   0.663   6.076  10.953 -0.3637  0.2465 -0.5183
  113OSM    C1S11705   0.802   6.151  10.701 -0.5636 -0.2017  0.0877
  113OSM    H1S11706   0.771   6.045  10.707  0.8741 -0.7238 -1.3870
  113OSM    H1T11707   0.901   6.147  10.751  0.1578 -2.3634 -1.4343
  113OSM     NF11708   0.885   6.073  10.473  0.5363 -0.2366 -0.2133
  113OSM    HNF11709   0.960   6.096  10.412  0.1441 -0.3786 -0.7508
  113OSM    C2S11710   0.813   6.181  10.547  0.3001 -0.0123 -0.0376
  113OSM    H2S11711   0.708   6.179  10.510 -0.1421  1.3826  1.0927
  113OSM    C3S11712   0.869   6.328  10.522 -0.0079  0.0334  0.2325
  113OSM    H3S11713   0.966   6.329  10.576  1.3940 -3.8242 -1.9668
  113OSM     O311714   0.779   6.418  10.579  0.0105  0.0058 -0.5537
  113OSM    HO311715   0.710   6.367  10.623  0.1660 -1.2644 -1.7679
  113OSM    C4S11716   0.887   6.348  10.370  0.7349  0.1409 -0.1096
  113OSM    H4S11717   0.817   6.312  10.294  1.8581 -0.3860 -0.9207
  113OSM    C5S11718   1.004   6.393  10.320 -0.7446  0.3582 -0.4457
  113OSM    H5S11719   1.088   6.417  10.386 -0.6406  1.1157 -0.8474
  113OSM    C6S11720   1.034   6.403  10.169 -0.2362 -0.3496 -0.7102
  113OSM    H6S11721   1.108   6.483  10.147 -1.8079  1.0624 -0.9646
  113OSM    H6T11722   0.943   6.431  10.113 -1.0023 -1.3062  0.0231
  113OSM    C7S11723   1.091   6.274  10.101  0.1106 -0.5690 -0.5657
  113OSM    H7S11724   1.041   6.181  10.135 -0.0589  0.0268  0.8747
  113OSM    H7T11725   1.200   6.272  10.125  0.3747 -2.5584 -1.8812
  113OSM    C8S11726   1.079   6.276   9.953 -0.0774  0.1270  0.1471
  113OSM    H8S11727   1.129   6.365   9.909 -2.8214  1.6365 -0.0742
  113OSM    H8T11728   0.975   6.286   9.913  0.2738  1.1282 -0.5605
  113OSM    C9S11729   1.133   6.149   9.882 -0.2141 -0.0312  0.4193
  113OSM    H9S11730   1.069   6.061   9.903 -0.6724  0.0279 -0.6685
  113OSM    H9T11731   1.229   6.111   9.923 -0.8428 -2.8234 -0.5370
  113OSM   C10S11732   1.138   6.159   9.725 -0.0490  0.4600 -0.0037
  113OSM   H10S11733   1.212   6.236   9.693 -1.0698  1.8487  0.8862
  113OSM   H10T11734   1.041   6.195   9.684  1.6673  2.5943 -2.4070
  113OSM   C11S11735   1.171   6.027   9.651 -0.6621 -0.0518 -0.2125
  113OSM   H11S11736   1.105   5.944   9.685  0.7949 -0.3897  1.8601
  113OSM   H11T11737   1.275   6.007   9.684 -0.7474  2.5844  1.7982
  113OSM   C12S11738   1.154   6.035   9.501 -0.2304 -0.2354 -0.7770
  113OSM   H12S11739   1.054   6.076   9.476  0.0321 -0.0177 -1.4673
  113OSM   H12T11740   1.147   5.932   9.460 -0.1157 -0.3060 -0.6224
  113OSM   C13S11741   1.259   6.114   9.422  0.5325  0.1645 -0.4124
  113OSM   H13S11742   1.359   6.083   9.461  0.3022 -0.4310 -0.3005
  113OSM   H13T11743   1.225   6.219   9.435 -0.4057 -0.0208 -1.3549
  113OSM   C14S11744   1.243   6.077   9.272  0.2276  0.0884 -0.2329
  113OSM   H14S11745   1.152   6.125   9.230  0.4763  0.1643 -0.6805
  113OSM   H14T11746   1.236   5.967   9.267  5.2691 -0.3766  0.6174
  113OSM   C15S11747   1.373   6.124   9.195 -0.1180 -0.9807  0.2140
  113OSM   H15S11748   1.347   6.092   9.092  0.4400 -1.4472  0.2171
  113OSM   H15T11749   1.462   6.065   9.224 -0.1087 -1.0477  0.0507
  113OSM   C16S11750   1.387   6.280   9.198 -0.5259  0.5204 -0.1172
  113OSM   H16S11751   1.378   6.310   9.304  1.5390 -0.5723  0.3860
  113OSM   H16T11752   1.300   6.330   9.152 -2.6240 -1.6149  1.3865
  113OSM   C17S11753   1.515   6.329   9.141  0.8324  0.7977  0.3208
  113OSM   H17S11754   1.499   6.337   9.031  2.7781  0.2293 -0.0442
  113OSM   H17T11755   1.593   6.253   9.166 -0.1619  0.2791  1.9007
  113OSM   C18S11756   1.546   6.466   9.190 -0.2261  0.1028 -0.4441
  113OSM   H18S11757   1.571   6.469   9.299 -0.0562 -1.2482 -0.4361
  113OSM   H18T11758   1.450   6.520   9.175 -0.3488  0.0110 -0.0117
  113OSM   H18U11759   1.624   6.517   9.129  0.6570  1.7775  1.9747
  113OSM    C1F11760   0.839   5.943  10.470  0.2996 -0.1676  0.7749
  113OSM     OF11761   0.738   5.907  10.531  0.4397 -0.6382  0.1743
  113OSM    C2F11762   0.903   5.849  10.369 -1.0156 -0.4537 -0.1380
  113OSM    H2F11763   1.004   5.826  10.411 -0.1957 -1.1395 -2.3725
  113OSM    H2G11764   0.921   5.905  10.274 -0.6670 -0.6620 -0.1995
  113OSM    C3F11765   0.827   5.733  10.313 -0.8809  0.1178 -0.3103
  113OSM    H3F11766   0.725   5.765  10.284 -0.2072  1.9136 -0.8062
  113OSM    H3G11767   0.809   5.664  10.398  0.1231  2.2151  1.6657
  113OSM    C4F11768   0.904   5.667  10.197  0.2258 -0.3557 -0.0500
  113OSM    H4F11769   0.862   5.564  10.188  2.3806 -1.2764  0.2848
  113OSM    H4G11770   1.003   5.645  10.243  0.5348 -0.8923 -0.9640
  113OSM    C5F11771   0.908   5.751  10.074 -0.0597 -0.1876  0.6130
  113OSM    H5F11772   0.992   5.824  10.074 -0.1982 -0.0279  1.5957
  113OSM    H5G11773   0.810   5.801  10.061 -1.4608 -2.8980  0.3173
  113OSM    C6F11774   0.923   5.670   9.951  0.0328  0.4653  0.3499
  113OSM    H6F11775   0.862   5.581   9.978 -0.9159  0.9910 -0.0310
  113OSM    H6G11776   1.027   5.631   9.949 -0.1340 -0.0920  2.0525
  113OSM    C7F11777   0.887   5.739   9.819 -0.1448  0.5418 -0.1918
  113OSM    H7F11778   0.968   5.792   9.765 -0.1388 -0.8057 -1.5185
  113OSM    H7G11779   0.825   5.827   9.846  0.5289  1.5335 -1.8280
  113OSM    C8F11780   0.798   5.645   9.730 -0.1143  0.6334  0.6285
  113OSM    H8F11781   0.717   5.617   9.801 -0.3560 -0.7777 -0.1887
  113OSM    H8G11782   0.851   5.550   9.710 -1.4112 -0.1448  0.8661
  113OSM    C9F11783   0.737   5.691   9.591 -0.4697  0.0895 -0.1618
  113OSM    H9F11784   0.817   5.704   9.517 -0.7986  0.0529 -0.5206
  113OSM   C10F11785   0.609   5.723   9.572 -0.0206 -0.1032  0.6409
  113OSM   H10F11786   0.579   5.747   9.469 -2.1946  0.4005  1.3772
  113OSM   C11F11787   0.510   5.714   9.684  0.2864  0.0627 -0.6188
  113OSM   H11F11788   0.413   5.767   9.669 -0.1138 -0.2630  0.7701
  113OSM   H11G11789   0.554   5.766   9.771  0.7143 -0.0855 -0.7437
  113OSM   C12F11790   0.475   5.578   9.742  0.7785  0.1778  0.5971
  113OSM   H12F11791   0.566   5.515   9.757  1.0942  0.3642 -0.5418
  113OSM   H12G11792   0.414   5.529   9.664  0.6121  1.3209  0.0095
  113OSM   C13F11793   0.404   5.571   9.880 -0.2221 -0.4087 -0.4900
  113OSM   H13F11794   0.350   5.475   9.894 -0.2854 -0.3115 -0.0742
  113OSM   H13G11795   0.330   5.651   9.857  2.5645  1.7232 -2.4208
  113OSM   C14F11796   0.488   5.619  10.005 -0.1217 -0.7311 -0.7159
  113OSM   H14F11797   0.511   5.726   9.989  3.7510 -1.4314 -0.2986
  113OSM   H14G11798   0.583   5.561  10.003  0.5726  0.1856  2.7007
  113OSM   C15F11799   0.422   5.616  10.143 -0.2892 -0.2212  0.2592
  113OSM   H15F11800   0.495   5.670  10.207  0.5056  2.3905 -2.6978
  113OSM   H15G11801   0.419   5.515  10.188  1.9775 -0.2293  0.4809
  113OSM   C16F11802   0.287   5.689  10.135 -0.4270  0.0483 -0.3818
  113OSM   H16F11803   0.221   5.649  10.055 -1.2464  0.8987 -0.1389
  113OSM   H16G11804   0.305   5.795  10.108 -3.4819  1.2056  1.7981
  113OSM   C17F11805   0.200   5.672  10.264  0.5810  0.1024  0.1956
  113OSM   H17F11806   0.167   5.566  10.270  0.7889 -0.0672 -1.3959
  113OSM   H17G11807   0.107   5.731  10.251  0.1856 -0.5719 -0.0762
  113OSM   C18F11808   0.274   5.726  10.388 -0.0476  0.6619 -0.2851
  113OSM   H18F11809   0.282   5.835  10.372 -4.0509  1.2387  1.2036
  113OSM   H18G11810   0.379   5.688  10.394  0.2902  1.5845 -0.3378
  113OSM   H18H11811   0.210   5.712  10.478 -2.0400  0.9495 -1.6254
  114OSM      N11812   1.633   4.745  11.608  0.2336  0.6205 -0.4668
  114OSM    C1511813   1.544   4.855  11.652  0.2773  0.4527  0.2771
  114OSM   H15A11814   1.533   4.856  11.759 -1.1253 -0.3228  0.1580
  114OSM   H15B11815   1.445   4.839  11.611  1.0297 -2.1010 -0.5766
  114OSM   H15C11816   1.582   4.946  11.608  3.1174  0.0554  1.8339
  114OSM    C1411817   1.775   4.807  11.612  0.0780 -0.8221  0.4512
  114OSM   H14A11818   1.796   4.855  11.518 -0.6072  0.3173  0.8594
  114OSM   H14B11819   1.850   4.732  11.629  1.9132  0.9536  0.2909
  114OSM   H14C11820   1.784   4.873  11.697  0.6392  1.7439 -1.5371
  114OSM    C1311821   1.636   4.631  11.707 -0.1884  0.4640  0.7743
  114OSM   H13A11822   1.651   4.662  11.810 -2.1592 -0.2892  1.3092
  114OSM   H13B11823   1.730   4.579  11.704  0.7649  2.1024  1.3007
  114OSM   H13C11824   1.544   4.574  11.713  2.0757 -3.2801  1.5543
  114OSM    C1211825   1.599   4.690  11.472  0.1413  0.0211  0.4449
  114OSM   H12A11826   1.499   4.649  11.471 -0.6443  1.8989 -0.4585
  114OSM   H12B11827   1.666   4.608  11.451 -1.3336 -1.1832  0.3597
  114OSM    C1111828   1.594   4.797  11.349  0.0930 -0.0369 -1.2928
  114OSM   H11A11829   1.593   4.744  11.251  2.2298 -0.1426 -1.2737
  114OSM   H11B11830   1.691   4.849  11.357  0.1972 -0.5146  1.2457
  114OSM      P11831   1.340   4.861  11.328 -0.2513 -0.1101 -0.2178
  114OSM    O1311832   1.286   4.759  11.424 -0.0647  0.5871  0.0084
  114OSM    O1411833   1.265   4.984  11.299 -0.2443 -0.3635  0.6291
  114OSM    O1111834   1.349   4.784  11.190  0.2900  0.1452  0.2726
  114OSM    O1211835   1.489   4.890  11.368 -0.6878 -0.3463  0.9973
  114OSM    C1S11836   1.408   4.856  11.081  0.3414 -0.6688 -0.4024
  114OSM    H1S11837   1.517   4.838  11.080  0.6058  0.7661  0.3676
  114OSM    H1T11838   1.392   4.966  11.081  0.1606 -0.6753  1.7906
  114OSM     NF11839   1.436   4.868  10.837 -0.4132 -0.0343  0.1516
  114OSM    HNF11840   1.393   4.910  10.757 -0.6354 -1.2315 -0.3583
  114OSM    C2S11841   1.364   4.800  10.942 -0.6908  0.4199 -0.1524
  114OSM    H2S11842   1.397   4.694  10.935 -0.2390  0.5077  0.5406
  114OSM    C3S11843   1.211   4.800  10.928 -0.0255 -0.6736  0.2817
  114OSM    H3S11844   1.181   4.907  10.930  2.7805  0.1588 -0.5893
  114OSM     O311845   1.143   4.726  11.039  0.1487 -0.3581 -0.4627
  114OSM    HO311846   1.218   4.702  11.095 -1.3964 -1.5535  1.1831
  114OSM    C4S11847   1.172   4.742  10.789  0.1169  0.4754  0.1716
  114OSM    H4S11848   1.172   4.819  10.711  0.6486  0.6401  0.3378
  114OSM    C5S11849   1.145   4.613  10.758 -0.6033  0.6523  0.3970
  114OSM    H5S11850   1.140   4.536  10.836  0.8040  1.2586  1.0964
  114OSM    C6S11851   1.122   4.560  10.619 -0.0872 -0.4074 -0.1771
  114OSM    H6S11852   1.013   4.541  10.612 -0.3891  1.2574 -0.2909
  114OSM    H6T11853   1.173   4.462  10.606 -2.2647 -1.1994 -3.5060
  114OSM    C7S11854   1.155   4.660  10.511 -0.1112  0.1221 -0.2481
  114OSM    H7S11855   1.257   4.699  10.531  0.7170 -1.3411 -1.4806
  114OSM    H7T11856   1.087   4.745  10.531  0.3092  0.7232 -1.3653
  114OSM    C8S11857   1.131   4.608  10.361 -0.5545 -0.2008  0.1024
  114OSM    H8S11858   1.026   4.570  10.368 -0.0332 -1.5439  0.7906
  114OSM    H8T11859   1.194   4.518  10.346 -2.6747 -1.4482 -1.7402
  114OSM    C9S11860   1.126   4.709  10.249 -0.4244 -0.4971 -0.4016
  114OSM    H9S11861   1.214   4.777  10.252  1.6418 -3.0308 -1.5743
  114OSM    H9T11862   1.033   4.766  10.265 -0.0001  0.4446 -1.2174
  114OSM   C10S11863   1.111   4.640  10.109  0.5986  0.1323 -0.0893
  114OSM   H10S11864   1.017   4.580  10.106  0.1239  0.9202 -1.6817
  114OSM   H10T11865   1.196   4.574  10.081  2.8631  3.1468 -0.5719
  114OSM   C11S11866   1.091   4.741   9.992 -0.0456 -0.7052 -0.8266
  114OSM   H11S11867   1.009   4.809  10.023  2.7682  1.1626  2.8551
  114OSM   H11T11868   1.060   4.684   9.901  0.8799 -3.6062  0.6293
  114OSM   C12S11869   1.227   4.828   9.975  0.4307  0.2355 -0.6287
  114OSM   H12S11870   1.305   4.757   9.938 -1.7128 -1.5418 -1.8626
  114OSM   H12T11871   1.257   4.873  10.072  0.5207  0.5235 -0.7892
  114OSM   C13S11872   1.216   4.944   9.888  0.1112 -0.4942 -0.2215
  114OSM   H13S11873   1.291   5.022   9.914 -1.4148  0.6977  0.6527
  114OSM   H13T11874   1.116   4.990   9.895 -0.3654 -1.8098  1.7950
  114OSM   C14S11875   1.257   4.911   9.745  0.7182  0.0154 -0.1110
  114OSM   H14S11876   1.226   4.989   9.672 -0.8424 -1.9961 -1.6461
  114OSM   H14T11877   1.205   4.819   9.710  0.7101  0.5663 -1.6136
  114OSM   C15S11878   1.410   4.899   9.720  0.0211  0.1731 -0.0153
  114OSM   H15S11879   1.464   4.850   9.804 -1.8296 -0.0829  1.0524
  114OSM   H15T11880   1.449   5.002   9.710 -1.1160  0.7782  1.5831
  114OSM   C16S11881   1.433   4.834   9.583  0.5357  0.4312 -0.6339
  114OSM   H16S11882   1.525   4.877   9.538  2.0515 -0.7428  1.2468
  114OSM   H16T11883   1.341   4.858   9.526  1.6410  1.8085 -1.8767
  114OSM   C17S11884   1.454   4.684   9.579  0.2530  0.2451  0.0726
  114OSM   H17S11885   1.360   4.634   9.613  1.4285 -1.6365  0.6669
  114OSM   H17T11886   1.532   4.643   9.646  0.5083 -0.7722 -0.8231
  114OSM   C18S11887   1.510   4.643   9.438  0.2565  0.2378  0.3302
  114OSM   H18S11888   1.489   4.537   9.413 -0.9464  0.5935 -0.1848
  114OSM   H18T11889   1.621   4.652   9.447  0.2747  1.2531 -0.7714
  114OSM   H18U11890   1.475   4.713   9.359  1.1776  1.9338  1.3895
  114OSM    C1F11891   1.566   4.849  10.813 -0.2141  0.4541  0.3825
  114OSM     OF11892   1.630   4.758  10.866  0.6818  0.7652  0.1678
  114OSM    C2F11893   1.642   4.940  10.723 -1.1153 -0.0480 -0.1166
  114OSM    H2F11894   1.747   4.927  10.756 -1.3683 -0.2270  0.6197
  114OSM    H2G11895   1.612   5.046  10.739  0.2382  0.5477 -1.3879
  114OSM    C3F11896   1.606   4.902  10.575  0.4448  0.4582 -0.4102
  114OSM    H3F11897   1.502   4.937  10.560  0.0580 -0.0058  1.1394
  114OSM    H3G11898   1.606   4.792  10.564 -1.5326  0.2280  1.6291
  114OSM    C4F11899   1.703   4.971  10.482  0.0778 -0.3389 -0.0299
  114OSM    H4F11900   1.720   5.076  10.515 -0.3922 -0.1176 -0.4902
  114OSM    H4G11901   1.668   4.982  10.377 -1.5136  0.8958  0.6051
  114OSM    C5F11902   1.844   4.910  10.467  0.1847  0.0815 -0.1171
  114OSM    H5F11903   1.820   4.804  10.442  0.6921  0.3309 -1.7439
  114OSM    H5G11904   1.897   4.918  10.564 -0.6241 -2.3754  0.5601
  114OSM    C6F11905   1.926   4.973  10.370  0.0860  0.3678  0.3453
  114OSM    H6F11906   1.868   4.991  10.277 -0.5631  1.6056  0.9786
  114OSM    H6G11907   2.004   4.902  10.334 -2.0159 -1.8148  0.0346
  114OSM    C7F11908   1.978   5.112  10.410 -0.4312 -0.9258 -0.0600
  114OSM    H7F11909   2.024   5.101  10.510  1.4931  1.2997 -0.6749
  114OSM    H7G11910   1.891   5.180  10.426 -1.6331 -2.1309 -1.2850
  114OSM    C8F11911   2.081   5.168  10.316 -0.3471  0.3688  0.2359
  114OSM    H8F11912   2.168   5.099  10.320  0.4137  1.3278  0.4367
  114OSM    H8G11913   2.128   5.265  10.345  0.0777 -0.1879  1.4376
  114OSM    C9F11914   2.017   5.184  10.184  0.4328  0.6628  0.0759
  114OSM    H9F11915   1.923   5.241  10.182  0.0488  0.0857  1.1318
  114OSM   C10F11916   2.052   5.124  10.064 -0.3659  0.4522  0.5701
  114OSM   H10F11917   1.988   5.153   9.979 -0.6149 -1.9549 -0.0934
  114OSM   C11F11918   2.175   5.043  10.034  0.4019 -0.5974 -0.8226
  114OSM   H11F11919   2.148   4.936  10.032  0.2822 -0.5914  0.1485
  114OSM   H11G11920   2.246   5.053  10.119  0.5540 -0.4553 -0.9664
  114OSM   C12F11921   2.240   5.091   9.908  0.3157  0.1015  0.1691
  114OSM   H12F11922   2.279   5.193   9.925 -0.2443  0.3842 -0.2386
  114OSM   H12G11923   2.167   5.097   9.824  2.0833 -0.5414 -1.4692
  114OSM   C13F11924   2.356   5.001   9.864 -0.5735  0.1742 -0.2432
  114OSM   H13F11925   2.321   4.900   9.833  0.5311  0.4585 -2.5420
  114OSM   H13G11926   2.433   4.995   9.944 -0.1599 -1.7263 -0.7624
  114OSM   C14F11927   2.431   5.053   9.742  0.2187 -0.0080 -0.3665
  114OSM   H14F11928   2.519   4.987   9.733 -0.9978 -2.0495  1.8480
  114OSM   H14G11929   2.466   5.158   9.756  0.3376 -0.0313 -0.4993
  114OSM   C15F11930   2.350   5.032   9.614 -0.5821  0.6123 -0.0415
  114OSM   H15F11931   2.253   5.087   9.624 -0.8776 -0.1264  1.3066
  114OSM   H15G11932   2.328   4.924   9.605  0.1038  0.4980 -0.3328
  114OSM   C16F11933   2.419   5.104   9.497 -0.0296 -0.2288 -0.4396
  114OSM   H16F11934   2.519   5.059   9.479  0.5390  0.1033  1.7583
  114OSM   H16G11935   2.445   5.208   9.527 -0.8568 -0.3023  0.5748
  114OSM   C17F11936   2.345   5.101   9.365  0.0600  0.2669 -0.2499
  114OSM   H17F11937   2.256   5.166   9.369 -0.4928 -0.4422 -0.8264
  114OSM   H17G11938   2.310   5.000   9.335  1.9367 -1.5832  3.4836
  114OSM   C18F11939   2.434   5.155   9.249 -0.0505 -0.3600  0.2537
  114OSM   H18F11940   2.377   5.128   9.157  0.4249 -4.4761  1.0488
  114OSM   H18G11941   2.532   5.103   9.246 -0.0452 -0.4597  1.7509
  114OSM   H18H11942   2.465   5.261   9.263  3.8447 -1.1382 -1.7230
  115OSM      N11943   2.879   2.989   6.043  0.0362 -0.6250  0.2074
  115OSM    C1511944   3.028   2.978   6.008  0.3063  0.5259  0.1727
  115OSM   H15A11945   3.055   3.055   5.936 -1.8306  1.9431  0.8425
  115OSM   H15B11946   3.045   2.879   5.968  0.1093  0.1100  1.1185
  115OSM   H15C11947   3.097   2.991   6.090  0.6049  2.0709 -0.3025
  115OSM    C1411948   2.857   3.112   6.112  0.4229 -0.3792  0.0936
  115OSM   H14A11949   2.903   3.193   6.057 -1.2322  0.3719 -0.2048
  115OSM   H14B11950   2.908   3.113   6.207 -1.3446 -0.0471  1.0606
  115OSM   H14C11951   2.753   3.141   6.115  1.3956  3.6746 -1.9554
  115OSM    C1311952   2.788   2.978   5.921  0.0360  0.4425 -0.1068
  115OSM   H13A11953   2.687   2.974   5.960 -0.8432  0.1465 -2.3638
  115OSM   H13B11954   2.796   2.889   5.860  0.6461  0.5391 -0.1661
  115OSM   H13C11955   2.793   3.063   5.855 -0.0067 -0.5415 -1.4097
  115OSM    C1211956   2.844   2.880   6.139 -0.4631 -0.1709 -0.6955
  115OSM   H12A11957   2.761   2.915   6.198  0.4726 -0.2739  0.7130
  115OSM   H12B11958   2.922   2.875   6.214 -1.2857 -0.5565  0.1536
  115OSM    C1111959   2.809   2.740   6.081 -0.4658  0.2692  0.4289
  115OSM   H11A11960   2.717   2.747   6.020 -0.1837 -0.3191 -0.0703
  115OSM   H11B11961   2.778   2.674   6.164 -1.1311  0.4808  0.3542
  115OSM      P11962   2.998   2.565   6.056  0.1074 -0.1391  0.6880
  115OSM    O1311963   2.911   2.448   6.062 -0.5793  0.0302 -0.2986
  115OSM    O1411964   3.123   2.539   5.979  0.6505  0.4040 -0.2678
  115OSM    O1111965   3.042   2.615   6.203 -0.3047 -0.0499 -0.0287
  115OSM    O1211966   2.917   2.684   6.001  0.2272  0.4081  0.3361
  115OSM    C1S11967   3.159   2.699   6.219 -0.1154 -0.3791 -0.1054
  115OSM    H1S11968   3.147   2.798   6.171  1.7228 -0.0124  0.1321
  115OSM    H1T11969   3.252   2.657   6.174 -0.5080 -2.1498  0.6927
  115OSM     NF11970   3.283   2.830   6.377  0.0354  0.6229 -0.4529
  115OSM    HNF11971   3.377   2.796   6.375 -0.4991 -0.8895 -0.6550
  115OSM    C2S11972   3.177   2.733   6.365  0.2596  0.1602  0.0497
  115OSM    H2S11973   3.079   2.770   6.402  0.3470 -0.0731  0.5086
  115OSM    C3S11974   3.198   2.602   6.441 -0.2627 -0.1391  0.0057
  115OSM    H3S11975   3.268   2.534   6.387 -0.8230  0.1502 -1.1062
  115OSM     O311976   3.081   2.522   6.452  0.8158 -0.5024 -0.3402
  115OSM    HO311977   3.012   2.564   6.399  0.9512 -1.9976 -1.7382
  115OSM    C4S11978   3.243   2.631   6.579 -0.1416  0.3902 -0.2273
  115OSM    H4S11979   3.191   2.716   6.625 -1.7252 -1.3161  1.2694
  115OSM    C5S11980   3.355   2.593   6.639 -0.2388 -0.6697  0.3367
  115OSM    H5S11981   3.426   2.525   6.590 -0.5656 -0.5480 -0.3051
  115OSM    C6S11982   3.409   2.632   6.774 -0.1104 -0.1840 -0.0384
  115OSM    H6S11983   3.380   2.735   6.804  0.8766  0.0266  0.2017
  115OSM    H6T11984   3.519   2.626   6.785 -0.1573  0.1942  0.6822
  115OSM    C7S11985   3.329   2.547   6.872 -0.6898 -0.4418 -1.0994
  115OSM    H7S11986   3.348   2.439   6.854 -0.3184 -0.8432  1.5001
  115OSM    H7T11987   3.220   2.567   6.860 -0.2721  1.7904 -1.3697
  115OSM    C8S11988   3.372   2.563   7.016 -0.3667  0.5755  0.3031
  115OSM    H8S11989   3.358   2.669   7.045  1.8265  0.6674  1.1405
  115OSM    H8T11990   3.479   2.537   7.027 -0.2931  0.1286 -1.3787
  115OSM    C9S11991   3.297   2.467   7.112  1.0224 -0.7267 -0.3720
  115OSM    H9S11992   3.317   2.358   7.102 -2.1352 -1.4849  0.8974
  115OSM    H9T11993   3.190   2.490   7.095  0.7117 -0.9182  1.3038
  115OSM   C10S11994   3.326   2.501   7.261  0.9869  1.1988  0.0666
  115OSM   H10S11995   3.433   2.515   7.285  1.3091  0.8104 -1.1155
  115OSM   H10T11996   3.294   2.411   7.318 -0.0901 -1.0107 -3.8612
  115OSM   C11S11997   3.235   2.621   7.305  0.4120 -0.3958 -0.0201
  115OSM   H11S11998   3.130   2.586   7.296  0.5355 -0.8894  0.4913
  115OSM   H11T11999   3.264   2.705   7.238  1.2124 -1.1253 -0.5979
  115OSM   C12S12000   3.264   2.661   7.448  0.1309  0.0664  0.6194
  115OSM   H12S12001   3.364   2.711   7.448  0.2395 -0.1426 -0.0955
  115OSM   H12T12002   3.277   2.570   7.509  1.1455  0.1070  0.4850
  115OSM   C13S12003   3.160   2.760   7.501 -0.5162  0.0592 -0.2812
  115OSM   H13S12004   3.062   2.712   7.481  0.1185 -2.3383  2.1106
  115OSM   H13T12005   3.163   2.858   7.449 -1.8437  0.0895 -0.3131
  115OSM   C14S12006   3.180   2.795   7.649 -0.1947  0.4051  0.2519
  115OSM   H14S12007   3.115   2.876   7.687 -1.8801 -0.1837 -1.2995
  115OSM   H14T12008   3.285   2.827   7.668  0.4856 -2.2018  1.0253
  115OSM   C15S12009   3.159   2.684   7.746 -0.3447  0.7117 -0.8770
  115OSM   H15S12010   3.226   2.605   7.705 -0.6085 -0.7143  1.3781
  115OSM   H15T12011   3.056   2.643   7.741  0.0326 -0.4659  0.7765
  115OSM   C16S12012   3.193   2.734   7.884  0.2474 -0.6537 -0.9094
  115OSM   H16S12013   3.143   2.829   7.912  1.4060  0.1691 -1.6190
  115OSM   H16T12014   3.303   2.747   7.891  0.1158  0.7371 -1.2227
  115OSM   C17S12015   3.162   2.630   7.994  0.2398 -0.0620  0.8917
  115OSM   H17S12016   3.218   2.535   7.983 -3.0252 -1.9986  0.3526
  115OSM   H17T12017   3.057   2.600   7.972  0.9208 -3.0638  1.5935
  115OSM   C18S12018   3.167   2.702   8.127  0.2741  0.3034  0.4426
  115OSM   H18S12019   3.181   2.627   8.208 -2.8815 -1.7362 -0.8034
  115OSM   H18T12020   3.072   2.758   8.143  1.1113  2.2099 -1.1293
  115OSM   H18U12021   3.255   2.768   8.133  2.8866 -2.8513 -1.4965
  115OSM    C1F12022   3.261   2.957   6.341 -0.0952  0.2109  0.1555
  115OSM     OF12023   3.151   2.992   6.301  0.4745 -0.1622  0.0727
  115OSM    C2F12024   3.368   3.053   6.352 -0.0930 -0.7586 -0.7046
  115OSM    H2F12025   3.352   3.119   6.265  0.1685 -1.4990 -1.3190
  115OSM    H2G12026   3.466   3.000   6.346  0.5460 -0.0467  2.3484
  115OSM    C3F12027   3.360   3.135   6.480 -0.3925  0.0010  0.0465
  115OSM    H3F12028   3.252   3.158   6.497 -0.4748  0.5347 -1.1889
  115OSM    H3G12029   3.411   3.231   6.460 -0.0866 -0.5769 -1.9997
  115OSM    C4F12030   3.408   3.070   6.606 -0.2722 -0.7886  0.1039
  115OSM    H4F12031   3.352   2.975   6.619 -0.2727 -0.9799 -1.1937
  115OSM    H4G12032   3.378   3.145   6.683 -1.8316 -2.2330  0.9307
  115OSM    C5F12033   3.563   3.038   6.624 -0.7603 -0.1048  0.4173
  115OSM    H5F12034   3.624   3.124   6.591  0.3721 -1.5438 -1.3053
  115OSM    H5G12035   3.581   2.953   6.554  0.7611  0.6377 -0.1165
  115OSM    C6F12036   3.598   2.987   6.765  0.2748  0.6251 -0.3181
  115OSM    H6F12037   3.526   2.903   6.771 -0.5675  1.3229 -0.5317
  115OSM    H6G12038   3.577   3.073   6.832  1.6619 -0.0097  0.9708
  115OSM    C7F12039   3.743   2.934   6.795 -0.3352  0.2462  0.2176
  115OSM    H7F12040   3.827   3.003   6.771 -1.2038  0.9242 -0.9302
  115OSM    H7G12041   3.752   2.842   6.733  1.7571  0.1717  0.5733
  115OSM    C8F12042   3.773   2.903   6.942 -0.1605  0.3563  0.5681
  115OSM    H8F12043   3.767   3.000   6.996  0.3032  1.0075 -0.5427
  115OSM    H8G12044   3.876   2.868   6.960  0.1885  1.1718  0.1888
  115OSM    C9F12045   3.671   2.800   6.991 -0.6804  0.5056 -0.4398
  115OSM    H9F12046   3.652   2.720   6.919 -0.9759 -0.0566  0.2557
  115OSM   C10F12047   3.606   2.798   7.115 -0.0264 -0.1338 -0.1243
  115OSM   H10F12048   3.550   2.707   7.138  1.0963 -0.9932 -0.7808
  115OSM   C11F12049   3.620   2.901   7.232 -0.2369 -0.3152 -0.3618
  115OSM   H11F12050   3.525   2.951   7.262 -0.3294  0.5044 -1.9475
  115OSM   H11G12051   3.702   2.973   7.211 -1.6015  0.9869 -1.3516
  115OSM   C12F12052   3.652   2.822   7.363 -0.3347  0.4436  0.5381
  115OSM   H12F12053   3.739   2.754   7.353  0.0240  1.1721 -1.5336
  115OSM   H12G12054   3.564   2.756   7.379 -1.2657  1.7146  0.7301
  115OSM   C13F12055   3.665   2.914   7.479  0.4508  0.2130 -0.4007
  115OSM   H13F12056   3.576   2.978   7.498  0.3585  0.2315 -0.8840
  115OSM   H13G12057   3.755   2.976   7.459 -0.0982  1.0337 -0.3806
  115OSM   C14F12058   3.699   2.852   7.613  0.1828  0.3184  0.8757
  115OSM   H14F12059   3.774   2.770   7.616 -2.1422 -1.8152  2.3605
  115OSM   H14G12060   3.611   2.800   7.658  1.8338 -0.3576  3.4222
  115OSM   C15F12061   3.738   2.959   7.711  0.5057  0.4328  0.3069
  115OSM   H15F12062   3.657   3.035   7.712  0.0123 -0.0867  1.5850
  115OSM   H15G12063   3.836   3.007   7.693  0.1873  0.3587 -1.7093
  115OSM   C16F12064   3.739   2.909   7.854  0.2219 -0.2458 -0.2332
  115OSM   H16F12065   3.817   2.832   7.871  0.8098 -0.0630 -1.9393
  115OSM   H16G12066   3.645   2.851   7.865 -0.6532  1.2670  0.4900
  115OSM   C17F12067   3.755   3.020   7.960 -0.0856 -0.1626  0.0717
  115OSM   H17F12068   3.673   3.095   7.954 -0.3635 -0.5160 -0.5317
  115OSM   H17G12069   3.847   3.073   7.927 -0.5901 -1.1918 -3.1150
  115OSM   C18F12070   3.772   2.959   8.099  0.3983 -0.3572 -0.8279
  115OSM   H18F12071   3.697   2.878   8.105  1.7401 -1.4302  2.7659
  115OSM   H18G12072   3.751   3.031   8.181  0.0858 -0.4732 -0.8051
  115OSM   H18H12073   3.866   2.901   8.114 -0.5972 -1.6236  0.5883
  116OSM      N12074   2.351   0.388   6.344 -0.2325 -0.0564  0.4451
  116OSM    C1512075   2.241   0.462   6.278  0.3336 -0.0936 -0.7211
  116OSM   H15A12076   2.267   0.556   6.232  3.0660  0.0546  1.0167
  116OSM   H15B12077   2.164   0.494   6.348 -0.2909 -1.9456 -0.5360
  116OSM   H15C12078   2.182   0.394   6.218 -0.1872 -1.0186  0.8133
  116OSM    C1412079   2.441   0.324   6.241 -0.0389 -0.3380 -0.0508
  116OSM   H14A12080   2.472   0.399   6.170  0.0287 -0.1401  0.1870
  116OSM   H14B12081   2.380   0.253   6.186  0.2890 -1.1734  0.6492
  116OSM   H14C12082   2.521   0.266   6.284  0.2051  0.2595  0.3034
  116OSM    C1312083   2.429   0.480   6.433  0.2949  0.4045  0.7114
  116OSM   H13A12084   2.493   0.548   6.379  0.7013 -1.4504 -1.2061
  116OSM   H13B12085   2.493   0.424   6.500 -1.6148 -1.6171  0.8761
  116OSM   H13C12086   2.361   0.521   6.506 -1.6578 -2.3559  0.5109
  116OSM    C1212087   2.300   0.291   6.445  0.3356  0.1151  0.4542
  116OSM   H12A12088   2.250   0.349   6.522 -1.1102 -0.3343 -0.1321
  116OSM   H12B12089   2.387   0.238   6.480  0.3259 -0.8836 -0.9955
  116OSM    C1112090   2.202   0.181   6.389  0.0313 -0.3290 -0.3259
  116OSM   H11A12091   2.125   0.234   6.329 -0.9302 -0.9339  0.3483
  116OSM   H11B12092   2.164   0.119   6.473  0.7238 -1.9624 -1.2021
  116OSM      P12093   2.364  -0.023   6.344 -0.2467  0.0691 -0.0790
  116OSM    O1312094   2.306  -0.152   6.297  0.6284  0.4911  0.3764
  116OSM    O1412095   2.492   0.007   6.278 -0.5358 -0.7805 -0.5831
  116OSM    O1112096   2.373  -0.014   6.498 -0.0119  0.6881 -0.5254
  116OSM    O1212097   2.266   0.086   6.300  0.0930 -0.6386  0.4165
  116OSM    C1S12098   2.455  -0.077   6.592  0.0218  0.2366 -0.7662
  116OSM    H1S12099   2.552  -0.108   6.548  1.5452  0.6929  2.1792
  116OSM    H1T12100   2.402  -0.173   6.606  0.7318 -0.1674 -0.8473
  116OSM     NF12101   2.568  -0.048   6.807 -0.0269  0.3798  0.0131
  116OSM    HNF12102   2.536  -0.102   6.884  2.2425  0.3123  0.9561
  116OSM    C2S12103   2.456   0.003   6.728 -0.4773  0.4828 -0.4173
  116OSM    H2S12104   2.472   0.107   6.694  0.3355  0.5370  0.1344
  116OSM    C3S12105   2.320  -0.006   6.804 -0.5402 -0.9755  0.1832
  116OSM    H3S12106   2.306  -0.112   6.834 -0.8310 -1.6049 -2.0644
  116OSM     O312107   2.212   0.022   6.716 -0.8454  0.3475  0.1084
  116OSM    HO312108   2.246  -0.008   6.631 -1.0178  0.7991 -0.1196
  116OSM    C4S12109   2.319   0.083   6.922 -0.5999 -1.4711  0.4338
  116OSM    H4S12110   2.378   0.048   7.008 -1.1290 -1.2688  0.8824
  116OSM    C5S12111   2.248   0.195   6.945  0.5400  0.5002  0.0296
  116OSM    H5S12112   2.177   0.234   6.869 -0.5439  1.5084  1.5287
  116OSM    C6S12113   2.236   0.264   7.072  1.3556  0.1229 -0.0523
  116OSM    H6S12114   2.131   0.300   7.078  0.3225 -2.0998 -3.4798
  116OSM    H6T12115   2.303   0.353   7.064  1.0143  0.3322 -0.6184
  116OSM    C7S12116   2.281   0.189   7.200 -0.1670  0.2991 -0.9205
  116OSM    H7S12117   2.388   0.159   7.191 -0.6397 -2.0760  0.6917
  116OSM    H7T12118   2.220   0.097   7.216  1.4925 -0.4436  1.5272
  116OSM    C8S12119   2.274   0.276   7.331  0.2796 -0.4898  0.1772
  116OSM    H8S12120   2.181   0.333   7.351  0.3026 -0.5818  0.5509
  116OSM    H8T12121   2.357   0.350   7.329  0.3529 -0.5908 -1.4838
  116OSM    C9S12122   2.297   0.179   7.452 -0.4644  0.4369 -0.1507
  116OSM    H9S12123   2.390   0.122   7.431 -1.0501  0.1287 -1.9945
  116OSM    H9T12124   2.209   0.112   7.457 -1.0926  1.1982 -0.6997
  116OSM   C10S12125   2.312   0.245   7.588 -0.3997  0.3010 -0.3911
  116OSM   H10S12126   2.212   0.276   7.626 -1.5422 -1.7778 -1.5659
  116OSM   H10T12127   2.376   0.336   7.584  0.2493 -0.1654 -0.6095
  116OSM   C11S12128   2.376   0.142   7.686 -0.0141  0.1131 -0.0563
  116OSM   H11S12129   2.455   0.085   7.632  2.3457  2.1174  1.1437
  116OSM   H11T12130   2.295   0.077   7.725 -0.6230  0.1337 -1.2853
  116OSM   C12S12131   2.416   0.216   7.812  0.2790  0.0868 -0.3244
  116OSM   H12S12132   2.340   0.295   7.831 -2.0311 -1.9488 -0.7941
  116OSM   H12T12133   2.508   0.273   7.788  0.9993 -0.4731  1.0625
  116OSM   C13S12134   2.432   0.136   7.942  0.5683  0.3106  0.1158
  116OSM   H13S12135   2.505   0.055   7.919  0.0545 -0.8391  2.3353
  116OSM   H13T12136   2.334   0.105   7.983  0.5473  1.9029  1.3221
  116OSM   C14S12137   2.489   0.207   8.061  0.2526  0.9044 -0.5202
  116OSM   H14S12138   2.425   0.293   8.089 -0.2067  0.4128 -0.0407
  116OSM   H14T12139   2.590   0.250   8.044  1.4465 -2.0334 -1.0504
  116OSM   C15S12140   2.492   0.120   8.182 -0.7450 -0.4508  0.3388
  116OSM   H15S12141   2.532   0.020   8.153  2.8309  1.2850 -1.0473
  116OSM   H15T12142   2.387   0.115   8.216 -1.8016  1.9186 -2.3656
  116OSM   C16S12143   2.571   0.187   8.297 -0.0695 -0.4059 -0.7731
  116OSM   H16S12144   2.537   0.283   8.343  2.3829 -0.3909  1.1123
  116OSM   H16T12145   2.669   0.220   8.256 -0.3621 -0.5823 -1.6249
  116OSM   C17S12146   2.585   0.090   8.416  0.6967  0.0726 -0.4720
  116OSM   H17S12147   2.606  -0.013   8.378  0.3239  0.1497 -0.8785
  116OSM   H17T12148   2.487   0.089   8.468  0.3999 -1.8766 -1.0289
  116OSM   C18S12149   2.685   0.137   8.529 -0.5126 -0.2388  0.5677
  116OSM   H18S12150   2.792   0.130   8.498 -0.9087  3.1560 -1.8304
  116OSM   H18T12151   2.675   0.061   8.610 -0.8816 -0.1005  0.6518
  116OSM   H18U12152   2.661   0.243   8.551 -3.3812 -0.7708  0.1886
  116OSM    C1F12153   2.697  -0.022   6.785  0.0802 -0.6727  0.3597
  116OSM     OF12154   2.731   0.067   6.706 -0.2322  0.2815  0.3904
  116OSM    C2F12155   2.795  -0.097   6.874 -0.3872 -0.0986 -0.1408
  116OSM    H2F12156   2.782  -0.205   6.852 -3.0491  0.5130 -1.8151
  116OSM    H2G12157   2.787  -0.081   6.984  2.1326  0.3492  0.0043
  116OSM    C3F12158   2.937  -0.062   6.838 -0.0911  0.1683 -0.1362
  116OSM    H3F12159   2.953   0.048   6.834  1.3853 -0.0006  0.7155
  116OSM    H3G12160   2.954  -0.104   6.736 -2.3069 -0.6769 -0.1807
  116OSM    C4F12161   3.036  -0.121   6.945  0.6425 -0.2660  0.6589
  116OSM    H4F12162   3.123  -0.146   6.881  0.0770  1.5236 -0.8555
  116OSM    H4G12163   2.986  -0.216   6.977 -1.6509  0.9823  0.9063
  116OSM    C5F12164   3.072  -0.027   7.060 -0.2664  0.4123  0.3588
  116OSM    H5F12165   2.973   0.000   7.103 -0.5663 -0.6514  0.3683
  116OSM    H5G12166   3.121   0.066   7.025 -1.5989  0.6785 -0.7996
  116OSM    C6F12167   3.152  -0.104   7.168 -0.0501 -0.3995 -0.4203
  116OSM    H6F12168   3.250  -0.139   7.128 -1.8732 -3.6636 -2.3429
  116OSM    H6G12169   3.097  -0.200   7.182 -0.1560 -0.0778  1.5099
  116OSM    C7F12170   3.168  -0.022   7.296  0.5860 -0.4810  0.1120
  116OSM    H7F12171   3.071  -0.013   7.350 -0.5678  0.5845 -2.0937
  116OSM    H7G12172   3.192   0.083   7.269 -0.9919 -0.6973 -2.1990
  116OSM    C8F12173   3.281  -0.073   7.389  0.1054  0.3054  0.1748
  116OSM    H8F12174   3.293  -0.006   7.477 -0.6276 -1.7189  1.8689
  116OSM    H8G12175   3.375  -0.087   7.332 -1.4809 -2.9013 -1.7871
  116OSM    C9F12176   3.239  -0.208   7.434 -0.4652 -0.6663  0.2280
  116OSM    H9F12177   3.218  -0.278   7.351 -0.7139  1.2316 -1.3408
  116OSM   C10F12178   3.246  -0.265   7.552  0.6273  0.7033 -0.1707
  116OSM   H10F12179   3.225  -0.372   7.564  0.5912  0.6786 -0.4443
  116OSM   C11F12180   3.291  -0.199   7.682 -0.0722  0.3146 -0.5167
  116OSM   H11F12181   3.365  -0.117   7.673  0.1080  0.1139 -0.8317
  116OSM   H11G12182   3.333  -0.282   7.742 -2.6597 -0.1838  0.7098
  116OSM   C12F12183   3.173  -0.143   7.762 -0.5346  0.2725 -0.0021
  116OSM   H12F12184   3.127  -0.233   7.808 -0.3536 -0.7050 -1.7155
  116OSM   H12G12185   3.098  -0.087   7.703 -1.7757 -1.1213  0.2523
  116OSM   C13F12186   3.221  -0.056   7.881 -0.5750 -0.3578  0.4008
  116OSM   H13F12187   3.143   0.013   7.919  0.5609  0.5072  1.2212
  116OSM   H13G12188   3.296   0.010   7.832 -1.3805  1.2573  1.2900
  116OSM   C14F12189   3.292  -0.141   7.987 -0.5452  0.6523  0.6991
  116OSM   H14F12190   3.331  -0.080   8.071 -0.0426  1.5760 -0.1917
  116OSM   H14G12191   3.378  -0.187   7.934 -1.9762 -0.2954 -0.8657
  116OSM   C15F12192   3.208  -0.248   8.064 -0.0288  0.7739  0.1232
  116OSM   H15F12193   3.165  -0.327   7.999 -2.0760  0.7259  1.4870
  116OSM   H15G12194   3.135  -0.186   8.121  0.6353  2.0900 -0.4520
  116OSM   C16F12195   3.280  -0.321   8.181  0.5204 -0.4246  0.0977
  116OSM   H16F12196   3.203  -0.370   8.244  0.2701 -0.6608 -0.3875
  116OSM   H16G12197   3.327  -0.241   8.242 -0.8597  0.5099 -0.0314
  116OSM   C17F12198   3.385  -0.425   8.142  0.2616 -0.0328  0.2927
  116OSM   H17F12199   3.462  -0.377   8.078  3.9371 -1.9572  3.0551
  116OSM   H17G12200   3.337  -0.491   8.067 -1.9661  1.5186  0.3110
  116OSM   C18F12201   3.443  -0.491   8.265 -0.2449 -0.1807  0.5426
  116OSM   H18F12202   3.486  -0.415   8.333 -2.8754  0.8907  1.0593
  116OSM   H18G12203   3.518  -0.570   8.244  1.2065  0.9010  1.6229
  116OSM   H18H12204   3.354  -0.544   8.305 -0.3668  0.0309  0.5532
  117OSM      N12205   1.190   1.571   5.824  0.0921  0.8328 -0.3476
  117OSM    C1512206   1.178   1.478   5.709  0.3359  0.3938  0.1399
  117OSM   H15A12207   1.154   1.377   5.741  1.4805  0.5899  1.6486
  117OSM   H15B12208   1.272   1.480   5.655  0.9679 -0.8979  1.1585
  117OSM   H15C12209   1.092   1.493   5.645 -0.8194 -0.2605  1.5108
  117OSM    C1412210   1.309   1.522   5.898 -0.0548 -1.2825  0.1677
  117OSM   H14A12211   1.393   1.522   5.830 -0.4955  2.2814 -0.5055
  117OSM   H14B12212   1.281   1.421   5.925 -1.2305 -1.0574 -0.1819
  117OSM   H14C12213   1.325   1.578   5.989  0.1275  0.0097 -0.6391
  117OSM    C1312214   1.217   1.712   5.770  0.1268 -0.6511  0.6405
  117OSM   H13A12215   1.294   1.718   5.693  0.7415  7.2042  1.4223
  117OSM   H13B12216   1.254   1.783   5.842  0.3013  0.8893 -0.9263
  117OSM   H13C12217   1.132   1.744   5.712  0.6653 -1.3630 -0.5751
  117OSM    C1212218   1.069   1.567   5.911 -0.7582 -1.0235  0.0256
  117OSM   H12A12219   1.076   1.483   5.978 -0.0860  0.7711  2.2926
  117OSM   H12B12220   0.980   1.562   5.851 -1.9665 -0.5981  1.7268
  117OSM    C1112221   1.049   1.690   6.005 -0.0809 -0.0064 -0.8719
  117OSM   H11A12222   0.949   1.683   6.051 -1.0481 -2.0545 -3.1700
  117OSM   H11B12223   1.042   1.783   5.945  4.0735  1.5884  0.9025
  117OSM      P12224   1.146   1.803   6.216  0.5115  0.3710 -0.2111
  117OSM    O1312225   1.259   1.784   6.310 -0.0175 -0.1810  0.2814
  117OSM    O1412226   1.133   1.936   6.150  0.4452 -0.3793 -0.1242
  117OSM    O1112227   1.011   1.771   6.289  0.0850  1.3355  0.1451
  117OSM    O1212228   1.154   1.693   6.104 -0.2965  0.0638  0.1357
  117OSM    C1S12229   1.006   1.655   6.372 -0.3924  0.3731  1.0488
  117OSM    H1S12230   1.070   1.569   6.341  1.1771  2.2862 -1.1354
  117OSM    H1T12231   0.907   1.605   6.371 -0.1674 -0.2718  4.3460
  117OSM     NF12232   1.022   1.545   6.586  0.1442  0.6146 -1.1255
  117OSM    HNF12233   0.933   1.503   6.602  0.5873 -0.3489 -1.1463
  117OSM    C2S12234   1.025   1.682   6.528 -0.0107 -0.5870  0.3602
  117OSM    H2S12235   1.124   1.728   6.548 -0.2555  0.4015 -0.6507
  117OSM    C3S12236   0.916   1.774   6.587  0.8237  0.7270 -0.5654
  117OSM    H3S12237   0.819   1.721   6.571 -0.6623  2.6903  1.6022
  117OSM     O312238   0.906   1.904   6.521 -0.1031 -0.3349  0.2852
  117OSM    HO312239   0.938   1.878   6.434  1.4943 -1.9443  1.3301
  117OSM    C4S12240   0.934   1.788   6.736 -0.4727  0.0633  0.1964
  117OSM    H4S12241   0.880   1.708   6.788 -0.2053 -1.1563 -1.3782
  117OSM    C5S12242   1.011   1.884   6.804  0.1839  1.2725  0.5926
  117OSM    H5S12243   1.055   1.967   6.748 -1.6917  1.0759 -1.2170
  117OSM    C6S12244   1.046   1.897   6.947  0.1794  0.8881 -0.3672
  117OSM    H6S12245   1.060   2.007   6.962 -0.2114  0.7458  1.1005
  117OSM    H6T12246   1.149   1.859   6.961  0.0200  0.9351  1.0226
  117OSM    C7S12247   0.972   1.816   7.056 -0.4943 -0.6499 -0.7852
  117OSM    H7S12248   0.983   1.708   7.031 -2.0310 -0.4411 -2.5417
  117OSM    H7T12249   0.864   1.844   7.053 -0.4667 -0.2451  1.2760
  117OSM    C8S12250   1.013   1.863   7.202 -0.8656 -0.3654 -0.3632
  117OSM    H8S12251   0.987   1.971   7.194 -1.2838 -0.4927 -0.7467
  117OSM    H8T12252   1.118   1.827   7.200 -0.9166 -0.7638  2.2906
  117OSM    C9S12253   0.934   1.784   7.306 -0.3189  0.6426 -0.0537
  117OSM    H9S12254   0.925   1.675   7.285  0.4193  0.5641  0.0450
  117OSM    H9T12255   0.828   1.817   7.309 -0.2192  1.3306 -2.8087
  117OSM   C10S12256   0.997   1.812   7.451  0.4894  0.1063 -0.3169
  117OSM   H10S12257   0.935   1.766   7.531  0.9961  0.3117  0.1982
  117OSM   H10T12258   1.016   1.920   7.466  1.7538 -0.3402  1.5034
  117OSM   C11S12259   1.141   1.757   7.469 -0.3000  0.8213 -0.1180
  117OSM   H11S12260   1.213   1.825   7.418 -0.5739  1.4075  0.2698
  117OSM   H11T12261   1.154   1.659   7.419  2.9022  0.1079  1.9464
  117OSM   C12S12262   1.183   1.753   7.616  0.0264 -0.3519  1.0584
  117OSM   H12S12263   1.274   1.690   7.615  0.0614 -0.3788 -2.6150
  117OSM   H12T12264   1.106   1.701   7.676  1.4757 -1.8871  1.6252
  117OSM   C13S12265   1.200   1.888   7.683 -0.1816  0.4338  0.8192
  117OSM   H13S12266   1.103   1.942   7.684 -0.2464  0.4084 -1.7160
  117OSM   H13T12267   1.261   1.948   7.612  0.2235 -1.6735 -0.6642
  117OSM   C14S12268   1.259   1.886   7.825 -0.7887  0.5699  0.1309
  117OSM   H14S12269   1.293   1.990   7.847  1.4652 -0.1057 -0.0709
  117OSM   H14T12270   1.345   1.816   7.829 -1.4006 -0.2445 -0.7145
  117OSM   C15S12271   1.171   1.834   7.940  0.9956  0.4860 -0.6925
  117OSM   H15S12272   1.154   1.726   7.925  0.6220  0.3297  0.7963
  117OSM   H15T12273   1.073   1.883   7.958  0.7436 -0.3244  0.1683
  117OSM   C16S12274   1.248   1.835   8.075 -0.1207 -0.4492  0.0425
  117OSM   H16S12275   1.285   1.937   8.098 -1.7937  0.3151 -0.5237
  117OSM   H16T12276   1.340   1.774   8.063  0.1291 -0.2937  1.0549
  117OSM   C17S12277   1.162   1.782   8.197 -0.0550 -0.2420  0.5900
  117OSM   H17S12278   1.150   1.676   8.165  1.0888  0.0553 -0.9424
  117OSM   H17T12279   1.065   1.836   8.190  1.3442  2.5748  2.0772
  117OSM   C18S12280   1.234   1.792   8.325 -0.2062  0.1252 -0.8343
  117OSM   H18S12281   1.337   1.751   8.310 -0.3567 -1.0605  1.1117
  117OSM   H18T12282   1.177   1.739   8.404 -0.2086  1.0132 -0.2258
  117OSM   H18U12283   1.250   1.896   8.362 -0.3899 -0.8002  1.9696
  117OSM    C1F12284   1.115   1.453   6.579 -0.0503  0.6531  0.3276
  117OSM     OF12285   1.212   1.472   6.509 -0.1425  0.5089  0.6038
  117OSM    C2F12286   1.074   1.320   6.631 -0.1748  0.3673  0.3963
  117OSM    H2F12287   1.043   1.246   6.553 -0.0255  1.1018 -0.3642
  117OSM    H2G12288   0.982   1.333   6.692 -1.0579  1.4061 -1.1197
  117OSM    C3F12289   1.185   1.264   6.724  0.1611 -0.2328  0.1338
  117OSM    H3F12290   1.282   1.265   6.670  1.0806 -0.2971  1.7616
  117OSM    H3G12291   1.166   1.155   6.727 -0.4976 -0.2005 -1.8248
  117OSM    C4F12292   1.219   1.341   6.855  0.0377  0.0830 -0.4954
  117OSM    H4F12293   1.230   1.450   6.838  0.5922  0.0754 -0.1921
  117OSM    H4G12294   1.309   1.292   6.896  1.1256  0.9002 -1.8417
  117OSM    C5F12295   1.116   1.314   6.965 -0.0918  0.5518 -0.0008
  117OSM    H5F12296   1.120   1.205   6.988 -1.3647  0.0922 -1.8294
  117OSM    H5G12297   1.014   1.341   6.930  0.3133  1.1867 -0.7067
  117OSM    C6F12298   1.146   1.401   7.084 -0.4227  0.0288  0.5348
  117OSM    H6F12299   1.064   1.380   7.157  1.6498  2.6824  3.7251
  117OSM    H6G12300   1.138   1.505   7.046 -1.2800 -0.9276 -2.0654
  117OSM    C7F12301   1.282   1.380   7.144 -0.3979  0.4008 -0.4705
  117OSM    H7F12302   1.311   1.454   7.222 -1.7805 -0.1277  0.5609
  117OSM    H7G12303   1.365   1.396   7.072  1.1323 -0.7225  0.9947
  117OSM    C8F12304   1.308   1.246   7.219 -0.1422  0.9540  0.2931
  117OSM    H8F12305   1.408   1.254   7.267 -0.4837  0.3009  1.1351
  117OSM    H8G12306   1.304   1.167   7.141 -0.3220  2.3624 -1.1573
  117OSM    C9F12307   1.199   1.215   7.317 -0.3482 -0.3971  0.5350
  117OSM    H9F12308   1.098   1.247   7.290  0.0568  1.5474  1.2105
  117OSM   C10F12309   1.213   1.154   7.435 -0.7749  0.6302 -0.1305
  117OSM   H10F12310   1.114   1.150   7.484 -1.9199 -0.0861 -2.4108
  117OSM   C11F12311   1.339   1.114   7.509 -0.1030 -0.1395 -0.0327
  117OSM   H11F12312   1.417   1.081   7.437  0.6844  1.1238  0.2163
  117OSM   H11G12313   1.326   1.032   7.582 -0.2446 -0.6147 -0.5891
  117OSM   C12F12314   1.384   1.246   7.576 -0.2944  0.4063 -0.3441
  117OSM   H12F12315   1.306   1.273   7.650 -0.8708 -2.1108  0.0109
  117OSM   H12G12316   1.397   1.327   7.501  0.7792 -1.5764 -2.3656
  117OSM   C13F12317   1.510   1.239   7.658 -0.4988 -0.4254 -0.5208
  117OSM   H13F12318   1.598   1.226   7.591 -2.1348 -2.4360 -2.3295
  117OSM   H13G12319   1.512   1.159   7.734  1.7230 -0.8240 -0.9553
  117OSM   C14F12320   1.528   1.379   7.717 -0.2786 -0.1916 -0.8247
  117OSM   H14F12321   1.442   1.422   7.773  1.1540 -0.0196  1.3040
  117OSM   H14G12322   1.549   1.449   7.633  0.7585  0.6181  0.0767
  117OSM   C15F12323   1.660   1.382   7.794 -0.4311 -0.2067  0.4347
  117OSM   H15F12324   1.740   1.337   7.732  0.1333  0.6067  0.5793
  117OSM   H15G12325   1.650   1.321   7.886 -0.4938 -0.3812  0.3130
  117OSM   C16F12326   1.685   1.523   7.843 -0.1189 -0.0637  0.5637
  117OSM   H16F12327   1.681   1.601   7.764 -0.7937  1.5260  2.1390
  117OSM   H16G12328   1.783   1.525   7.895  0.7409 -1.9190 -0.9497
  117OSM   C17F12329   1.571   1.565   7.941 -0.1170 -0.4068  0.0255
  117OSM   H17F12330   1.481   1.590   7.881  0.3589 -0.5453 -0.7496
  117OSM   H17G12331   1.558   1.481   8.014  0.3448  0.0841  0.6825
  117OSM   C18F12332   1.604   1.687   8.036  0.2830  0.5087 -0.2178
  117OSM   H18F12333   1.605   1.779   7.974  0.7116 -0.2955 -1.4232
  117OSM   H18G12334   1.704   1.675   8.084  0.7041 -3.5546 -1.9092
  117OSM   H18H12335   1.525   1.704   8.112 -1.0682 -0.9451 -1.2562
  118OSM      N12336   3.550   4.124   5.795 -0.5478 -0.1773 -0.9193
  118OSM    C1512337   3.500   4.187   5.674 -0.1769  0.4342  0.0062
  118OSM   H15A12338   3.423   4.258   5.702 -1.0145 -0.3536 -0.2608
  118OSM   H15B12339   3.453   4.116   5.607  1.2677 -0.7887  0.2595
  118OSM   H15C12340   3.584   4.226   5.618 -0.0531  1.1965  0.7151
  118OSM    C1412341   3.435   4.060   5.864  0.2797  0.5594 -0.2905
  118OSM   H14A12342   3.356   4.132   5.880  1.2770  1.6094  0.0013
  118OSM   H14B12343   3.460   4.014   5.958 -1.5016  0.5169  0.1816
  118OSM   H14C12344   3.403   3.973   5.809  2.4594 -0.7058  0.3676
  118OSM    C1312345   3.635   4.007   5.754 -0.1285 -0.5724 -0.3341
  118OSM   H13A12346   3.685   3.960   5.837 -0.9299 -0.1103  0.4081
  118OSM   H13B12347   3.710   4.040   5.683  0.5007 -0.5486  0.3305
  118OSM   H13C12348   3.572   3.942   5.696 -1.4377 -0.6192  1.1263
  118OSM    C1212349   3.633   4.228   5.875  0.1385  0.3708 -0.2454
  118OSM   H12A12350   3.565   4.301   5.916 -2.0696 -1.6214 -0.2467
  118OSM   H12B12351   3.706   4.283   5.818  1.6812 -0.8893  0.4782
  118OSM    C1112352   3.703   4.174   6.002 -0.4882  0.0623 -0.1851
  118OSM   H11A12353   3.781   4.248   6.029  0.7240 -0.9268 -0.9054
  118OSM   H11B12354   3.757   4.078   5.983 -0.7928 -0.3914  1.1860
  118OSM      P12355   3.552   4.253   6.207 -0.5575 -0.0858 -0.0670
  118OSM    O1312356   3.567   4.388   6.148 -0.1644  0.3490  0.2980
  118OSM    O1412357   3.414   4.206   6.245  0.8404  0.0806  0.0490
  118OSM    O1112358   3.632   4.252   6.346  0.2727 -0.7100 -0.0780
  118OSM    O1212359   3.618   4.139   6.110  0.0298 -0.1668 -0.1001
  118OSM    C1S12360   3.705   4.147   6.399  0.4070  0.0466  0.1031
  118OSM    H1S12361   3.806   4.145   6.352 -0.3166  1.3096 -1.5863
  118OSM    H1T12362   3.659   4.050   6.372  0.4694  0.1273 -0.3006
  118OSM     NF12363   3.835   4.071   6.595 -0.2679  0.2846 -0.3160
  118OSM    HNF12364   3.809   3.988   6.643 -0.1702 -0.3933 -1.4359
  118OSM    C2S12365   3.727   4.155   6.556  0.0876 -0.4896  0.1829
  118OSM    H2S12366   3.766   4.257   6.578 -0.6962 -0.2144  0.3239
  118OSM    C3S12367   3.590   4.131   6.633  0.1302 -0.4655 -0.5470
  118OSM    H3S12368   3.562   4.025   6.621  3.1936 -1.0440 -3.3926
  118OSM     O312369   3.478   4.205   6.591  0.0882 -0.6255 -0.5003
  118OSM    HO312370   3.522   4.251   6.520  0.1602  1.3415  0.7839
  118OSM    C4S12371   3.624   4.162   6.780 -0.2683  0.3434  0.3849
  118OSM    H4S12372   3.660   4.068   6.825 -0.1172  0.8511  1.3321
  118OSM    C5S12373   3.601   4.276   6.849 -0.6580 -0.3278  0.1940
  118OSM    H5S12374   3.568   4.369   6.800  0.5593 -0.3134 -0.6288
  118OSM    C6S12375   3.629   4.283   6.996 -0.3618 -0.4936 -0.2310
  118OSM    H6S12376   3.548   4.331   7.056  0.1929 -0.0019  0.1357
  118OSM    H6T12377   3.716   4.350   7.017 -1.6896  1.7264 -1.6276
  118OSM    C7S12378   3.644   4.149   7.071 -0.1360 -0.6498  0.8222
  118OSM    H7S12379   3.731   4.089   7.035 -0.8171 -0.8034 -0.6277
  118OSM    H7T12380   3.553   4.089   7.051 -1.0076  1.3541 -1.4425
  118OSM    C8S12381   3.660   4.171   7.220 -0.0143  0.7239 -0.7366
  118OSM    H8S12382   3.576   4.229   7.264 -0.0230 -0.8317  1.3784
  118OSM    H8T12383   3.744   4.244   7.233  0.0384  0.3073  1.3608
  118OSM    C9S12384   3.682   4.037   7.295 -0.4189 -1.0295 -0.0030
  118OSM    H9S12385   3.770   3.986   7.251 -0.4421 -0.7024 -0.4294
  118OSM    H9T12386   3.601   3.963   7.275 -0.2644 -0.6990 -1.8699
  118OSM   C10S12387   3.693   4.058   7.447 -0.0076  0.3307  0.1246
  118OSM   H10S12388   3.681   3.961   7.500  0.9168 -0.0230 -0.3035
  118OSM   H10T12389   3.615   4.135   7.467 -1.3329 -1.3119  1.3589
  118OSM   C11S12390   3.828   4.117   7.481  0.2643 -0.0226 -0.2853
  118OSM   H11S12391   3.855   4.202   7.414  0.5558  0.8486  0.9028
  118OSM   H11T12392   3.908   4.044   7.459 -0.0959 -0.4768 -0.1037
  118OSM   C12S12393   3.833   4.166   7.630 -0.5594  0.1233 -0.2522
  118OSM   H12S12394   3.775   4.260   7.626  3.1147  2.4919 -0.4646
  118OSM   H12T12395   3.937   4.200   7.650  0.0145 -2.4053  1.1848
  118OSM   C13S12396   3.792   4.052   7.725  0.1014  0.4495 -0.1903
  118OSM   H13S12397   3.852   3.968   7.685  0.5249  0.3189  0.6912
  118OSM   H13T12398   3.683   4.036   7.716  0.0936  0.3829  0.0143
  118OSM   C14S12399   3.836   4.077   7.870 -0.3967  0.3127 -0.0320
  118OSM   H14S12400   3.938   4.123   7.874  0.3231 -1.3779  1.6636
  118OSM   H14T12401   3.844   3.979   7.921 -2.2629  0.1186 -0.0798
  118OSM   C15S12402   3.743   4.177   7.948  0.2335  0.0377 -0.2662
  118OSM   H15S12403   3.645   4.133   7.978  0.3925 -0.1729 -0.0548
  118OSM   H15T12404   3.726   4.274   7.895 -2.2249 -0.2481 -0.0643
  118OSM   C16S12405   3.798   4.211   8.090 -0.3268 -0.1814  0.3294
  118OSM   H16S12406   3.763   4.308   8.132  0.3291  0.2265 -0.0476
  118OSM   H16T12407   3.908   4.221   8.079 -0.4975  1.0599 -0.4212
  118OSM   C17S12408   3.764   4.108   8.202  0.6621  0.3163  0.1353
  118OSM   H17S12409   3.810   4.010   8.177  0.9694  0.9436 -1.8153
  118OSM   H17T12410   3.655   4.096   8.221  0.7676  0.7864  1.0765
  118OSM   C18S12411   3.836   4.159   8.334 -0.1952  0.1188  0.2501
  118OSM   H18S12412   3.945   4.178   8.320 -0.0607 -1.1254 -0.5430
  118OSM   H18T12413   3.826   4.078   8.410  2.6069  0.6844  1.2730
  118OSM   H18U12414   3.792   4.255   8.368 -1.0611 -0.8116  1.7754
  118OSM    C1F12415   3.969   4.099   6.556 -1.0575  0.5479 -1.2453
  118OSM     OF12416   3.996   4.210   6.511 -0.2601 -0.6669  0.0122
  118OSM    C2F12417   4.075   3.994   6.568 -0.0776  0.5771 -0.1258
  118OSM    H2F12418   4.161   4.022   6.503  0.0055 -1.2416 -0.8452
  118OSM    H2G12419   4.030   3.901   6.525  1.8655  0.6747 -2.5371
  118OSM    C3F12420   4.120   4.000   6.717  0.6896  0.4356 -0.8649
  118OSM    H3F12421   4.185   3.912   6.737 -0.0310  0.1353  0.2240
  118OSM    H3G12422   4.037   4.003   6.792 -1.5453 -1.1920 -3.1907
  118OSM    C4F12423   4.202   4.131   6.744  0.3321  0.2519  0.1152
  118OSM    H4F12424   4.142   4.223   6.728  0.0504  0.3987  1.8185
  118OSM    H4G12425   4.283   4.146   6.671  2.0236  0.2651  1.9482
  118OSM    C5F12426   4.252   4.151   6.884 -0.5976 -0.5750 -0.0700
  118OSM    H5F12427   4.162   4.170   6.945 -0.6555 -2.0477  0.3148
  118OSM    H5G12428   4.301   4.251   6.888 -1.1675 -0.1667 -2.4528
  118OSM    C6F12429   4.335   4.037   6.950  0.9686  0.3451 -0.4163
  118OSM    H6F12430   4.421   4.014   6.883  0.0347 -0.3118 -1.4065
  118OSM    H6G12431   4.278   3.942   6.952  0.1072  0.7871 -2.3127
  118OSM    C7F12432   4.386   4.069   7.095 -0.1914 -0.2771  0.4165
  118OSM    H7F12433   4.314   4.032   7.172 -0.6010  0.9925  0.6507
  118OSM    H7G12434   4.376   4.179   7.098 -0.6685 -0.3149  0.1802
  118OSM    C8F12435   4.532   4.029   7.105  0.3131  0.9307 -0.0171
  118OSM    H8F12436   4.580   4.107   7.168  1.7664 -0.4001  0.5646
  118OSM    H8G12437   4.580   4.040   7.005  0.0300  3.6603  0.1065
  118OSM    C9F12438   4.542   3.887   7.160 -0.7735  0.4085  0.4201
  118OSM    H9F12439   4.501   3.815   7.087  0.5879  1.9525 -1.9224
  118OSM   C10F12440   4.589   3.851   7.275  0.1350  0.5755 -0.7213
  118OSM   H10F12441   4.597   3.747   7.309  0.7176  0.1383 -2.1507
  118OSM   C11F12442   4.638   3.940   7.383 -0.7053  0.0373  0.3771
  118OSM   H11F12443   4.629   4.048   7.360  1.4881 -0.1529 -1.5657
  118OSM   H11G12444   4.748   3.929   7.399 -0.6854 -0.5018 -0.1327
  118OSM   C12F12445   4.579   3.902   7.523  0.1613  0.4136 -0.4859
  118OSM   H12F12446   4.535   3.800   7.518  0.4497  0.3645 -2.5112
  118OSM   H12G12447   4.495   3.971   7.546 -0.4698  0.7524 -3.5441
  118OSM   C13F12448   4.679   3.906   7.638 -0.1085 -0.3659 -0.0943
  118OSM   H13F12449   4.734   4.003   7.650  2.6977 -2.1171  2.0077
  118OSM   H13G12450   4.756   3.828   7.622 -1.8469 -1.4267 -3.7906
  118OSM   C14F12451   4.605   3.887   7.775 -0.3507  0.0749 -0.3380
  118OSM   H14F12452   4.561   3.786   7.763  2.2091 -1.1598  0.3589
  118OSM   H14G12453   4.527   3.966   7.773  0.7516  1.2599  1.8980
  118OSM   C15F12454   4.709   3.916   7.886  0.1018 -0.5499  0.2926
  118OSM   H15F12455   4.764   4.006   7.848 -1.2396 -0.5875 -1.8152
  118OSM   H15G12456   4.777   3.828   7.887  0.6156 -0.1552  0.5528
  118OSM   C16F12457   4.646   3.927   8.028 -0.6367 -0.7687 -0.6906
  118OSM   H16F12458   4.562   3.997   8.007  0.9642  1.7005  0.8245
  118OSM   H16G12459   4.719   3.969   8.101 -0.7642  0.7549 -1.4120
  118OSM   C17F12460   4.589   3.806   8.091 -0.2565 -0.4706  1.1877
  118OSM   H17F12461   4.490   3.774   8.053 -0.3096 -4.5995  4.3421
  118OSM   H17G12462   4.572   3.811   8.201  2.5087 -2.6532  1.7781
  118OSM   C18F12463   4.685   3.684   8.073  0.6271 -0.0160 -0.2956
  118OSM   H18F12464   4.639   3.610   8.141 -0.3651  0.2399 -0.6749
  118OSM   H18G12465   4.782   3.704   8.122 -0.4415  0.3198  1.7431
  118OSM   H18H12466   4.698   3.636   7.974 -2.6342 -0.7460 -0.4523
  119OSM      N12467   4.179   2.559   5.848 -0.1115  0.2212 -0.7401
  119OSM    C1512468   4.279   2.507   5.751 -0.5636  0.0586  0.4642
  119OSM   H15A12469   4.255   2.417   5.698 -2.6815  0.9096 -0.0726
  119OSM   H15B12470   4.371   2.490   5.806 -1.6468 -0.5660  2.1449
  119OSM   H15C12471   4.305   2.583   5.678  1.2614  1.3484  2.3647
  119OSM    C1412472   4.064   2.625   5.766 -0.1828 -0.1543  0.5282
  119OSM   H14A12473   3.995   2.673   5.834 -0.5876  0.4695 -0.3048
  119OSM   H14B12474   4.029   2.558   5.689 -0.4260  0.8444 -0.2440
  119OSM   H14C12475   4.107   2.710   5.713 -1.4269  0.4947  0.5442
  119OSM    C1312476   4.121   2.446   5.932 -0.0030 -0.0061  0.0416
  119OSM   H13A12477   4.203   2.399   5.985  0.9233  1.2377 -0.2744
  119OSM   H13B12478   4.092   2.358   5.877 -1.9528  0.0356  0.9502
  119OSM   H13C12479   4.043   2.480   5.999  1.1667 -1.9328  2.4769
  119OSM    C1212480   4.236   2.667   5.941 -0.0812  0.0305  0.0672
  119OSM   H12A12481   4.166   2.716   6.007 -0.4980 -0.9175  0.3336
  119OSM   H12B12482   4.271   2.738   5.867  0.6823 -1.3694 -0.9395
  119OSM    C1112483   4.358   2.632   6.026 -0.0832 -0.0838  0.0720
  119OSM   H11A12484   4.340   2.539   6.085  1.1656  0.6917  1.7292
  119OSM   H11B12485   4.378   2.707   6.105 -0.1732  1.8942 -1.7423
  119OSM      P12486   4.549   2.754   5.901  0.0369  0.3736 -0.3682
  119OSM    O1312487   4.657   2.726   5.797  1.0023  1.2108 -0.3609
  119OSM    O1412488   4.444   2.848   5.870  0.4122  0.1067 -0.0948
  119OSM    O1112489   4.620   2.812   6.034 -0.4601 -0.4366 -0.4359
  119OSM    O1212490   4.481   2.623   5.947 -0.5023  0.0574 -0.2094
  119OSM    C1S12491   4.686   2.722   6.119  0.0058  0.0197  0.2013
  119OSM    H1S12492   4.778   2.686   6.069 -0.8299 -1.5968 -0.2229
  119OSM    H1T12493   4.629   2.630   6.147 -0.4053  0.2025 -0.0285
  119OSM     NF12494   4.810   2.694   6.328 -0.4556  0.1413  0.9207
  119OSM    HNF12495   4.763   2.631   6.390 -2.2359 -0.9701 -1.4762
  119OSM    C2S12496   4.729   2.788   6.251 -0.6613 -0.6015  0.4693
  119OSM    H2S12497   4.793   2.875   6.225 -1.5665 -0.4237 -1.2471
  119OSM    C3S12498   4.607   2.841   6.330  0.4485  0.2475  0.5522
  119OSM    H3S12499   4.569   2.746   6.372  0.7114  0.2648  0.8333
  119OSM     O312500   4.500   2.907   6.261  0.0060 -1.0074  0.4720
  119OSM    HO312501   4.507   2.883   6.168 -1.1680  1.8911 -0.4218
  119OSM    C4S12502   4.657   2.927   6.441 -0.3963  0.4371 -0.1385
  119OSM    H4S12503   4.684   2.861   6.524 -2.3119 -0.1570  0.0484
  119OSM    C5S12504   4.674   3.061   6.442  0.3405 -0.3181 -0.6508
  119OSM    H5S12505   4.653   3.135   6.363 -0.0383 -0.6995 -0.9062
  119OSM    C6S12506   4.728   3.124   6.569 -0.3315 -0.2493 -0.1568
  119OSM    H6S12507   4.651   3.201   6.588 -0.5925 -0.4804 -0.2693
  119OSM    H6T12508   4.828   3.170   6.552 -0.7418  0.6349 -0.1675
  119OSM    C7S12509   4.740   3.042   6.702 -0.3152  0.0447  0.5581
  119OSM    H7S12510   4.802   2.953   6.678  1.2080  0.9488  1.1016
  119OSM    H7T12511   4.644   2.997   6.736 -0.7235 -0.0669 -0.6979
  119OSM    C8S12512   4.803   3.118   6.817  0.0064 -0.6634  0.3284
  119OSM    H8S12513   4.907   3.140   6.788 -0.1003 -1.0992 -0.3868
  119OSM    H8T12514   4.800   3.041   6.898 -0.3924  0.2372  1.1823
  119OSM    C9S12515   4.731   3.247   6.868 -0.2327 -0.0289 -0.6078
  119OSM    H9S12516   4.636   3.200   6.901 -0.5531  0.9950 -0.0601
  119OSM    H9T12517   4.709   3.319   6.786 -2.8113  0.5856  0.5864
  119OSM   C10S12518   4.796   3.325   6.985 -0.2488  0.8833  0.0591
  119OSM   H10S12519   4.892   3.367   6.948 -1.0218  1.1651 -1.6511
  119OSM   H10T12520   4.820   3.258   7.070  0.2938  3.5618  2.1070
  119OSM   C11S12521   4.708   3.429   7.047 -0.3676 -0.0574  0.3160
  119OSM   H11S12522   4.659   3.487   6.966  0.2400 -0.3161 -0.2323
  119OSM   H11T12523   4.756   3.504   7.114  1.7495  0.6711 -1.9741
  119OSM   C12S12524   4.602   3.364   7.139  0.5151  0.2111 -0.4131
  119OSM   H12S12525   4.648   3.288   7.205 -1.8583 -3.1723 -2.4920
  119OSM   H12T12526   4.535   3.310   7.069 -1.1982  1.3849  0.2778
  119OSM   C13S12527   4.538   3.472   7.221  0.0551 -1.0780  0.1839
  119OSM   H13S12528   4.513   3.558   7.155 -1.5991 -1.2175  0.5984
  119OSM   H13T12529   4.604   3.515   7.299 -0.2499  0.3945 -0.3348
  119OSM   C14S12530   4.408   3.426   7.285 -0.8466 -0.4123  0.2518
  119OSM   H14S12531   4.413   3.317   7.305  1.5178 -0.2927  0.5198
  119OSM   H14T12532   4.325   3.430   7.212 -1.4416  1.3980  0.9797
  119OSM   C15S12533   4.352   3.512   7.398  0.4018  0.1993 -0.1722
  119OSM   H15S12534   4.254   3.472   7.429 -0.1676  1.2078 -0.6482
  119OSM   H15T12535   4.340   3.613   7.353 -0.6165  0.3395  0.4054
  119OSM   C16S12536   4.440   3.543   7.517 -0.2872  0.0783 -0.4919
  119OSM   H16S12537   4.397   3.614   7.590  2.9117  3.3654 -1.6392
  119OSM   H16T12538   4.541   3.576   7.482  0.7529 -2.6740 -0.2241
  119OSM   C17S12539   4.461   3.408   7.602 -0.0893  0.3516 -0.0925
  119OSM   H17S12540   4.560   3.423   7.649 -0.2853  1.3069  0.0299
  119OSM   H17T12541   4.475   3.328   7.527  1.3391  0.2384  0.2933
  119OSM   C18S12542   4.354   3.385   7.706  0.1577 -0.5645  0.4536
  119OSM   H18S12543   4.250   3.403   7.672  0.2927 -0.5919  0.0191
  119OSM   H18T12544   4.378   3.441   7.799  2.2242  2.9390 -2.0586
  119OSM   H18U12545   4.359   3.276   7.727  0.7010 -0.7926 -0.7881
  119OSM    C1F12546   4.940   2.663   6.306  0.2617 -0.0567  0.4607
  119OSM     OF12547   4.996   2.735   6.224  0.2573 -0.1278  0.2019
  119OSM    C2F12548   5.001   2.540   6.377 -0.8866  0.6508  0.3684
  119OSM    H2F12549   5.108   2.567   6.374 -1.2883  2.2309 -0.0650
  119OSM    H2G12550   4.987   2.451   6.312  1.2635  0.3584  0.2693
  119OSM    C3F12551   4.947   2.519   6.518 -0.0813 -0.6452  0.3300
  119OSM    H3F12552   5.000   2.430   6.560 -0.1473 -1.7163 -1.7978
  119OSM    H3G12553   4.838   2.500   6.518 -0.3854  0.9744 -0.9891
  119OSM    C4F12554   4.979   2.634   6.613  0.0158 -0.6883 -0.8114
  119OSM    H4F12555   4.892   2.703   6.612  0.4414  0.0151  2.5364
  119OSM    H4G12556   5.053   2.703   6.567  0.8048  0.1219  1.6039
  119OSM    C5F12557   5.030   2.586   6.750  0.8124  0.0342  0.4319
  119OSM    H5F12558   5.108   2.511   6.729 -0.4767 -1.2899  0.2549
  119OSM    H5G12559   4.955   2.521   6.801  0.0729  0.8758  0.4405
  119OSM    C6F12560   5.073   2.701   6.835 -0.3145  0.0255  0.6022
  119OSM    H6F12561   4.975   2.751   6.853 -0.4228 -0.5171  1.5439
  119OSM    H6G12562   5.131   2.773   6.773 -0.7707  1.8472  2.2642
  119OSM    C7F12563   5.141   2.663   6.971 -0.2955 -0.2302 -0.3452
  119OSM    H7F12564   5.189   2.566   6.944 -0.1815 -0.5623  1.0539
  119OSM    H7G12565   5.058   2.640   7.041 -2.4327  1.9277 -2.0880
  119OSM    C8F12566   5.238   2.761   7.036  0.1843 -0.4799 -0.9174
  119OSM    H8F12567   5.185   2.853   7.071 -0.1448 -1.2983  0.8260
  119OSM    H8G12568   5.316   2.789   6.963  1.0974  0.0484  0.2398
  119OSM    C9F12569   5.297   2.691   7.158 -0.1544 -0.5707 -0.3979
  119OSM    H9F12570   5.351   2.597   7.140  3.1445  1.2814 -0.4653
  119OSM   C10F12571   5.295   2.731   7.284 -0.1638  0.1222  0.3628
  119OSM   H10F12572   5.351   2.668   7.354  0.7859 -0.0657 -0.5566
  119OSM   C11F12573   5.233   2.853   7.336 -0.8234  0.4648 -0.0854
  119OSM   H11F12574   5.163   2.901   7.265 -1.5723 -2.0204 -1.0752
  119OSM   H11G12575   5.302   2.939   7.339  1.0439 -0.9477 -1.2219
  119OSM   C12F12576   5.182   2.837   7.475 -0.1841 -0.1885  0.1329
  119OSM   H12F12577   5.148   2.931   7.523 -1.7174  0.3979 -2.0112
  119OSM   H12G12578   5.263   2.797   7.540  0.2735  2.0532  0.9696
  119OSM   C13F12579   5.060   2.737   7.469  0.3518 -0.0085  0.1370
  119OSM   H13F12580   5.084   2.645   7.412  0.1017  0.6450 -1.0392
  119OSM   H13G12581   4.980   2.795   7.418  1.6313  3.6008  2.0286
  119OSM   C14F12582   5.009   2.707   7.609  0.0622  0.3188 -0.5774
  119OSM   H14F12583   5.099   2.661   7.655  1.5395  3.0166 -0.7062
  119OSM   H14G12584   4.928   2.630   7.612 -0.0322  0.3888 -1.2515
  119OSM   C15F12585   4.953   2.828   7.684 -0.2560  0.0321 -0.5124
  119OSM   H15F12586   4.895   2.893   7.616 -2.7402  0.2487  1.7243
  119OSM   H15G12587   5.046   2.885   7.704 -0.2365 -0.2416  0.2061
  119OSM   C16F12588   4.883   2.806   7.822 -0.2895 -0.1035  0.0759
  119OSM   H16F12589   4.781   2.764   7.813 -0.3732  0.2220 -0.5087
  119OSM   H16G12590   4.868   2.898   7.884 -2.4562 -0.9497  0.8473
  119OSM   C17F12591   4.969   2.712   7.917  0.3232 -0.3911 -0.3791
  119OSM   H17F12592   5.070   2.757   7.914 -0.3908  1.1863 -1.9274
  119OSM   H17G12593   4.960   2.612   7.870 -1.9761  1.0921 -3.2797
  119OSM   C18F12594   4.916   2.699   8.060 -0.0816  1.3451 -0.0876
  119OSM   H18F12595   4.965   2.614   8.111 -2.4624  1.6334  2.7841
  119OSM   H18G12596   4.810   2.666   8.051  0.7317 -1.5828  0.5639
  119OSM   H18H12597   4.932   2.786   8.126  2.4764 -0.0705  1.2134
  120OSM      N12598   2.372   1.075   6.641  0.8809  0.0162  0.0724
  120OSM    C1512599   2.311   1.056   6.773  0.4389 -0.3376 -0.3250
  120OSM   H15A12600   2.353   0.972   6.827 -1.0045  0.4485  2.0846
  120OSM   H15B12601   2.207   1.032   6.757  0.4098 -1.6445  1.6902
  120OSM   H15C12602   2.315   1.142   6.838 -2.4709 -0.2774 -0.1504
  120OSM    C1412603   2.291   1.179   6.564 -0.5715 -0.3202 -0.2239
  120OSM   H14A12604   2.293   1.280   6.602  1.1484  0.3060 -1.8947
  120OSM   H14B12605   2.186   1.153   6.568 -0.4037 -0.8738  1.0974
  120OSM   H14C12606   2.320   1.183   6.460  0.4578 -0.0226  0.0712
  120OSM    C1312607   2.512   1.119   6.663  0.1920 -0.4073 -0.6007
  120OSM   H13A12608   2.559   1.046   6.727 -0.5047 -1.1488 -0.9278
  120OSM   H13B12609   2.513   1.219   6.704  1.6806 -0.2156 -1.0571
  120OSM   H13C12610   2.567   1.119   6.570 -0.6297  0.1206 -1.0905
  120OSM    C1212611   2.371   0.940   6.570  0.4573 -0.2987 -0.0475
  120OSM   H12A12612   2.271   0.899   6.572  0.1288  0.5842  2.9017
  120OSM   H12B12613   2.430   0.872   6.630  0.7274  0.7160  0.8552
  120OSM    C1112614   2.416   0.927   6.426 -0.4241  0.1702  0.2040
  120OSM   H11A12615   2.372   1.008   6.364 -1.6986 -1.4203 -1.0258
  120OSM   H11B12616   2.372   0.837   6.379 -0.0338  0.2495 -0.3211
  120OSM      P12617   2.649   0.804   6.401  0.0948 -0.2947 -0.1522
  120OSM    O1312618   2.594   0.713   6.302 -0.2099  0.2560  0.3695
  120OSM    O1412619   2.790   0.846   6.388 -0.2401  0.4856  0.5219
  120OSM    O1112620   2.629   0.742   6.545 -0.0310 -0.5637  0.2951
  120OSM    O1212621   2.559   0.932   6.416  0.1905 -0.6201  0.7012
  120OSM    C1S12622   2.710   0.786   6.656  0.6946 -0.0444  0.3956
  120OSM    H1S12623   2.683   0.887   6.691 -0.1944 -0.3901  0.7302
  120OSM    H1T12624   2.816   0.777   6.625 -0.0252  0.6416 -2.3900
  120OSM     NF12625   2.774   0.767   6.894 -0.5129 -0.1408 -0.4221
  120OSM    HNF12626   2.869   0.737   6.890 -0.4010  0.2609 -0.7748
  120OSM    C2S12627   2.696   0.700   6.788 -0.9966  0.3063  0.5585
  120OSM    H2S12628   2.588   0.709   6.814 -0.4420  1.6704  2.4951
  120OSM    C3S12629   2.737   0.557   6.748 -0.7374  0.6858  0.5973
  120OSM    H3S12630   2.845   0.546   6.724 -0.8536  0.6544  0.0773
  120OSM     O312631   2.680   0.510   6.629 -0.0376 -0.2290  0.2289
  120OSM    HO312632   2.642   0.589   6.590  1.0781  0.3996  0.3991
  120OSM    C4S12633   2.731   0.465   6.863  0.7668 -0.1519 -0.4484
  120OSM    H4S12634   2.815   0.450   6.932  0.5928  2.3268  0.3387
  120OSM    C5S12635   2.618   0.399   6.902 -0.2094 -0.1064  0.1952
  120OSM    H5S12636   2.528   0.406   6.840 -0.2013  1.8133  0.3690
  120OSM    C6S12637   2.607   0.307   7.026  0.2000  0.7114 -0.0457
  120OSM    H6S12638   2.583   0.209   6.980  0.6562  0.4203  0.3314
  120OSM    H6T12639   2.532   0.350   7.096  0.2004  0.5898  0.0293
  120OSM    C7S12640   2.740   0.293   7.124 -0.3736 -0.9001 -0.2973
  120OSM    H7S12641   2.775   0.393   7.158 -1.4936 -1.0389  1.3114
  120OSM    H7T12642   2.819   0.238   7.069  0.2959 -0.5799  0.3391
  120OSM    C8S12643   2.709   0.223   7.258  0.0902 -0.4650 -0.5178
  120OSM    H8S12644   2.674   0.123   7.228 -1.7958  0.1952 -0.5555
  120OSM    H8T12645   2.627   0.278   7.309  1.6989  0.4830  1.1075
  120OSM    C9S12646   2.827   0.213   7.345 -0.1973  0.8578 -0.3943
  120OSM    H9S12647   2.840   0.310   7.398  0.5877 -0.2172  1.4433
  120OSM    H9T12648   2.917   0.203   7.281  0.9628 -1.0655  1.4622
  120OSM   C10S12649   2.819   0.105   7.452 -0.0842 -0.2339 -0.0814
  120OSM   H10S12650   2.893   0.024   7.435  0.3744  0.1188  0.2320
  120OSM   H10T12651   2.713   0.073   7.444 -0.8319  2.6102 -2.0118
  120OSM   C11S12652   2.847   0.164   7.592  0.6546 -1.2707  0.0315
  120OSM   H11S12653   2.788   0.258   7.593  0.9052 -1.1006 -0.6654
  120OSM   H11T12654   2.953   0.193   7.606  0.5877 -0.3541 -1.2584
  120OSM   C12S12655   2.807   0.079   7.709  0.0357  0.1917  0.4775
  120OSM   H12S12656   2.883  -0.002   7.713  2.5065  2.4657  1.0285
  120OSM   H12T12657   2.707   0.034   7.690 -0.4213  2.2637 -2.2979
  120OSM   C13S12658   2.805   0.147   7.848  0.5310 -0.3477  0.0600
  120OSM   H13S12659   2.703   0.186   7.870  0.2821 -1.2493  0.5291
  120OSM   H13T12660   2.883   0.226   7.857  0.2082  0.3060 -2.5509
  120OSM   C14S12661   2.829   0.055   7.966  0.3285 -0.5185 -0.1647
  120OSM   H14S12662   2.908  -0.022   7.951  1.6637  1.1554 -2.0544
  120OSM   H14T12663   2.734   0.005   7.995 -0.3661  0.5985 -0.5121
  120OSM   C15S12664   2.888   0.147   8.083 -0.8786  0.1318  0.2420
  120OSM   H15S12665   2.813   0.224   8.110  0.5645  0.7947  2.5506
  120OSM   H15T12666   2.982   0.172   8.029 -0.0826 -1.9289  0.5769
  120OSM   C16S12667   2.937   0.069   8.206  0.1221  0.6033  0.1036
  120OSM   H16S12668   3.007  -0.011   8.173  0.3182 -0.0172  1.9925
  120OSM   H16T12669   2.856   0.011   8.255  1.1351 -1.2244 -0.3622
  120OSM   C17S12670   3.019   0.163   8.296 -0.1780 -0.3324 -0.4850
  120OSM   H17S12671   2.951   0.232   8.349  3.6651  2.0626  1.5235
  120OSM   H17T12672   3.088   0.226   8.236  0.6754 -1.4514 -0.7000
  120OSM   C18S12673   3.118   0.086   8.382 -0.1033 -0.3327 -0.2721
  120OSM   H18S12674   3.072   0.002   8.439  1.0227  0.8207  2.4379
  120OSM   H18T12675   3.164   0.144   8.464 -2.8508  0.0195  1.1035
  120OSM   H18U12676   3.191   0.032   8.318 -0.7072 -1.1420 -0.2933
  120OSM    C1F12677   2.739   0.888   6.959 -0.2182  0.3448  0.0337
  120OSM     OF12678   2.628   0.940   6.938  0.0061 -0.6259  0.2730
  120OSM    C2F12679   2.836   0.955   7.053  0.1574  0.0501 -0.1374
  120OSM    H2F12680   2.775   0.998   7.135 -0.0547 -0.3807 -0.0672
  120OSM    H2G12681   2.892   1.036   7.001 -2.3585  2.1404  0.2674
  120OSM    C3F12682   2.939   0.854   7.104  0.2729 -0.3760  0.3107
  120OSM    H3F12683   3.018   0.847   7.026 -1.8211  2.4292 -2.1844
  120OSM    H3G12684   2.906   0.752   7.130  0.2679 -0.8290 -1.4107
  120OSM    C4F12685   3.035   0.907   7.228  0.2138 -0.2424  0.6548
  120OSM    H4F12686   3.080   1.005   7.201  0.4336 -0.2727  0.9095
  120OSM    H4G12687   3.125   0.843   7.246 -0.1191 -0.2587  2.3692
  120OSM    C5F12688   2.963   0.919   7.361 -0.1069 -0.2762 -0.2404
  120OSM    H5F12689   2.919   0.817   7.370 -0.8600 -0.0898 -1.6826
  120OSM    H5G12690   2.881   0.993   7.367  0.0442 -0.2781  2.4342
  120OSM    C6F12691   3.064   0.936   7.475 -0.0251  0.0786  0.5473
  120OSM    H6F12692   3.141   1.014   7.455 -0.9800  1.1203  0.9120
  120OSM    H6G12693   3.111   0.836   7.485 -3.4598 -1.4004  2.8278
  120OSM    C7F12694   2.986   0.979   7.597 -0.0523  0.3698  0.0160
  120OSM    H7F12695   2.898   0.912   7.606  1.7009 -1.8298  1.0327
  120OSM    H7G12696   2.965   1.087   7.581 -0.3231  0.1744 -0.9507
  120OSM    C8F12697   3.064   0.965   7.725  0.0229 -0.7472  0.1922
  120OSM    H8F12698   3.015   1.002   7.818  0.9213 -0.3067  0.5012
  120OSM    H8G12699   3.156   1.026   7.713 -1.5393  1.9679  1.3049
  120OSM    C9F12700   3.121   0.826   7.748  0.8216 -1.1991  0.4208
  120OSM    H9F12701   3.130   0.755   7.665 -1.2317 -2.0768  0.8955
  120OSM   C10F12702   3.176   0.778   7.861 -0.5494 -0.1585  0.0675
  120OSM   H10F12703   3.219   0.677   7.865 -0.2834 -0.1474 -2.0167
  120OSM   C11F12704   3.196   0.863   7.980 -0.1817 -0.1998 -0.4035
  120OSM   H11F12705   3.145   0.810   8.064 -0.8376  0.1363 -0.5841
  120OSM   H11G12706   3.147   0.962   7.968  0.7726  0.4898  1.1946
  120OSM   C12F12707   3.347   0.880   7.994 -0.4123 -0.1941 -0.2372
  120OSM   H12F12708   3.373   0.950   7.913 -4.4086  0.9618 -0.6397
  120OSM   H12G12709   3.390   0.778   7.990 -2.5759 -1.1184 -1.0376
  120OSM   C13F12710   3.371   0.953   8.130  0.0338  0.7354  0.1726
  120OSM   H13F12711   3.306   1.042   8.142  1.8680  2.0285  0.7365
  120OSM   H13G12712   3.473   0.997   8.118 -0.7467  2.1207 -1.7492
  120OSM   C14F12713   3.366   0.857   8.255  0.5565 -0.0879  0.0909
  120OSM   H14F12714   3.272   0.798   8.260  1.2966 -1.8143 -4.0952
  120OSM   H14G12715   3.368   0.918   8.348  0.1672 -0.4283  0.3254
  120OSM   C15F12716   3.484   0.769   8.264 -0.4887 -0.7194 -0.1146
  120OSM   H15F12717   3.576   0.822   8.296 -0.6254  1.5377 -3.1697
  120OSM   H15G12718   3.502   0.716   8.168 -0.5310  2.1314 -1.7640
  120OSM   C16F12719   3.481   0.663   8.378  0.2548  0.3289 -0.0171
  120OSM   H16F12720   3.576   0.606   8.371 -0.3596 -0.5141 -1.4329
  120OSM   H16G12721   3.398   0.595   8.353 -0.4975  0.6816  1.4610
  120OSM   C17F12722   3.460   0.727   8.519  0.5477  0.4223  0.5154
  120OSM   H17F12723   3.363   0.780   8.519  0.7812  0.8591  1.2702
  120OSM   H17G12724   3.534   0.809   8.528 -0.5522  1.5167 -0.3861
  120OSM   C18F12725   3.472   0.632   8.634  0.2600 -0.1976 -0.0449
  120OSM   H18F12726   3.570   0.583   8.649 -0.8408 -1.9219  1.7602
  120OSM   H18G12727   3.394   0.553   8.632  0.1096 -0.0414 -1.9276
  120OSM   H18H12728   3.461   0.696   8.724  0.8867 -1.1992  0.7475
  121OSM      N12729   3.839   1.808   5.872  0.4334 -0.0581  0.3374
  121OSM    C1512730   3.799   1.703   5.779  0.5595 -0.8172 -0.0631
  121OSM   H15A12731   3.872   1.626   5.759 -1.2245 -2.2083 -1.3166
  121OSM   H15B12732   3.782   1.743   5.680  0.9303  3.5791  1.5211
  121OSM   H15C12733   3.711   1.655   5.818  0.5097 -0.2933  0.4836
  121OSM    C1412734   3.980   1.851   5.830  1.3202  0.5152  0.8215
  121OSM   H14A12735   4.024   1.929   5.890  0.1271  1.5183  0.4044
  121OSM   H14B12736   3.969   1.891   5.730  1.4214 -0.4190  0.4326
  121OSM   H14C12737   4.048   1.767   5.836  0.6936 -0.0478  0.1430
  121OSM    C1312738   3.746   1.921   5.857  0.4562  0.1799  0.7401
  121OSM   H13A12739   3.750   1.965   5.758 -0.3503 -1.8435 -0.2162
  121OSM   H13B12740   3.769   2.007   5.919 -0.1198 -0.5289  1.9551
  121OSM   H13C12741   3.645   1.887   5.870 -0.6817  2.7321 -1.0160
  121OSM    C1212742   3.826   1.760   6.019  0.0594  0.3477  0.2767
  121OSM   H12A12743   3.867   1.660   6.025 -0.6456 -0.0996 -1.9924
  121OSM   H12B12744   3.723   1.744   6.047 -0.6843  0.3824 -2.2968
  121OSM    C1112745   3.879   1.848   6.135  0.6883 -0.3446  0.3798
  121OSM   H11A12746   3.869   1.800   6.234  0.4696 -0.7186  0.1766
  121OSM   H11B12747   3.815   1.939   6.135  0.3492 -0.5758 -0.6794
  121OSM      P12748   4.075   2.020   6.154 -0.0770 -0.7845 -0.0566
  121OSM    O1312749   4.216   2.022   6.107 -0.5372 -0.2264 -0.0596
  121OSM    O1412750   3.987   2.129   6.111 -0.3552  0.2701  0.6055
  121OSM    O1112751   4.058   2.010   6.310 -0.3647 -0.3180 -0.1844
  121OSM    O1212752   4.015   1.881   6.111 -0.3502 -0.0287  0.8108
  121OSM    C1S12753   4.144   2.082   6.403 -1.2008  0.0537  0.5721
  121OSM    H1S12754   4.156   2.184   6.361 -3.7380 -0.6832 -2.0656
  121OSM    H1T12755   4.238   2.026   6.420 -2.2728 -2.1790 -0.6973
  121OSM     NF12756   4.179   2.154   6.644  0.8253 -0.4818 -0.1453
  121OSM    HNF12757   4.219   2.095   6.714  0.8006 -0.4730 -0.1245
  121OSM    C2S12758   4.088   2.090   6.544  0.0793 -0.1958 -0.6424
  121OSM    H2S12759   4.001   2.157   6.536  0.3501  0.0452 -1.6535
  121OSM    C3S12760   4.033   1.954   6.594  0.5355  0.4751  0.4323
  121OSM    H3S12761   4.118   1.883   6.603 -0.6171 -0.9203  0.6065
  121OSM     O312762   3.944   1.881   6.504  0.2669  0.1494 -0.1296
  121OSM    HO312763   3.968   1.914   6.417  0.2829  1.2928  0.3051
  121OSM    C4S12764   3.953   1.975   6.718 -0.5377 -0.5766 -1.3766
  121OSM    H4S12765   3.856   2.026   6.707  0.2942  1.2526 -0.3440
  121OSM    C5S12766   3.996   1.955   6.844  0.0375 -0.4184  0.0090
  121OSM    H5S12767   4.098   1.916   6.858 -0.0364 -0.5501  0.1803
  121OSM    C6S12768   3.910   1.983   6.970 -0.6688 -0.5012 -0.0910
  121OSM    H6S12769   3.803   1.975   6.942 -1.3140  0.5531  1.9772
  121OSM    H6T12770   3.928   2.083   7.013  2.0726 -1.1625  0.3924
  121OSM    C7S12771   3.945   1.883   7.082 -0.2437  0.1548  0.5375
  121OSM    H7S12772   4.044   1.902   7.128 -0.1101 -0.7632  0.6497
  121OSM    H7T12773   3.950   1.783   7.034  3.4458  0.3098  0.4630
  121OSM    C8S12774   3.842   1.884   7.195 -0.3711 -0.4749 -0.0121
  121OSM    H8S12775   3.741   1.854   7.161 -0.4286  0.2272 -0.4760
  121OSM    H8T12776   3.821   1.992   7.213 -0.5094  0.4436 -5.1564
  121OSM    C9S12777   3.893   1.810   7.315  0.0048  0.1771  0.0594
  121OSM    H9S12778   3.992   1.855   7.339  0.0656 -0.5450  1.2105
  121OSM    H9T12779   3.906   1.704   7.286 -0.5985 -0.0209  0.5048
  121OSM   C10S12780   3.819   1.815   7.447 -0.2310 -0.1431 -0.5459
  121OSM   H10S12781   3.858   1.736   7.514 -2.8984 -1.0305  0.0514
  121OSM   H10T12782   3.716   1.782   7.422 -0.4010  0.1894 -0.2904
  121OSM   C11S12783   3.825   1.958   7.511  0.5495 -0.6475  0.8518
  121OSM   H11S12784   3.799   2.035   7.435  2.0402 -0.6335  0.3400
  121OSM   H11T12785   3.931   1.981   7.532 -0.2473  1.2020  2.9836
  121OSM   C12S12786   3.751   1.979   7.646  0.2980  0.0747 -0.7343
  121OSM   H12S12787   3.645   1.986   7.616  0.2431 -1.5693 -0.9669
  121OSM   H12T12788   3.780   2.077   7.691 -0.1103 -0.6218  1.1095
  121OSM   C13S12789   3.775   1.866   7.739  0.0629  0.5575  0.4468
  121OSM   H13S12790   3.879   1.828   7.743 -0.8460 -1.9679  0.5448
  121OSM   H13T12791   3.713   1.784   7.696  1.3376 -0.6574  0.8905
  121OSM   C14S12792   3.739   1.918   7.878  0.4393  0.1729 -0.3775
  121OSM   H14S12793   3.630   1.939   7.875  0.4109  0.0172 -0.4537
  121OSM   H14T12794   3.793   2.012   7.900  1.3495 -0.3361 -0.4430
  121OSM   C15S12795   3.754   1.812   7.991  1.4247  0.0063 -0.1665
  121OSM   H15S12796   3.861   1.785   7.998  1.5709  1.0393  2.0938
  121OSM   H15T12797   3.701   1.724   7.949  0.4995  0.3892  0.1781
  121OSM   C16S12798   3.715   1.873   8.128 -0.9966 -0.0061  0.0912
  121OSM   H16S12799   3.613   1.917   8.124 -0.8572  0.3178  0.0590
  121OSM   H16T12800   3.770   1.965   8.156 -1.4396  0.8477 -1.7676
  121OSM   C17S12801   3.719   1.784   8.251  0.0040 -0.3862 -0.1094
  121OSM   H17S12802   3.826   1.771   8.281 -0.9550 -0.5514  3.4929
  121OSM   H17T12803   3.666   1.692   8.222  0.2565 -0.4845 -0.2610
  121OSM   C18S12804   3.652   1.846   8.377  0.0187 -0.2823 -0.4259
  121OSM   H18S12805   3.544   1.859   8.355  0.1056 -0.5715 -1.0551
  121OSM   H18T12806   3.699   1.941   8.412 -0.1364 -1.3253  2.7563
  121OSM   H18U12807   3.650   1.783   8.468  2.0107  3.3328  2.2280
  121OSM    C1F12808   4.221   2.275   6.622 -0.2338 -0.4528  0.5157
  121OSM     OF12809   4.171   2.353   6.545 -0.1081  0.7140 -0.0103
  121OSM    C2F12810   4.348   2.317   6.702 -0.0084 -1.1620 -0.0647
  121OSM    H2F12811   4.411   2.387   6.642  1.3699 -1.1964  1.2896
  121OSM    H2G12812   4.413   2.231   6.730  1.3344 -0.4593 -0.9291
  121OSM    C3F12813   4.313   2.381   6.831  0.1054  0.1562 -0.3573
  121OSM    H3F12814   4.247   2.469   6.814 -0.1394 -0.3728 -2.2528
  121OSM    H3G12815   4.400   2.436   6.872 -1.1664 -0.8801  4.0347
  121OSM    C4F12816   4.264   2.290   6.948  0.1083 -0.1820  0.9376
  121OSM    H4F12817   4.345   2.223   6.984 -0.4870  0.4004  3.4374
  121OSM    H4G12818   4.183   2.222   6.916 -0.4742  1.1670 -0.5524
  121OSM    C5F12819   4.213   2.373   7.070 -0.3129 -0.3061  0.1469
  121OSM    H5F12820   4.116   2.417   7.037  1.0548  1.8984 -1.0489
  121OSM    H5G12821   4.273   2.466   7.085  2.3444 -1.9537 -0.0280
  121OSM    C6F12822   4.203   2.290   7.193  0.2914  0.8943  0.2684
  121OSM    H6F12823   4.145   2.198   7.174 -0.6734  0.9582  2.7244
  121OSM    H6G12824   4.159   2.343   7.280  0.4945  0.0359  0.8971
  121OSM    C7F12825   4.340   2.234   7.244 -0.3656  0.2005 -0.2997
  121OSM    H7F12826   4.413   2.317   7.259  1.2557 -1.3560  0.6002
  121OSM    H7G12827   4.375   2.154   7.176 -3.0088  0.0543 -1.5554
  121OSM    C8F12828   4.331   2.170   7.391  0.3735  0.2363  0.3982
  121OSM    H8F12829   4.277   2.244   7.454 -0.0068  1.4188 -1.2770
  121OSM    H8G12830   4.434   2.164   7.432  1.1933 -0.5598 -1.7127
  121OSM    C9F12831   4.265   2.032   7.405 -0.1524  0.2879  0.3530
  121OSM    H9F12832   4.269   1.971   7.313 -1.2065  1.6430 -0.6108
  121OSM   C10F12833   4.201   1.978   7.507  0.7006 -0.3972  0.2876
  121OSM   H10F12834   4.175   1.871   7.508 -1.2879  0.0546  1.0956
  121OSM   C11F12835   4.170   2.043   7.638 -0.0429 -0.4414 -0.1983
  121OSM   H11F12836   4.078   2.105   7.633 -0.4051 -0.9202  0.4810
  121OSM   H11G12837   4.249   2.121   7.645  0.5432 -0.8763 -1.8277
  121OSM   C12F12838   4.159   1.948   7.757  0.2492 -0.4060 -0.5846
  121OSM   H12F12839   4.254   1.890   7.757  0.0352 -0.8630  2.9465
  121OSM   H12G12840   4.076   1.875   7.755 -1.2792  1.1275  2.5600
  121OSM   C13F12841   4.136   2.026   7.887 -0.2679  0.2778  0.3053
  121OSM   H13F12842   4.037   2.074   7.877  0.6034  1.8338 -1.1300
  121OSM   H13G12843   4.209   2.107   7.910  1.6306 -2.1287  3.1783
  121OSM   C14F12844   4.136   1.934   8.003 -0.4342 -0.6712 -0.9415
  121OSM   H14F12845   4.233   1.882   8.020 -0.2119  0.0130 -0.0219
  121OSM   H14G12846   4.064   1.853   7.981 -0.6349 -0.3625 -1.4293
  121OSM   C15F12847   4.091   2.010   8.127 -0.1668  0.3095 -0.0070
  121OSM   H15F12848   3.988   2.041   8.098 -0.8870 -2.5646 -0.6456
  121OSM   H15G12849   4.157   2.100   8.132  1.6473 -1.0506  1.0006
  121OSM   C16F12850   4.085   1.931   8.259 -0.5008 -0.1660  0.2376
  121OSM   H16F12851   4.183   1.883   8.275  0.3709  0.7250 -2.1707
  121OSM   H16G12852   4.023   1.843   8.235  0.4959 -1.1356  1.1772
  121OSM   C17F12853   4.032   2.005   8.379  0.3160  0.2247  0.0021
  121OSM   H17F12854   3.932   2.032   8.340  0.2815 -0.4938 -0.4192
  121OSM   H17G12855   4.093   2.096   8.395 -1.6578  1.3845  1.0997
  121OSM   C18F12856   4.017   1.921   8.510  0.4094  0.5661  0.2229
  121OSM   H18F12857   3.959   1.959   8.597  0.3618  0.5411  0.2007
  121OSM   H18G12858   4.112   1.881   8.550  0.0385 -1.3815 -0.7764
  121OSM   H18H12859   3.961   1.829   8.482 -1.2029  1.5711  0.0611
  122OSM      N12860   3.703   5.006   5.767 -0.3422 -0.3192 -0.2358
  122OSM    C1512861   3.824   4.953   5.703  0.7384  0.6529  0.1331
  122OSM   H15A12862   3.854   4.853   5.730  1.0887 -0.4038 -3.7832
  122OSM   H15B12863   3.910   5.018   5.709  2.0538 -0.9255 -1.0180
  122OSM   H15C12864   3.805   4.959   5.596 -0.9384  2.0803  0.4856
  122OSM    C1412865   3.733   5.033   5.911  0.1584 -0.0774 -0.0287
  122OSM   H14A12866   3.808   4.967   5.953 -0.5121 -1.6116 -1.1588
  122OSM   H14B12867   3.646   5.029   5.975  1.1254  0.7705  1.3428
  122OSM   H14C12868   3.780   5.126   5.940 -2.1221  1.1480 -0.1744
  122OSM    C1312869   3.666   5.136   5.695 -0.3096 -0.3472 -0.2664
  122OSM   H13A12870   3.644   5.119   5.591 -2.4562 -1.3793  0.3169
  122OSM   H13B12871   3.743   5.211   5.685 -2.2184  1.4529 -2.3370
  122OSM   H13C12872   3.581   5.187   5.739 -0.3399 -0.3152 -0.3609
  122OSM    C1212873   3.576   4.912   5.756  0.3765  1.2080  0.4183
  122OSM   H12A12874   3.601   4.809   5.779 -0.7229  1.2700  1.9816
  122OSM   H12B12875   3.556   4.916   5.650 -1.4280  0.5327  0.7171
  122OSM    C1112876   3.448   4.948   5.839  0.2600  0.4444  0.4989
  122OSM   H11A12877   3.363   4.882   5.812 -0.4459  1.2165  0.8345
  122OSM   H11B12878   3.416   5.052   5.816 -3.2532 -0.6965 -0.0781
  122OSM      P12879   3.396   4.977   6.099  0.3782  0.5667 -0.1183
  122OSM    O1312880   3.478   5.090   6.146  0.0458  0.0861  0.1324
  122OSM    O1412881   3.257   5.006   6.056  0.0364  0.4565  0.4782
  122OSM    O1112882   3.395   4.868   6.212  0.3183  0.3780 -0.1095
  122OSM    O1212883   3.471   4.923   5.973 -0.3940  0.7326 -0.3968
  122OSM    C1S12884   3.501   4.770   6.220  1.4030 -0.0047  0.1476
  122OSM    H1S12885   3.602   4.816   6.213  2.2195 -1.7282  0.1280
  122OSM    H1T12886   3.500   4.709   6.127 -2.3504 -0.9897  0.7538
  122OSM     NF12887   3.612   4.593   6.368  0.3248 -0.0375 -0.6709
  122OSM    HNF12888   3.608   4.494   6.377 -2.8896  0.0532 -0.4993
  122OSM    C2S12889   3.490   4.663   6.337 -0.5230 -0.4282  0.5289
  122OSM    H2S12890   3.475   4.723   6.430  1.8344  0.5259  0.3370
  122OSM    C3S12891   3.357   4.584   6.311  0.1077 -0.5426  0.1266
  122OSM    H3S12892   3.384   4.510   6.232  0.7676  0.8004 -0.9315
  122OSM     O312893   3.241   4.650   6.263  0.7205 -0.2095  0.0122
  122OSM    HO312894   3.270   4.741   6.253  1.1975 -0.1923  1.4105
  122OSM    C4S12895   3.327   4.501   6.439  0.6644 -0.2261  1.1369
  122OSM    H4S12896   3.402   4.425   6.463 -1.3484 -2.0479  1.7638
  122OSM    C5S12897   3.232   4.532   6.530 -0.4872 -0.0502  0.0617
  122OSM    H5S12898   3.168   4.621   6.520 -0.2610  0.1462  0.3514
  122OSM    C6S12899   3.209   4.470   6.666 -0.0390 -0.2181  0.0262
  122OSM    H6S12900   3.266   4.375   6.670  0.8170  0.3796  3.5207
  122OSM    H6T12901   3.103   4.441   6.680  0.2224 -1.2717 -0.1432
  122OSM    C7S12902   3.244   4.559   6.781 -0.5445  0.5244  0.5284
  122OSM    H7S12903   3.350   4.594   6.773  0.1784 -1.5752  0.5682
  122OSM    H7T12904   3.231   4.508   6.879 -0.2587 -0.6658 -0.0401
  122OSM    C8S12905   3.169   4.695   6.779 -0.1326  0.2162  0.2210
  122OSM    H8S12906   3.060   4.674   6.782 -0.2463  0.4749 -1.4600
  122OSM    H8T12907   3.185   4.746   6.681 -1.6155 -0.8290 -0.5966
  122OSM    C9S12908   3.206   4.789   6.893 -0.1241  0.6839 -0.2094
  122OSM    H9S12909   3.178   4.887   6.851  1.8057  0.9103 -1.0334
  122OSM    H9T12910   3.317   4.791   6.904  0.0554  1.1662 -2.0055
  122OSM   C10S12911   3.130   4.756   7.026 -0.1720  0.3035 -0.6655
  122OSM   H10S12912   3.162   4.655   7.058  1.1096  0.5453 -1.1208
  122OSM   H10T12913   3.020   4.761   7.012 -0.4601  0.3550  1.5126
  122OSM   C11S12914   3.177   4.852   7.136  0.3566  0.3191  0.1463
  122OSM   H11S12915   3.122   4.946   7.117 -3.2991 -1.7537 -0.0456
  122OSM   H11T12916   3.286   4.873   7.129  0.3460 -0.0090 -1.2720
  122OSM   C12S12917   3.128   4.800   7.273  0.1000  0.1249 -0.7295
  122OSM   H12S12918   3.169   4.699   7.293  0.2119  0.4966  0.9755
  122OSM   H12T12919   3.020   4.810   7.294  0.0233  2.0224 -1.8546
  122OSM   C13S12920   3.201   4.862   7.390 -0.0626  0.0597  0.0767
  122OSM   H13S12921   3.168   4.966   7.408 -1.0077 -0.1623 -0.3485
  122OSM   H13T12922   3.309   4.879   7.369 -0.4525  3.0016  0.2775
  122OSM   C14S12923   3.168   4.794   7.519 -0.0777 -0.2841 -0.1272
  122OSM   H14S12924   3.184   4.684   7.519  0.2971 -0.2394 -1.2143
  122OSM   H14T12925   3.059   4.807   7.532  0.0654  0.3296  0.4871
  122OSM   C15S12926   3.233   4.854   7.639 -0.3565 -0.1582 -0.5854
  122OSM   H15S12927   3.196   4.957   7.658 -3.6640 -1.3311 -0.3330
  122OSM   H15T12928   3.341   4.861   7.613 -0.7207 -2.8969 -3.0701
  122OSM   C16S12929   3.213   4.771   7.768  0.1764 -0.5131  0.2956
  122OSM   H16S12930   3.270   4.676   7.760  0.0459 -0.5238 -0.4992
  122OSM   H16T12931   3.111   4.729   7.765 -0.0965  0.1634  0.1949
  122OSM   C17S12932   3.239   4.844   7.897 -0.1459  0.0795  0.5338
  122OSM   H17S12933   3.346   4.872   7.881  0.2464 -0.4969  2.0003
  122OSM   H17T12934   3.232   4.772   7.981 -0.2366 -2.9118 -1.9866
  122OSM   C18S12935   3.152   4.963   7.939 -0.2597 -0.0685 -0.4072
  122OSM   H18S12936   3.184   5.005   8.037 -1.8645  0.2520  0.0009
  122OSM   H18T12937   3.050   4.923   7.958  0.6493 -0.5944  3.9152
  122OSM   H18U12938   3.148   5.041   7.860  0.0585 -0.3091 -0.6579
  122OSM    C1F12939   3.719   4.659   6.409  0.2057 -0.4429 -0.3103
  122OSM     OF12940   3.726   4.780   6.416 -0.3898  0.2120  0.3853
  122OSM    C2F12941   3.818   4.568   6.473 -0.4665 -0.4075 -0.4744
  122OSM    H2F12942   3.898   4.547   6.399  0.7082  0.6885  0.4590
  122OSM    H2G12943   3.762   4.473   6.489  2.5818 -2.3120 -0.7002
  122OSM    C3F12944   3.876   4.614   6.608 -0.5567 -0.1369  0.3918
  122OSM    H3F12945   3.796   4.614   6.685  2.0546  1.1978  3.1872
  122OSM    H3G12946   3.914   4.717   6.593 -0.4098 -0.4035 -1.1102
  122OSM    C4F12947   3.996   4.523   6.647 -0.6104  0.1749  0.8025
  122OSM    H4F12948   4.080   4.562   6.586 -0.5959  1.6759  1.7678
  122OSM    H4G12949   3.972   4.416   6.627 -1.6870  0.8644 -1.8884
  122OSM    C5F12950   4.037   4.554   6.790 -0.9994 -0.2646 -0.6993
  122OSM    H5F12951   4.037   4.663   6.809 -0.6679 -0.6348  1.4553
  122OSM    H5G12952   4.138   4.517   6.817 -0.9324  0.8930  0.7079
  122OSM    C6F12953   3.952   4.487   6.893 -0.2898 -1.2608  0.0979
  122OSM    H6F12954   3.969   4.378   6.878 -3.8614 -1.5526 -2.5731
  122OSM    H6G12955   3.844   4.491   6.866 -0.5723  2.1555  1.4595
  122OSM    C7F12956   3.979   4.549   7.034  0.5287 -0.2425 -0.8875
  122OSM    H7F12957   3.884   4.538   7.091  1.1069 -1.1824 -0.0909
  122OSM    H7G12958   4.001   4.656   7.016 -0.2726 -0.0321 -0.6351
  122OSM    C8F12959   4.103   4.491   7.105  0.0351  0.1760 -0.6482
  122OSM    H8F12960   4.141   4.562   7.182 -0.0798 -1.2690  0.7678
  122OSM    H8G12961   4.191   4.473   7.040  1.8808  2.2006  1.1720
  122OSM    C9F12962   4.084   4.352   7.153 -0.0436 -0.0359 -0.5829
  122OSM    H9F12963   3.992   4.301   7.122 -0.6644  1.3570 -1.0744
  122OSM   C10F12964   4.150   4.293   7.254  0.6375 -0.3007 -0.0751
  122OSM   H10F12965   4.121   4.190   7.276  0.9149 -0.9731 -2.6674
  122OSM   C11F12966   4.262   4.350   7.329  0.4096  0.3168 -0.1721
  122OSM   H11F12967   4.300   4.435   7.268  3.0898  0.4389  1.5680
  122OSM   H11G12968   4.342   4.273   7.335  0.6006  0.5125 -0.1837
  122OSM   C12F12969   4.230   4.409   7.468 -0.9629 -0.6962  0.1712
  122OSM   H12F12970   4.135   4.466   7.470 -0.1008  0.7976 -0.4641
  122OSM   H12G12971   4.306   4.484   7.499 -0.7702 -1.5033  1.6665
  122OSM   C13F12972   4.241   4.306   7.573  0.7981  0.5306 -0.3960
  122OSM   H13F12973   4.334   4.245   7.575 -0.0485 -0.7834 -0.0013
  122OSM   H13G12974   4.152   4.242   7.554  2.3954 -1.1404 -2.4387
  122OSM   C14F12975   4.211   4.362   7.718 -0.5484 -0.1264 -0.5415
  122OSM   H14F12976   4.114   4.411   7.736  0.4934  1.2786  1.5312
  122OSM   H14G12977   4.286   4.443   7.730 -1.1162  0.4385 -0.8534
  122OSM   C15F12978   4.237   4.267   7.838  0.3041 -0.5020 -0.1074
  122OSM   H15F12979   4.333   4.211   7.837  0.8647  0.4127  1.1801
  122OSM   H15G12980   4.152   4.195   7.844 -0.6308  0.5808 -0.1925
  122OSM   C16F12981   4.245   4.347   7.970  0.7357  0.0009 -0.0925
  122OSM   H16F12982   4.157   4.415   7.974  0.4582 -0.4138  0.9272
  122OSM   H16G12983   4.339   4.404   7.980  0.1935  0.9652 -0.3999
  122OSM   C17F12984   4.235   4.251   8.093 -0.3562 -0.0902 -0.1958
  122OSM   H17F12985   4.313   4.174   8.076 -0.5842 -0.2082 -0.7446
  122OSM   H17G12986   4.143   4.190   8.083  1.8831 -3.4333 -1.1717
  122OSM   C18F12987   4.262   4.330   8.219  0.3378 -0.1184 -0.0344
  122OSM   H18F12988   4.190   4.415   8.232  0.7575  0.0959  0.9035
  122OSM   H18G12989   4.370   4.353   8.228  0.9921 -3.1881  0.4346
  122OSM   H18H12990   4.230   4.264   8.303  0.2583 -1.3010 -0.9885
  123OSM      N12991   0.960   0.426   6.509 -0.1933 -0.5752  0.2746
  123OSM    C1512992   0.847   0.531   6.515 -0.1132 -0.0047  0.1696
  123OSM   H15A12993   0.845   0.588   6.424 -0.6394 -1.5834 -0.8323
  123OSM   H15B12994   0.858   0.596   6.600 -1.3581  0.0413  0.3187
  123OSM   H15C12995   0.748   0.487   6.523 -0.4065  0.6007 -0.0712
  123OSM    C1412996   0.942   0.340   6.392 -0.0070  0.3462  0.3287
  123OSM   H14A12997   0.938   0.396   6.300 -1.1461  2.1865  1.4871
  123OSM   H14B12998   0.850   0.282   6.391 -0.6577  1.3545  0.5841
  123OSM   H14C12999   1.022   0.268   6.382  0.5174  0.9484  0.1775
  123OSM    C1313000   1.084   0.497   6.486 -0.1956 -0.3495 -0.0462
  123OSM   H13A13001   1.099   0.561   6.572  2.9551 -0.1485 -0.6784
  123OSM   H13B13002   1.071   0.567   6.404 -0.3513  0.4330  0.6427
  123OSM   H13C13003   1.167   0.429   6.471 -0.7108 -1.1624  0.7932
  123OSM    C1213004   0.956   0.346   6.637  0.3632 -1.1681  0.1656
  123OSM   H12A13005   0.853   0.318   6.648  0.7545 -2.1993  1.3530
  123OSM   H12B13006   0.975   0.418   6.716  0.8403  1.7512 -2.5092
  123OSM    C1113007   1.049   0.220   6.642  1.0185  0.3942 -0.2194
  123OSM   H11A13008   0.999   0.154   6.568 -1.4252  1.1722  0.6983
  123OSM   H11B13009   1.035   0.172   6.741 -0.3745  0.8947 -0.1722
  123OSM      P13010   1.273   0.151   6.525  0.1896 -0.1139 -0.5458
  123OSM    O1313011   1.187   0.102   6.424 -0.1662 -0.7997 -0.0416
  123OSM    O1413012   1.390   0.224   6.472 -0.0363 -0.0882  0.3123
  123OSM    O1113013   1.319   0.036   6.633 -0.0936  0.5288  0.3489
  123OSM    O1213014   1.187   0.246   6.620  0.2078 -0.6935 -0.5078
  123OSM    C1S13015   1.387   0.060   6.751 -0.6569 -0.2028  0.2482
  123OSM    H1S13016   1.441   0.157   6.740 -1.0443 -0.0325 -0.1420
  123OSM    H1T13017   1.465  -0.017   6.769 -2.2182 -1.4121  1.9082
  123OSM     NF13018   1.378   0.078   6.997 -0.3738  0.1513  0.7000
  123OSM    HNF13019   1.400   0.002   7.057  0.5720 -2.3296 -2.6562
  123OSM    C2S13020   1.300   0.062   6.878 -0.1074 -0.0864  0.4936
  123OSM    H2S13021   1.242   0.156   6.869  0.8970  0.5485  0.4839
  123OSM    C3S13022   1.215  -0.062   6.881  0.3723  0.3481 -0.3254
  123OSM    H3S13023   1.277  -0.151   6.906  0.7183  1.2536  2.1448
  123OSM     O313024   1.146  -0.096   6.760  0.3301 -0.2170  0.3434
  123OSM    HO313025   1.200  -0.052   6.694  0.0051  0.9075  0.8137
  123OSM    C4S13026   1.108  -0.052   6.993  0.2221 -0.4944 -0.3952
  123OSM    H4S13027   1.163  -0.046   7.088 -0.6979 -1.0937  0.1701
  123OSM    C5S13028   0.979  -0.015   6.987 -0.2941  0.6605 -0.0001
  123OSM    H5S13029   0.933   0.016   6.892  0.4985  2.4064  0.1784
  123OSM    C6S13030   0.896   0.016   7.107  0.1112 -0.3204  0.2206
  123OSM    H6S13031   0.788   0.000   7.088  0.5489 -2.2113 -0.8167
  123OSM    H6T13032   0.899   0.127   7.115 -1.7326 -0.2661  0.4015
  123OSM    C7S13033   0.934  -0.045   7.244  0.2660 -0.5318  0.1982
  123OSM    H7S13034   1.035  -0.010   7.275 -0.2967  0.1319  1.3070
  123OSM    H7T13035   0.926  -0.155   7.235 -1.3548 -0.5190  1.2435
  123OSM    C8S13036   0.825  -0.002   7.353 -0.0802 -0.5225  0.8418
  123OSM    H8S13037   0.729  -0.050   7.325  1.5296 -2.9018 -0.7938
  123OSM    H8T13038   0.815   0.108   7.343 -0.6515 -0.5456  1.1718
  123OSM    C9S13039   0.882  -0.037   7.493 -0.3889 -0.0534  0.0365
  123OSM    H9S13040   0.985   0.001   7.509 -0.3157 -1.0310  2.1148
  123OSM    H9T13041   0.898  -0.147   7.486  1.7892  0.3020 -1.0919
  123OSM   C10S13042   0.784  -0.006   7.606 -0.5392 -0.6991  0.1506
  123OSM   H10S13043   0.693  -0.069   7.596 -1.5098  0.8566 -0.9402
  123OSM   H10T13044   0.773   0.104   7.605  0.0410 -0.6346 -1.4894
  123OSM   C11S13045   0.844  -0.028   7.747 -0.2776  0.1708  0.1785
  123OSM   H11S13046   0.936   0.028   7.773  0.0282  0.2260 -0.9731
  123OSM   H11T13047   0.871  -0.135   7.760  0.8433  0.2512 -1.3165
  123OSM   C12S13048   0.737  -0.011   7.860 -0.3207  0.5731  0.0546
  123OSM   H12S13049   0.668  -0.096   7.839  0.2867 -0.2922  1.4337
  123OSM   H12T13050   0.685   0.085   7.842  0.2906  0.9966  0.5239
  123OSM   C13S13051   0.789  -0.035   8.005  0.4228 -0.6099 -0.3818
  123OSM   H13S13052   0.845   0.056   8.032 -0.2894  0.3779 -2.1477
  123OSM   H13T13053   0.867  -0.114   8.003  0.3960 -0.6533  0.2814
  123OSM   C14S13054   0.680  -0.078   8.099 -0.3658 -0.3959 -0.1293
  123OSM   H14S13055   0.726  -0.100   8.197  3.9493  0.4383 -1.8583
  123OSM   H14T13056   0.639  -0.177   8.070 -0.5206  0.1440 -1.7970
  123OSM   C15S13057   0.576   0.040   8.109  0.4754  0.4807 -0.2026
  123OSM   H15S13058   0.513   0.038   8.017  1.9367  1.7579 -1.2550
  123OSM   H15T13059   0.625   0.139   8.103  1.3676  0.2486  2.8849
  123OSM   C16S13060   0.476   0.035   8.227 -0.0025 -0.4660  0.0698
  123OSM   H16S13061   0.422  -0.059   8.204  1.8668 -1.6612  0.4456
  123OSM   H16T13062   0.408   0.123   8.227  1.1413  0.4431  0.3181
  123OSM   C17S13063   0.548   0.027   8.366 -0.6258  0.2419  0.3044
  123OSM   H17S13064   0.649   0.070   8.356 -0.4763 -0.3403 -0.7741
  123OSM   H17T13065   0.577  -0.079   8.379 -1.7840  0.1067  2.0218
  123OSM   C18S13066   0.459   0.059   8.484 -0.3359  0.3040 -0.8328
  123OSM   H18S13067   0.506   0.038   8.582 -2.4897  3.2725  0.9275
  123OSM   H18T13068   0.372  -0.009   8.471 -0.7579  0.2761  1.8288
  123OSM   H18U13069   0.427   0.165   8.493 -1.5529 -0.1761  0.5880
  123OSM    C1F13070   1.474   0.171   7.008  0.6865  0.1446 -0.2010
  123OSM     OF13071   1.466   0.273   6.941  0.1877 -0.0166 -0.4459
  123OSM    C2F13072   1.590   0.145   7.102  0.0203 -0.0358 -0.2387
  123OSM    H2F13073   1.679   0.109   7.046  0.9463 -1.1992  1.9263
  123OSM    H2G13074   1.567   0.066   7.177  2.1390 -0.7605 -0.3384
  123OSM    C3F13075   1.621   0.273   7.187  0.2276  0.6064 -0.5445
  123OSM    H3F13076   1.536   0.306   7.251  0.2841 -0.8868  0.3046
  123OSM    H3G13077   1.628   0.366   7.127 -0.1465  0.6413 -0.5380
  123OSM    C4F13078   1.746   0.270   7.268  0.7895 -0.1823  0.5827
  123OSM    H4F13079   1.761   0.357   7.335  0.7184 -0.6350  1.1857
  123OSM    H4G13080   1.823   0.274   7.188  0.8174 -1.6066  0.5206
  123OSM    C5F13081   1.763   0.145   7.363  0.2348  0.1047 -0.1188
  123OSM    H5F13082   1.791   0.060   7.297 -0.6650  0.0848 -0.4756
  123OSM    H5G13083   1.670   0.127   7.421 -0.1688 -0.5744 -0.9666
  123OSM    C6F13084   1.877   0.171   7.458  1.4035 -0.3563  0.0775
  123OSM    H6F13085   1.848   0.260   7.519 -2.2818 -1.3343 -0.1876
  123OSM    H6G13086   1.976   0.163   7.408  0.7404 -1.3082 -1.1091
  123OSM    C7F13087   1.880   0.051   7.558  0.3002 -0.2310 -0.3645
  123OSM    H7F13088   1.904  -0.045   7.506  1.8546 -0.5442  0.8766
  123OSM    H7G13089   1.779   0.047   7.605 -0.0599 -1.6385 -1.2148
  123OSM    C8F13090   1.980   0.070   7.675  0.0680  0.0375 -0.4993
  123OSM    H8F13091   1.930   0.140   7.746 -0.3343  0.6447 -1.3716
  123OSM    H8G13092   2.069   0.125   7.637 -0.4177  0.3536 -1.1915
  123OSM    C9F13093   2.038  -0.059   7.732  0.8367  0.2439  0.1031
  123OSM    H9F13094   2.104  -0.111   7.661  3.2007  1.5513  1.2816
  123OSM   C10F13095   2.016  -0.098   7.864  0.3728  0.6424 -0.2298
  123OSM   H10F13096   2.066  -0.190   7.897 -1.2445  0.4553  1.7527
  123OSM   C11F13097   1.934  -0.033   7.975  0.2308  0.1211 -0.2327
  123OSM   H11F13098   1.868  -0.113   8.017  1.2434 -1.4774 -1.6042
  123OSM   H11G13099   1.862   0.041   7.935 -0.1206  0.1557  0.4506
  123OSM   C12F13100   2.014   0.022   8.090  0.5404 -0.1927 -0.5357
  123OSM   H12F13101   1.960   0.095   8.154  0.2885 -0.6914 -0.1753
  123OSM   H12G13102   2.103   0.073   8.048  0.2771 -0.5750 -1.5797
  123OSM   C13F13103   2.067  -0.078   8.176 -0.3560  0.4648 -0.3036
  123OSM   H13F13104   2.165  -0.050   8.220 -1.0096  1.1554  0.7458
  123OSM   H13G13105   2.084  -0.169   8.115  1.6430  1.2142 -0.8887
  123OSM   C14F13106   1.987  -0.120   8.305 -0.3216 -0.4569  0.2487
  123OSM   H14F13107   1.898  -0.184   8.286  0.3002 -0.9179 -1.1807
  123OSM   H14G13108   1.954  -0.022   8.345 -1.4414 -0.3477 -0.9097
  123OSM   C15F13109   2.077  -0.194   8.405  0.1010 -0.3056  0.3534
  123OSM   H15F13110   2.020  -0.206   8.500 -1.8694  0.9655 -0.6421
  123OSM   H15G13111   2.174  -0.142   8.417 -0.2517  0.1990  1.0569
  123OSM   C16F13112   2.114  -0.329   8.360 -0.1359 -0.0369  0.1420
  123OSM   H16F13113   2.171  -0.316   8.266 -1.5320  0.1338 -0.7041
  123OSM   H16G13114   2.023  -0.392   8.357  0.4375 -0.9769  1.6171
  123OSM   C17F13115   2.210  -0.394   8.455  0.2770 -0.1191  0.2781
  123OSM   H17F13116   2.169  -0.400   8.558 -0.7583 -0.1702 -0.1356
  123OSM   H17G13117   2.303  -0.333   8.460  0.9543 -1.1859  1.0866
  123OSM   C18F13118   2.244  -0.537   8.406  0.0468 -0.3670  0.1293
  123OSM   H18F13119   2.298  -0.525   8.310  1.7991  4.3427  1.6009
  123OSM   H18G13120   2.155  -0.600   8.383 -0.0854 -0.6090  1.3010
  123OSM   H18H13121   2.306  -0.597   8.476  1.6664  1.9579  0.7273
  124OSM      N13122   2.201   2.301   6.357 -0.0743  0.3633 -0.1292
  124OSM    C1513123   2.126   2.382   6.260  0.7126  0.4593 -0.0974
  124OSM   H15A13124   2.184   2.402   6.171  0.2991 -0.6349 -0.6203
  124OSM   H15B13125   2.108   2.483   6.294 -2.6086  0.3912 -1.4234
  124OSM   H15C13126   2.028   2.345   6.233  1.2634 -0.8603 -0.3445
  124OSM    C1413127   2.114   2.276   6.475  0.0659 -0.0950 -0.2592
  124OSM   H14A13128   2.034   2.208   6.450 -0.2242 -0.3732  1.3837
  124OSM   H14B13129   2.071   2.366   6.515  2.2775 -0.2350  2.6506
  124OSM   H14C13130   2.171   2.235   6.557  0.1942 -0.0768 -0.3395
  124OSM    C1313131   2.248   2.166   6.289 -0.3222  0.4660 -0.3995
  124OSM   H13A13132   2.153   2.127   6.253 -1.4195  1.4183  1.4054
  124OSM   H13B13133   2.297   2.107   6.364 -1.2064  0.4748  0.1978
  124OSM   H13C13134   2.323   2.175   6.212  0.2267 -0.4117  0.0332
  124OSM    C1213135   2.327   2.372   6.400  0.3886  0.2527  0.0178
  124OSM   H12A13136   2.397   2.381   6.319  1.6008  0.1348  1.0340
  124OSM   H12B13137   2.375   2.304   6.469 -0.0931 -1.1580 -1.0090
  124OSM    C1113138   2.311   2.525   6.442  0.0794 -0.3837  0.0921
  124OSM   H11A13139   2.383   2.562   6.517  0.3208 -0.4002 -0.1311
  124OSM   H11B13140   2.214   2.519   6.496  0.8408 -0.7977  1.4412
  124OSM      P13141   2.433   2.669   6.261  0.3463 -0.2821  0.0841
  124OSM    O1313142   2.514   2.564   6.197  0.8832  0.0060 -0.7000
  124OSM    O1413143   2.401   2.787   6.177 -0.1556 -0.2489 -0.1211
  124OSM    O1113144   2.502   2.710   6.391 -0.5467 -0.3010 -0.2467
  124OSM    O1213145   2.303   2.599   6.316 -0.0320 -0.1411  0.4339
  124OSM    C1S13146   2.476   2.828   6.474 -0.1136 -0.4525 -0.4022
  124OSM    H1S13147   2.382   2.808   6.529  1.3305 -2.1198  1.5241
  124OSM    H1T13148   2.455   2.919   6.414  2.0558 -1.2108 -2.4337
  124OSM     NF13149   2.556   2.973   6.660  0.2587 -0.6703 -0.5945
  124OSM    HNF13150   2.595   3.062   6.635 -1.8296  1.3025  2.8477
  124OSM    C2S13151   2.590   2.862   6.577  0.0486 -0.2272  0.1700
  124OSM    H2S13152   2.585   2.773   6.644 -0.3417  0.6255  1.2755
  124OSM    C3S13153   2.731   2.886   6.510 -0.6808 -0.4407 -0.7299
  124OSM    H3S13154   2.725   2.982   6.455 -0.1217 -0.2262 -0.4187
  124OSM     O313155   2.781   2.783   6.424 -0.5427  0.2903  0.6470
  124OSM    HO313156   2.706   2.728   6.399 -0.6272  0.8555 -0.4008
  124OSM    C4S13157   2.845   2.909   6.612  0.3028  0.3991  0.0396
  124OSM    H4S13158   2.830   2.841   6.697  1.7408 -1.7253 -1.3712
  124OSM    C5S13159   2.950   2.990   6.597 -0.5287 -0.9200 -0.3541
  124OSM    H5S13160   2.967   3.033   6.498 -2.7386  1.0788  0.1085
  124OSM    C6S13161   3.064   3.024   6.687  0.1551  0.0512  0.0083
  124OSM    H6S13162   3.061   3.132   6.712 -1.3973 -0.2979  1.3831
  124OSM    H6T13163   3.157   3.003   6.630  0.3070  0.1393  0.2252
  124OSM    C7S13164   3.071   2.942   6.814 -0.1434  0.7116 -0.2989
  124OSM    H7S13165   3.075   2.833   6.792  0.0865  0.9828 -1.6513
  124OSM    H7T13166   2.977   2.965   6.869 -0.1572  0.4336 -0.2060
  124OSM    C8S13167   3.195   2.972   6.905  0.0075 -0.7481 -0.0677
  124OSM    H8S13168   3.280   2.944   6.839 -2.1573 -0.1887 -3.1665
  124OSM    H8T13169   3.192   2.896   6.986  1.4257 -1.1216 -0.3433
  124OSM    C9S13170   3.202   3.109   6.972 -0.0551  0.4887 -0.0568
  124OSM    H9S13171   3.200   3.196   6.903 -1.4645 -0.0644 -0.7185
  124OSM    H9T13172   3.304   3.100   7.017  0.9311  0.5248 -2.2246
  124OSM   C10S13173   3.093   3.111   7.071  0.2617 -0.4982  0.2325
  124OSM   H10S13174   3.059   3.011   7.106  0.4300  0.1807  2.4267
  124OSM   H10T13175   3.008   3.169   7.030  0.2497 -1.1208 -0.6536
  124OSM   C11S13176   3.128   3.181   7.199  0.1402  0.7410 -0.8073
  124OSM   H11S13177   3.040   3.210   7.260 -0.6017 -0.4465 -1.3023
  124OSM   H11T13178   3.167   3.278   7.164  1.5926 -0.4213 -2.4804
  124OSM   C12S13179   3.246   3.121   7.287 -0.1758  0.0337  0.0764
  124OSM   H12S13180   3.329   3.097   7.217 -0.1976 -0.5329  0.2462
  124OSM   H12T13181   3.206   3.021   7.311  1.6048 -0.5688  0.6522
  124OSM   C13S13182   3.273   3.207   7.412 -0.6135 -0.1885 -0.4820
  124OSM   H13S13183   3.192   3.283   7.417 -0.5510 -0.1151 -0.5925
  124OSM   H13T13184   3.364   3.270   7.399  0.2443 -1.1199  0.8519
  124OSM   C14S13185   3.281   3.123   7.534 -0.0730  0.4295 -0.2971
  124OSM   H14S13186   3.353   3.039   7.528 -1.9221 -1.1447 -0.6092
  124OSM   H14T13187   3.184   3.073   7.549  2.0421 -3.2298  1.7616
  124OSM   C15S13188   3.323   3.214   7.647  0.7929  0.3305 -0.2260
  124OSM   H15S13189   3.243   3.287   7.670  0.4666  0.4703 -1.7544
  124OSM   H15T13190   3.412   3.272   7.615  2.2827 -0.7448  1.8566
  124OSM   C16S13191   3.361   3.137   7.773  0.6211 -0.0076 -0.6705
  124OSM   H16S13192   3.430   3.055   7.744  1.1838  0.4069 -0.5087
  124OSM   H16T13193   3.276   3.074   7.808  1.3840 -0.1372  0.9835
  124OSM   C17S13194   3.436   3.215   7.882  0.0164 -0.9585  0.0025
  124OSM   H17S13195   3.523   3.259   7.830 -1.1165  0.6354 -0.5834
  124OSM   H17T13196   3.463   3.148   7.966  0.5059  1.8661  2.1791
  124OSM   C18S13197   3.348   3.324   7.943 -0.1332  0.1710  0.1942
  124OSM   H18S13198   3.314   3.395   7.864 -0.5268  1.1454  1.2283
  124OSM   H18T13199   3.404   3.390   8.013 -0.6061 -0.9847  1.6698
  124OSM   H18U13200   3.272   3.264   7.996 -0.9170  1.7232  0.8824
  124OSM    C1F13201   2.452   2.966   6.743  0.5589 -0.0825  0.7092
  124OSM     OF13202   2.396   2.856   6.770  0.2252 -0.3378 -0.0885
  124OSM    C2F13203   2.402   3.100   6.787 -0.0541 -0.3645 -1.2626
  124OSM    H2F13204   2.396   3.165   6.697 -0.4728  3.3473  1.3257
  124OSM    H2G13205   2.472   3.141   6.863  1.5091 -0.9574 -2.3405
  124OSM    C3F13206   2.264   3.080   6.854  0.2962  0.6288 -0.4920
  124OSM    H3F13207   2.265   3.008   6.938 -2.0337  0.5598 -0.4799
  124OSM    H3G13208   2.186   3.027   6.794  1.9096 -3.8641  1.1635
  124OSM    C4F13209   2.210   3.209   6.911  0.0741 -0.0768 -0.5684
  124OSM    H4F13210   2.100   3.220   6.922  0.4655  1.6490  2.4535
  124OSM    H4G13211   2.248   3.291   6.847 -0.1670 -1.5909 -2.6991
  124OSM    C5F13212   2.251   3.234   7.059 -0.1672 -0.3743  0.1566
  124OSM    H5F13213   2.361   3.230   7.043 -0.5180 -1.4091 -2.1084
  124OSM    H5G13214   2.212   3.152   7.122  1.7644 -1.8296 -0.4981
  124OSM    C6F13215   2.215   3.369   7.116 -0.0197  0.8881  0.8116
  124OSM    H6F13216   2.106   3.387   7.121 -0.5786 -0.8985 -3.1290
  124OSM    H6G13217   2.275   3.442   7.058 -0.4696  0.5508 -0.0818
  124OSM    C7F13218   2.268   3.388   7.252  0.5366 -0.3233 -0.9337
  124OSM    H7F13219   2.260   3.492   7.290  1.3171 -0.4348 -0.4502
  124OSM    H7G13220   2.377   3.369   7.246  0.6876  0.2395 -0.0818
  124OSM    C8F13221   2.187   3.317   7.365  0.4683  0.1489  0.5969
  124OSM    H8F13222   2.147   3.224   7.319 -2.0354  2.9074 -3.1667
  124OSM    H8G13223   2.098   3.382   7.382  0.2642 -0.1075  0.5166
  124OSM    C9F13224   2.256   3.283   7.493 -0.8596 -0.5156  0.5387
  124OSM    H9F13225   2.360   3.247   7.490 -1.2027 -1.4765 -0.2146
  124OSM   C10F13226   2.198   3.278   7.615 -0.4467 -0.2565 -0.4529
  124OSM   H10F13227   2.249   3.249   7.708 -2.9948 -1.4063  0.6249
  124OSM   C11F13228   2.049   3.316   7.643  0.2000  0.4566 -0.0255
  124OSM   H11F13229   1.981   3.229   7.641  0.5912  0.0686  2.2982
  124OSM   H11G13230   2.015   3.387   7.565  1.6527  0.0419 -1.0534
  124OSM   C12F13231   2.024   3.371   7.778  0.0202 -0.6877  0.8823
  124OSM   H12F13232   1.920   3.408   7.771 -0.7100 -2.6749  1.0233
  124OSM   H12G13233   2.095   3.452   7.807 -2.2250  1.2601  1.0558
  124OSM   C13F13234   2.042   3.263   7.888 -0.4017 -0.0240  0.5292
  124OSM   H13F13235   2.151   3.256   7.909 -0.1942  1.5099  0.0155
  124OSM   H13G13236   2.008   3.160   7.864  0.9421 -0.1820 -0.8382
  124OSM   C14F13237   1.977   3.304   8.017  0.4922 -0.4125  0.3149
  124OSM   H14F13238   2.026   3.398   8.048 -1.2459  1.3315 -2.0193
  124OSM   H14G13239   1.998   3.227   8.094  2.8109 -1.2034 -1.0267
  124OSM   C15F13240   1.827   3.325   8.004 -0.3706 -0.0809 -0.7057
  124OSM   H15F13241   1.782   3.226   7.981 -2.6665  0.6968  0.2781
  124OSM   H15G13242   1.792   3.400   7.930  1.6396 -2.3627 -4.1213
  124OSM   C16F13243   1.765   3.342   8.144  0.0654 -0.1111 -0.0615
  124OSM   H16F13244   1.759   3.250   8.205 -2.3316  0.0034 -0.0657
  124OSM   H16G13245   1.657   3.369   8.134  0.3342  1.0095 -0.0329
  124OSM   C17F13246   1.838   3.446   8.236  1.0285  0.6065  0.5836
  124OSM   H17F13247   1.838   3.540   8.176  0.2120  0.2365  0.0065
  124OSM   H17G13248   1.945   3.421   8.256  0.6900  0.7963  2.8054
  124OSM   C18F13249   1.763   3.447   8.368  0.4484 -0.3505  0.1021
  124OSM   H18F13250   1.676   3.515   8.363  1.5700  1.0803 -0.2599
  124OSM   H18G13251   1.812   3.498   8.453  3.5121 -2.8919 -0.0335
  124OSM   H18H13252   1.736   3.343   8.399  4.0504 -1.0333  1.2751
  125OSM      N13253   4.758   1.920   6.137 -0.0889  0.5506 -0.4624
  125OSM    C1513254   4.807   1.852   6.262  0.1940 -0.4825  0.1673
  125OSM   H15A13255   4.725   1.804   6.313 -0.3053 -2.1102 -2.0533
  125OSM   H15B13256   4.850   1.927   6.326  1.8705 -1.4775  0.2383
  125OSM   H15C13257   4.889   1.784   6.242  1.8457  0.3557  3.8028
  125OSM    C1413258   4.718   1.820   6.035 -0.0752 -0.3427 -0.0086
  125OSM   H14A13259   4.651   1.749   6.081 -1.0758  0.6509  0.0916
  125OSM   H14B13260   4.807   1.773   5.995  0.8202 -0.1302  1.6766
  125OSM   H14C13261   4.670   1.864   5.949  1.1163 -0.1183 -0.5648
  125OSM    C1313262   4.636   2.000   6.171  0.9387  0.1474  0.4944
  125OSM   H13A13263   4.563   1.938   6.221  1.0507  0.3881  0.9672
  125OSM   H13B13264   4.595   2.043   6.081 -0.1836 -0.5727  0.6530
  125OSM   H13C13265   4.651   2.082   6.240 -1.1332  0.0506  1.0767
  125OSM    C1213266   4.873   2.001   6.080  0.5117 -1.1741 -0.2426
  125OSM   H12A13267   4.898   2.073   6.156 -1.4978 -1.4550  0.7262
  125OSM   H12B13268   4.837   2.060   5.997  0.8492 -0.4989  0.0840
  125OSM    C1113269   5.001   1.934   6.030  0.1975  0.7394 -0.9490
  125OSM   H11A13270   5.058   2.021   5.990  2.5978  0.0365  0.8055
  125OSM   H11B13271   4.996   1.867   5.942 -2.7330 -1.5420  0.8613
  125OSM      P13272   5.227   1.857   6.117  0.0345  0.1335  0.5737
  125OSM    O1313273   5.246   1.739   6.030  0.0039  0.0581 -0.1898
  125OSM    O1413274   5.283   1.986   6.072  0.0095  0.5148 -0.0199
  125OSM    O1113275   5.278   1.834   6.263 -0.4754 -0.0472 -0.0354
  125OSM    O1213276   5.074   1.879   6.143 -0.2925 -0.3129 -0.6824
  125OSM    C1S13277   5.200   1.756   6.358 -0.5501  0.0920  0.4146
  125OSM    H1S13278   5.249   1.657   6.356  0.8500  0.7713  0.3169
  125OSM    H1T13279   5.093   1.746   6.328 -0.3822 -3.8585  0.8455
  125OSM     NF13280   5.166   1.720   6.597  0.4708  0.2097  0.0494
  125OSM    HNF13281   5.067   1.726   6.607  0.1841  1.0863 -2.7720
  125OSM    C2S13282   5.202   1.815   6.500  0.4413 -0.5559 -0.2017
  125OSM    H2S13283   5.303   1.852   6.526 -0.0005  0.4392  0.1321
  125OSM    C3S13284   5.117   1.945   6.505  0.0831  0.1633  0.3888
  125OSM    H3S13285   5.009   1.920   6.505 -0.0767  0.7769 -1.0914
  125OSM     O313286   5.142   2.035   6.398 -0.3252 -0.1478 -0.5539
  125OSM    HO313287   5.191   1.975   6.341  0.0993  0.0202 -0.3635
  125OSM    C4S13288   5.137   2.014   6.638 -0.6992 -0.0628  0.0333
  125OSM    H4S13289   5.068   1.978   6.716 -1.3524  3.8402  1.3447
  125OSM    C5S13290   5.229   2.107   6.664 -0.3739  0.6901  0.3439
  125OSM    H5S13291   5.301   2.134   6.586  3.0797  1.1750  3.5736
  125OSM    C6S13292   5.263   2.181   6.791 -0.8390 -0.0685  0.3663
  125OSM    H6S13293   5.237   2.288   6.777  0.1820  0.2138  0.5597
  125OSM    H6T13294   5.367   2.177   6.830 -1.3829 -3.3244  1.6714
  125OSM    C7S13295   5.165   2.153   6.915 -0.3291  0.6269  1.1091
  125OSM    H7S13296   5.156   2.045   6.939 -2.2767  0.3724 -0.6011
  125OSM    H7T13297   5.065   2.184   6.879 -1.2795 -1.4397  1.8884
  125OSM    C8S13298   5.203   2.240   7.037  0.3868 -0.7823  0.8130
  125OSM    H8S13299   5.193   2.347   7.009  1.3154 -0.7718  0.5259
  125OSM    H8T13300   5.306   2.235   7.076  1.3941 -2.5576 -1.9298
  125OSM    C9S13301   5.101   2.218   7.153  0.0612 -0.1020  0.5510
  125OSM    H9S13302   5.081   2.108   7.156  0.3481 -0.1036  2.4285
  125OSM    H9T13303   5.003   2.262   7.124  1.0770  1.8603  0.0374
  125OSM   C10S13304   5.136   2.281   7.282  0.4529 -0.9914 -0.4377
  125OSM   H10S13305   5.135   2.391   7.266  0.7663 -0.7870  0.8424
  125OSM   H10T13306   5.234   2.239   7.314 -0.1755 -0.4109  2.4093
  125OSM   C11S13307   5.035   2.251   7.391 -0.3166  0.6880  0.1104
  125OSM   H11S13308   4.995   2.148   7.387 -2.6096  1.4773  1.5300
  125OSM   H11T13309   4.944   2.311   7.370 -1.1083  0.0402  1.6421
  125OSM   C12S13310   5.071   2.273   7.540  0.6553 -0.4847  0.3399
  125OSM   H12S13311   5.099   2.380   7.553  0.8897  0.0326 -3.7432
  125OSM   H12T13312   5.163   2.211   7.554 -0.2498 -2.2994 -1.4720
  125OSM   C13S13313   4.949   2.229   7.618 -0.1655 -0.0351 -0.1198
  125OSM   H13S13314   4.944   2.122   7.589 -2.2412  0.6372 -2.3796
  125OSM   H13T13315   4.852   2.274   7.588 -0.8757 -2.3880 -1.4545
  125OSM   C14S13316   4.959   2.222   7.770  0.2646 -0.0497 -0.2366
  125OSM   H14S13317   4.950   2.329   7.800  2.0729 -0.4244  1.8308
  125OSM   H14T13318   5.061   2.183   7.789 -0.7998 -2.4886  0.6894
  125OSM   C15S13319   4.849   2.139   7.847 -0.0392 -0.0011 -0.4292
  125OSM   H15S13320   4.843   2.036   7.805 -0.7798 -0.1175 -0.0484
  125OSM   H15T13321   4.743   2.171   7.839  0.2926  0.9438 -1.0874
  125OSM   C16S13322   4.872   2.120   7.999 -0.1871 -0.4658 -0.2086
  125OSM   H16S13323   4.888   2.221   8.044 -1.4195 -1.0593  1.5940
  125OSM   H16T13324   4.966   2.062   8.012  0.1099 -0.3810 -1.8436
  125OSM   C17S13325   4.759   2.042   8.070  0.6281  0.0590 -0.5833
  125OSM   H17S13326   4.743   1.944   8.021 -0.7217 -0.6686  1.2668
  125OSM   H17T13327   4.669   2.106   8.056  0.5214 -0.0782 -0.5216
  125OSM   C18S13328   4.786   2.005   8.217  0.6728  0.1082 -0.1667
  125OSM   H18S13329   4.694   1.955   8.252  0.0549  1.4753  0.2099
  125OSM   H18T13330   4.793   2.101   8.273 -1.4402  0.0479  0.2275
  125OSM   H18U13331   4.877   1.942   8.219  1.1796  0.8526  0.5760
  125OSM    C1F13332   5.244   1.615   6.625 -0.1702 -0.6037 -0.1037
  125OSM     OF13333   5.362   1.614   6.592 -0.4208 -0.5035  0.6132
  125OSM    C2F13334   5.187   1.494   6.681 -0.1081  0.1180  0.4675
  125OSM    H2F13335   5.177   1.422   6.596 -2.1893  2.4633 -1.3256
  125OSM    H2G13336   5.088   1.508   6.729 -1.6519 -0.0213 -2.5002
  125OSM    C3F13337   5.273   1.445   6.802  0.1028 -0.4619 -0.0480
  125OSM    H3F13338   5.381   1.435   6.776  0.4380 -0.2037  1.2082
  125OSM    H3G13339   5.236   1.343   6.826  0.8562 -0.7916 -0.2622
  125OSM    C4F13340   5.277   1.530   6.930 -0.5352 -0.1045  0.4708
  125OSM    H4F13341   5.199   1.607   6.912 -1.7772 -1.3459  0.4997
  125OSM    H4G13342   5.373   1.586   6.938 -0.5765  0.2332 -1.2197
  125OSM    C5F13343   5.269   1.453   7.060  0.7786 -0.5541  0.1756
  125OSM    H5F13344   5.350   1.376   7.063  1.1985 -0.2598 -2.5989
  125OSM    H5G13345   5.169   1.405   7.058  1.4527 -2.0236  0.8574
  125OSM    C6F13346   5.279   1.530   7.194  0.1143 -0.1789 -0.0612
  125OSM    H6F13347   5.213   1.620   7.200 -1.4396 -1.4649  4.0776
  125OSM    H6G13348   5.387   1.552   7.205  0.0455 -0.4604  1.2034
  125OSM    C7F13349   5.241   1.435   7.312  0.3493 -0.1621 -0.2249
  125OSM    H7F13350   5.293   1.341   7.284 -0.6874 -1.0134  0.6318
  125OSM    H7G13351   5.134   1.405   7.303  0.1754  0.8754 -1.9617
  125OSM    C8F13352   5.265   1.494   7.452 -0.1102  0.0223 -0.7746
  125OSM    H8F13353   5.186   1.567   7.477  0.3539  0.6782 -1.2232
  125OSM    H8G13354   5.354   1.560   7.450 -0.7824  0.9238 -0.9528
  125OSM    C9F13355   5.291   1.391   7.557  0.2729  0.2311 -0.6200
  125OSM    H9F13356   5.393   1.349   7.562  0.2531 -0.0409 -2.0917
  125OSM   C10F13357   5.200   1.347   7.647 -0.2768  0.0436  0.3997
  125OSM   H10F13358   5.237   1.277   7.722  0.6791 -1.2844 -1.2643
  125OSM   C11F13359   5.059   1.390   7.666 -0.2190  0.9436  0.8370
  125OSM   H11F13360   4.999   1.330   7.594  1.1132  2.0022 -1.1750
  125OSM   H11G13361   5.049   1.500   7.655  2.1079  1.0852 -0.1791
  125OSM   C12F13362   5.009   1.354   7.805 -0.3897  0.0470  0.1999
  125OSM   H12F13363   5.020   1.245   7.821  0.1988  0.3740  2.1085
  125OSM   H12G13364   4.900   1.375   7.810 -0.1304  1.3689  0.4390
  125OSM   C13F13365   5.073   1.440   7.920  0.7502  0.8390 -0.0673
  125OSM   H13F13366   5.018   1.537   7.925 -1.1405 -0.2265  0.5119
  125OSM   H13G13367   5.171   1.475   7.882  0.4646 -0.7428 -2.3377
  125OSM   C14F13368   5.063   1.372   8.051  0.3023  0.6440  0.5806
  125OSM   H14F13369   5.123   1.440   8.115  0.7303 -0.3512  1.2605
  125OSM   H14G13370   5.107   1.270   8.052 -1.2699 -0.0414  1.4820
  125OSM   C15F13371   4.920   1.354   8.111 -0.1725 -0.5356  0.0691
  125OSM   H15F13372   4.851   1.276   8.073  1.9326 -1.4812 -1.9077
  125OSM   H15G13373   4.867   1.451   8.111  0.4967 -0.1366  2.3536
  125OSM   C16F13374   4.932   1.291   8.245 -0.2663 -0.4574 -0.3697
  125OSM   H16F13375   5.037   1.296   8.281  0.4634  0.5420 -2.5524
  125OSM   H16G13376   4.919   1.181   8.247  0.1973 -0.5499 -2.0026
  125OSM   C17F13377   4.838   1.368   8.339 -0.2841 -0.1275  0.1414
  125OSM   H17F13378   4.732   1.345   8.312  0.0615 -0.9156 -0.5836
  125OSM   H17G13379   4.848   1.478   8.326 -1.1331  0.1422  1.6766
  125OSM   C18F13380   4.877   1.350   8.486  0.4095  0.2702 -0.5240
  125OSM   H18F13381   4.887   1.241   8.508 -3.1447 -0.2061 -0.9418
  125OSM   H18G13382   4.803   1.384   8.561  0.3425 -1.1794  0.0787
  125OSM   H18H13383   4.970   1.410   8.498 -1.4808  3.7323 -2.3275
  126OSM      N13384   2.438   6.354   6.375  0.0089 -0.6852  0.3274
  126OSM    C1513385   2.453   6.310   6.519 -0.5492 -0.1680  1.0006
  126OSM   H15A13386   2.359   6.273   6.557 -2.1909  2.4888 -0.3305
  126OSM   H15B13387   2.477   6.397   6.578  0.3260  1.3589 -1.5318
  126OSM   H15C13388   2.532   6.238   6.538 -0.5353  0.5571  3.9130
  126OSM    C1413389   2.539   6.460   6.333 -0.3617  0.1168  0.4768
  126OSM   H14A13390   2.634   6.410   6.325 -0.3473  0.2237 -0.0277
  126OSM   H14B13391   2.553   6.535   6.410 -0.7227  1.7551 -1.0333
  126OSM   H14C13392   2.500   6.510   6.246 -0.8005 -0.0587  0.5696
  126OSM    C1313393   2.459   6.236   6.296  0.5872  0.2896 -0.0863
  126OSM   H13A13394   2.398   6.152   6.328  1.6962 -0.8920 -1.0249
  126OSM   H13B13395   2.559   6.196   6.292 -0.2641 -1.7730 -2.1178
  126OSM   H13C13396   2.420   6.251   6.196 -0.3413  0.3415  0.2715
  126OSM    C1213397   2.292   6.393   6.362  0.6566  0.2946 -0.0694
  126OSM   H12A13398   2.272   6.396   6.256  0.4833 -1.2852 -0.1018
  126OSM   H12B13399   2.289   6.496   6.392 -3.5553  0.8640 -2.0172
  126OSM    C1113400   2.175   6.310   6.433  0.5747 -0.3331 -0.5474
  126OSM   H11A13401   2.184   6.211   6.384 -0.9314  0.0393 -1.6099
  126OSM   H11B13402   2.084   6.357   6.391  1.9258  1.6360 -1.3064
  126OSM      P13403   2.129   6.427   6.669  0.3345 -0.0958  0.2566
  126OSM    O1313404   2.250   6.493   6.725 -0.0131 -0.0345  0.7864
  126OSM    O1413405   2.030   6.517   6.605 -0.0303 -0.1670  0.0929
  126OSM    O1113406   2.056   6.353   6.791 -0.1688  0.2737  0.1876
  126OSM    O1213407   2.180   6.312   6.577 -0.7437  0.0947  1.0388
  126OSM    C1S13408   2.117   6.248   6.864  0.0048  0.2098  0.2802
  126OSM    H1S13409   2.227   6.238   6.852  0.3128  0.7223  2.3738
  126OSM    H1T13410   2.065   6.150   6.852 -1.8472  1.1908  0.1221
  126OSM     NF13411   2.162   6.162   7.083 -0.2762 -0.5992 -0.0466
  126OSM    HNF13412   2.094   6.093   7.105 -1.0151 -0.2636 -1.2092
  126OSM    C2S13413   2.108   6.278   7.017 -0.4614 -0.8134 -0.6033
  126OSM    H2S13414   2.170   6.367   7.042 -1.5457 -0.4755  0.9862
  126OSM    C3S13415   1.963   6.322   7.055 -0.0229 -0.8887 -0.7339
  126OSM    H3S13416   1.894   6.238   7.035 -0.6625  0.0485 -2.6277
  126OSM     O313417   1.917   6.439   6.988 -0.1880  0.5299  0.1259
  126OSM    HO313418   1.969   6.435   6.908 -1.1783 -4.1094 -0.4709
  126OSM    C4S13419   1.948   6.348   7.211  0.3300  0.0705 -0.1218
  126OSM    H4S13420   1.961   6.258   7.274 -0.2794 -0.4354 -0.7054
  126OSM    C5S13421   1.957   6.471   7.274  0.2152  0.4159 -0.0540
  126OSM    H5S13422   1.968   6.554   7.203  0.3039 -0.4992 -1.1145
  126OSM    C6S13423   1.950   6.498   7.417 -0.0048 -0.1497  0.3442
  126OSM    H6S13424   1.877   6.580   7.433  1.0272  0.7626  0.4429
  126OSM    H6T13425   2.044   6.547   7.451 -0.5629 -1.1907  3.5599
  126OSM    C7S13426   1.922   6.385   7.520  0.5293 -0.1675 -0.0057
  126OSM    H7S13427   2.004   6.311   7.518 -0.1078 -0.9770  2.6655
  126OSM    H7T13428   1.819   6.344   7.517  0.4606 -0.3345  3.3956
  126OSM    C8S13429   1.914   6.441   7.665 -0.7060 -0.2416 -0.3818
  126OSM    H8S13430   1.832   6.514   7.685 -1.7391 -1.3457 -0.5294
  126OSM    H8T13431   2.017   6.483   7.665  0.1270 -2.1626 -2.6822
  126OSM    C9S13432   1.916   6.330   7.769 -0.4299 -0.2262  0.0906
  126OSM    H9S13433   2.013   6.274   7.766 -0.4399 -0.2605  0.5011
  126OSM    H9T13434   1.841   6.250   7.751  0.0369 -0.5675 -0.3724
  126OSM   C10S13435   1.883   6.374   7.911 -1.0747 -0.9893 -0.5149
  126OSM   H10S13436   1.805   6.453   7.903 -0.0179  0.0268 -0.9720
  126OSM   H10T13437   1.970   6.432   7.948 -1.3853 -0.9555  0.1661
  126OSM   C11S13438   1.846   6.257   8.003  0.0781  0.3878 -0.4755
  126OSM   H11S13439   1.938   6.195   8.003  0.2700  0.6452  0.8741
  126OSM   H11T13440   1.766   6.196   7.957  1.3985 -3.3302  1.9317
  126OSM   C12S13441   1.810   6.293   8.147 -1.1687 -0.3949  0.7561
  126OSM   H12S13442   1.892   6.360   8.182  0.1674 -1.3747 -0.4274
  126OSM   H12T13443   1.816   6.197   8.203 -0.3558 -0.9816 -0.3042
  126OSM   C13S13444   1.669   6.356   8.170  0.4562 -0.0924  0.6259
  126OSM   H13S13445   1.606   6.266   8.154  0.6815  0.1703 -1.8091
  126OSM   H13T13446   1.647   6.423   8.084  0.4188  0.2340  0.8871
  126OSM   C14S13447   1.624   6.417   8.298  0.2285 -0.2935 -0.3245
  126OSM   H14S13448   1.516   6.443   8.293  1.2036  4.2736 -0.0525
  126OSM   H14T13449   1.675   6.516   8.307  0.9310 -0.7901  1.5364
  126OSM   C15S13450   1.663   6.346   8.428 -0.0603  0.2846 -0.0369
  126OSM   H15S13451   1.773   6.336   8.427  0.0365  1.3293 -0.7387
  126OSM   H15T13452   1.624   6.242   8.426 -0.9406  0.6111 -1.1032
  126OSM   C16S13453   1.616   6.422   8.558  0.7719  0.2990  0.5907
  126OSM   H16S13454   1.613   6.352   8.644  0.2165  1.9061  1.9246
  126OSM   H16T13455   1.508   6.442   8.542  0.5959 -0.3750  0.9285
  126OSM   C17S13456   1.683   6.550   8.599 -0.5304 -0.1743 -0.2356
  126OSM   H17S13457   1.618   6.604   8.671 -0.3082  2.3312 -1.8581
  126OSM   H17T13458   1.692   6.609   8.506  1.7978  0.3203  0.2814
  126OSM   C18S13459   1.816   6.525   8.682  0.7009  0.2336 -0.3250
  126OSM   H18S13460   1.854   6.624   8.713  1.4231  0.2007 -1.0762
  126OSM   H18T13461   1.890   6.464   8.627  1.3394 -0.1959  0.9981
  126OSM   H18U13462   1.793   6.470   8.775 -0.7022 -0.1152 -0.8619
  126OSM    C1F13463   2.288   6.127   7.083  0.4933  0.5665  0.2895
  126OSM     OF13464   2.367   6.195   7.017  0.1240  0.0766  0.2505
  126OSM    C2F13465   2.328   6.020   7.173  0.3979 -0.2759  0.3826
  126OSM    H2F13466   2.436   6.001   7.156 -0.1129 -2.3067 -0.8012
  126OSM    H2G13467   2.277   5.922   7.159 -0.7461  0.3477  0.0858
  126OSM    C3F13468   2.312   6.054   7.328 -0.2704 -0.0280  0.5001
  126OSM    H3F13469   2.209   6.095   7.341 -0.4079 -0.4691  0.8644
  126OSM    H3G13470   2.374   6.143   7.351  2.0500 -1.4832  0.0020
  126OSM    C4F13471   2.349   5.937   7.421  0.0389  0.5464 -0.3205
  126OSM    H4F13472   2.450   5.907   7.387  1.1640  1.0355  2.4751
  126OSM    H4G13473   2.271   5.859   7.407 -0.2584  0.2302  2.7235
  126OSM    C5F13474   2.376   5.964   7.573  0.0404 -0.0717  0.3100
  126OSM    H5F13475   2.448   6.048   7.570  2.8099 -2.3518  0.7241
  126OSM    H5G13476   2.426   5.881   7.628 -1.7775 -1.0405  0.5443
  126OSM    C6F13477   2.255   5.997   7.670  0.2857 -0.1311 -0.3490
  126OSM    H6F13478   2.203   5.900   7.679 -2.6998  1.2835 -1.7322
  126OSM    H6G13479   2.194   6.080   7.629  0.0451  1.2298  2.6313
  126OSM    C7F13480   2.310   6.035   7.807 -0.0536 -0.1477 -0.4873
  126OSM    H7F13481   2.341   6.142   7.803  0.4653 -0.2383  0.8180
  126OSM    H7G13482   2.402   5.983   7.840 -0.2929 -1.1754 -1.4286
  126OSM    C8F13483   2.205   6.013   7.916  1.1378  0.3933 -0.2621
  126OSM    H8F13484   2.108   6.064   7.896  1.1350  0.3434 -0.3760
  126OSM    H8G13485   2.242   6.067   8.006  0.9113 -1.6992  1.1377
  126OSM    C9F13486   2.165   5.871   7.951 -0.3764 -0.9475 -0.0647
  126OSM    H9F13487   2.123   5.813   7.868  1.3713  0.3088 -1.8803
  126OSM   C10F13488   2.186   5.810   8.069 -0.0988  0.3467 -0.9491
  126OSM   H10F13489   2.136   5.713   8.080  0.0050 -0.1524 -4.2346
  126OSM   C11F13490   2.249   5.865   8.191 -0.0496 -0.1512  0.1399
  126OSM   H11F13491   2.290   5.966   8.170  1.4378 -0.8128 -0.1886
  126OSM   H11G13492   2.336   5.805   8.223 -1.4100 -1.9913  0.4593
  126OSM   C12F13493   2.149   5.872   8.311 -0.5868  0.6744 -0.3745
  126OSM   H12F13494   2.097   5.775   8.323  1.4860 -0.7719 -2.4752
  126OSM   H12G13495   2.075   5.953   8.294  1.1324  2.3436 -0.0692
  126OSM   C13F13496   2.222   5.898   8.443 -0.1474 -0.8340  0.1964
  126OSM   H13F13497   2.271   5.997   8.436 -1.3378 -0.2737 -0.3728
  126OSM   H13G13498   2.303   5.822   8.434  0.9012  0.0724  1.8321
  126OSM   C14F13499   2.149   5.879   8.568  0.0843  0.6048  0.0573
  126OSM   H14F13500   2.207   5.828   8.647  1.6362 -0.5168 -1.7459
  126OSM   H14G13501   2.067   5.806   8.547  1.1671  0.0369 -2.3188
  126OSM   C15F13502   2.093   6.006   8.627  0.4582  0.3692 -0.0104
  126OSM   H15F13503   2.026   6.056   8.553  0.6691  0.7559  0.0572
  126OSM   H15G13504   2.179   6.077   8.633  1.7013 -1.1136 -0.0633
  126OSM   C16F13505   2.027   5.992   8.762  0.2238 -0.2206 -0.7675
  126OSM   H16F13506   2.097   6.038   8.835 -0.3196 -1.0674  0.2985
  126OSM   H16G13507   2.011   5.888   8.796  0.9237  0.6563  2.4497
  126OSM   C17F13508   1.887   6.052   8.772 -0.7641 -0.3687  0.0059
  126OSM   H17F13509   1.895   6.154   8.731 -1.8694 -0.2409  0.0952
  126OSM   H17G13510   1.860   6.066   8.879  0.2322  1.0382  0.0748
  126OSM   C18F13511   1.776   5.960   8.716 -0.2201 -0.7814 -0.4091
  126OSM   H18F13512   1.742   5.881   8.786 -2.1971 -1.0453 -1.6106
  126OSM   H18G13513   1.813   5.899   8.630 -0.1447 -1.0066 -0.2180
  126OSM   H18H13514   1.688   6.016   8.678 -0.7523  0.5712  2.7013
  127OSM      N13515   0.689   0.511   5.880 -0.6209 -0.4839  0.3962
  127OSM    C1513516   0.725   0.554   5.744  1.0194  0.4886 -1.0175
  127OSM   H15A13517   0.673   0.487   5.676  1.1520 -0.3577 -0.2982
  127OSM   H15B13518   0.831   0.552   5.724  0.8446  0.7493 -2.0310
  127OSM   H15C13519   0.683   0.651   5.726  1.5975  0.5893 -1.8602
  127OSM    C1413520   0.546   0.479   5.884 -0.3492  0.1106 -0.5748
  127OSM   H14A13521   0.533   0.393   5.820 -0.2612 -1.3457  1.3236
  127OSM   H14B13522   0.482   0.557   5.846 -0.5985 -0.4540 -1.3126
  127OSM   H14C13523   0.525   0.454   5.987  3.4273  0.4156  0.3329
  127OSM    C1313524   0.759   0.383   5.905  0.3231  0.1511  0.3286
  127OSM   H13A13525   0.722   0.308   5.836 -0.2926 -1.2591  2.1301
  127OSM   H13B13526   0.738   0.339   6.002 -0.4515 -3.6299 -1.4406
  127OSM   H13C13527   0.865   0.390   5.886  0.3037  1.9607  0.7926
  127OSM    C1213528   0.737   0.616   5.975  0.1070 -0.3685 -0.6050
  127OSM   H12A13529   0.688   0.711   5.958  1.0434 -0.0558 -1.6231
  127OSM   H12B13530   0.839   0.643   5.953 -0.3276  1.7363 -0.1737
  127OSM    C1113531   0.713   0.584   6.125  0.5599 -0.2611  0.1674
  127OSM   H11A13532   0.773   0.655   6.185  2.8278  0.6000 -2.9699
  127OSM   H11B13533   0.749   0.484   6.158  1.4038 -0.5279 -1.4823
  127OSM      P13534   0.482   0.708   6.163  0.0113 -0.0057  0.3022
  127OSM    O1313535   0.531   0.803   6.060  0.3173 -0.3688 -0.1257
  127OSM    O1413536   0.342   0.660   6.155 -0.2895  0.8833  0.0800
  127OSM    O1113537   0.518   0.763   6.305 -0.3750 -0.0886  0.0459
  127OSM    O1213538   0.579   0.581   6.157 -0.5723  0.2318  0.4974
  127OSM    C1S13539   0.470   0.703   6.421 -0.0814  0.7317 -0.1694
  127OSM    H1S13540   0.551   0.638   6.461 -0.9818 -0.3232 -0.0535
  127OSM    H1T13541   0.385   0.634   6.404  0.8280 -0.3944 -0.2313
  127OSM     NF13542   0.403   0.741   6.656 -0.6694 -0.0800 -0.0013
  127OSM    HNF13543   0.309   0.731   6.687 -0.6800  0.2406  0.0689
  127OSM    C2S13544   0.418   0.808   6.532  0.1320  0.3514 -0.0875
  127OSM    H2S13545   0.503   0.879   6.544  0.2076  0.1122  0.8173
  127OSM    C3S13546   0.288   0.887   6.484  0.4901  0.3806  0.2369
  127OSM    H3S13547   0.213   0.806   6.472  0.3354  0.6993 -1.0820
  127OSM     O313548   0.291   0.950   6.354  0.0744  0.3762 -0.0720
  127OSM    HO313549   0.367   0.914   6.307  0.7299  2.2597 -0.4910
  127OSM    C4S13550   0.233   0.979   6.591  0.0723  0.0875  0.0777
  127OSM    H4S13551   0.153   0.940   6.656 -0.9889 -0.8581 -1.7586
  127OSM    C5S13552   0.266   1.110   6.606  1.3555 -0.4307  0.3003
  127OSM    H5S13553   0.334   1.162   6.536 -2.7017  4.3291 -0.4472
  127OSM    C6S13554   0.209   1.204   6.713  0.6285 -1.2142 -0.9027
  127OSM    H6S13555   0.105   1.168   6.731  0.7598 -2.2140 -2.0704
  127OSM    H6T13556   0.213   1.310   6.680  0.9255 -1.2057 -0.8397
  127OSM    C7S13557   0.305   1.191   6.830  0.4788 -0.1321 -0.8154
  127OSM    H7S13558   0.287   1.280   6.894 -0.7681 -0.4395 -0.7107
  127OSM    H7T13559   0.406   1.208   6.789  0.2902  0.0162 -1.2200
  127OSM    C8S13560   0.287   1.073   6.923  0.1059  0.6265 -0.2568
  127OSM    H8S13561   0.308   0.982   6.862  0.0946  2.3796 -2.9403
  127OSM    H8T13562   0.184   1.059   6.964  0.4907 -0.5186  0.3392
  127OSM    C9S13563   0.373   1.076   7.050  0.0754 -0.4493 -0.0601
  127OSM    H9S13564   0.334   1.154   7.119  0.3518  0.1480 -0.5677
  127OSM    H9T13565   0.476   1.106   7.020  0.1950 -0.6789  0.1203
  127OSM   C10S13566   0.380   0.940   7.113  0.5508 -0.5627  0.0692
  127OSM   H10S13567   0.449   0.881   7.048  1.4589 -0.5604  1.0201
  127OSM   H10T13568   0.277   0.898   7.115  0.6217 -0.7260  0.4562
  127OSM   C11S13569   0.440   0.935   7.257 -0.4576  0.5456 -0.2040
  127OSM   H11S13570   0.551   0.943   7.258 -0.4910  1.3662  2.9256
  127OSM   H11T13571   0.416   0.830   7.285 -3.3106  0.6894 -1.9599
  127OSM   C12S13572   0.385   1.040   7.356  0.0484  0.1183 -0.4192
  127OSM   H12S13573   0.276   1.049   7.339  0.2232  2.9465 -0.3512
  127OSM   H12T13574   0.440   1.131   7.324 -0.4569  0.5561 -0.0383
  127OSM   C13S13575   0.410   1.015   7.504  0.1988  0.2694 -0.8361
  127OSM   H13S13576   0.339   0.933   7.531  3.5321 -2.8716 -1.3175
  127OSM   H13T13577   0.390   1.104   7.568  1.7762 -1.4958  2.2050
  127OSM   C14S13578   0.547   0.962   7.548  0.0991 -0.0705 -0.2339
  127OSM   H14S13579   0.622   1.022   7.493  0.1624 -0.2490 -0.3439
  127OSM   H14T13580   0.568   0.856   7.518  1.1370 -0.1527  0.7551
  127OSM   C15S13581   0.572   0.977   7.702 -0.4183  0.6232  0.3235
  127OSM   H15S13582   0.554   1.082   7.732 -0.9722  0.8914 -0.9135
  127OSM   H15T13583   0.682   0.959   7.702 -0.7522 -1.8065  2.2512
  127OSM   C16S13584   0.501   0.886   7.794  0.2483 -0.5880 -0.1955
  127OSM   H16S13585   0.536   0.781   7.784 -0.2379 -0.9098  1.2986
  127OSM   H16T13586   0.393   0.880   7.771  0.1421 -3.0549  0.7780
  127OSM   C17S13587   0.525   0.921   7.946 -0.6461 -0.7186 -0.0303
  127OSM   H17S13588   0.490   1.024   7.968  0.2691 -0.6406  1.0565
  127OSM   H17T13589   0.628   0.933   7.986 -0.8085  0.8243 -0.0573
  127OSM   C18S13590   0.445   0.838   8.041  0.3353 -0.0702  0.0189
  127OSM   H18S13591   0.343   0.823   7.999  0.8388 -1.6123 -0.6786
  127OSM   H18T13592   0.444   0.890   8.139 -0.9736 -0.2392  0.1088
  127OSM   H18U13593   0.485   0.736   8.058 -0.9844 -0.9426 -1.9493
  127OSM    C1F13594   0.499   0.683   6.729 -0.3655 -0.1569  0.0705
  127OSM     OF13595   0.615   0.684   6.688 -0.1709  0.2243 -0.0774
  127OSM    C2F13596   0.445   0.614   6.854 -0.2365  0.0051 -0.6995
  127OSM    H2F13597   0.387   0.529   6.812  3.1196 -1.4016 -2.6009
  127OSM    H2G13598   0.370   0.670   6.914  1.3301  0.7146  0.6406
  127OSM    C3F13599   0.560   0.557   6.939 -0.3829  0.6735 -0.0616
  127OSM    H3F13600   0.626   0.641   6.968 -0.8333  1.0883 -0.2304
  127OSM    H3G13601   0.615   0.485   6.875  1.2932  1.9437 -0.0729
  127OSM    C4F13602   0.514   0.496   7.075  0.4887 -0.2734 -0.2988
  127OSM    H4F13603   0.473   0.395   7.050 -0.8133  0.2200 -0.2111
  127OSM    H4G13604   0.429   0.558   7.110  0.2177 -0.2349 -1.0015
  127OSM    C5F13605   0.629   0.489   7.185  0.0961  0.1599  0.5301
  127OSM    H5F13606   0.651   0.590   7.225 -1.1116  1.2981 -1.5764
  127OSM    H5G13607   0.720   0.429   7.163  0.1949  0.3398  0.4407
  127OSM    C6F13608   0.554   0.420   7.300 -0.0408 -0.5739 -0.0462
  127OSM    H6F13609   0.520   0.320   7.267  1.7134 -0.2409 -3.0616
  127OSM    H6G13610   0.465   0.483   7.322  0.4926  0.5391 -0.9781
  127OSM    C7F13611   0.617   0.403   7.441  0.0336  0.0384 -0.3850
  127OSM    H7F13612   0.676   0.489   7.479  0.3260  1.2809 -3.5512
  127OSM    H7G13613   0.688   0.318   7.440  0.8708  0.7386 -0.6550
  127OSM    C8F13614   0.506   0.348   7.532 -0.9501  0.2698 -0.4492
  127OSM    H8F13615   0.478   0.251   7.486  2.5335 -1.9924  1.9623
  127OSM    H8G13616   0.413   0.408   7.524 -2.3984 -1.7616  0.6268
  127OSM    C9F13617   0.554   0.322   7.671 -0.3614  0.1601 -0.1975
  127OSM    H9F13618   0.613   0.229   7.678 -0.0174  0.3195 -0.9444
  127OSM   C10F13619   0.543   0.401   7.784  0.2499  0.1985  0.0547
  127OSM   H10F13620   0.564   0.351   7.879 -0.7778 -0.1364  0.1085
  127OSM   C11F13621   0.467   0.532   7.792 -0.0973 -0.7540 -0.4698
  127OSM   H11F13622   0.464   0.583   7.694  1.0940  2.8185  1.2671
  127OSM   H11G13623   0.527   0.602   7.855  0.3477 -1.8593  0.3585
  127OSM   C12F13624   0.324   0.513   7.841 -0.6010 -0.3244 -0.0288
  127OSM   H12F13625   0.295   0.610   7.888  0.9930 -0.2311  0.7752
  127OSM   H12G13626   0.326   0.446   7.929 -2.8998 -0.8370 -0.3245
  127OSM   C13F13627   0.232   0.460   7.722 -0.2142 -0.2841  0.3907
  127OSM   H13F13628   0.140   0.419   7.766 -0.2724  1.7422  2.2368
  127OSM   H13G13629   0.288   0.376   7.674 -2.5355 -1.4409 -0.3467
  127OSM   C14F13630   0.195   0.567   7.615  0.2083  0.1910 -0.2330
  127OSM   H14F13631   0.286   0.604   7.563 -0.4702  1.1166 -0.7679
  127OSM   H14G13632   0.131   0.650   7.652 -0.9351 -0.4910 -0.6855
  127OSM   C15F13633   0.099   0.500   7.515 -0.3174 -0.6185 -0.0348
  127OSM   H15F13634   0.008   0.473   7.573  1.0868  0.6794  2.8859
  127OSM   H15G13635   0.146   0.421   7.452  1.2112  1.7124 -1.8881
  127OSM   C16F13636   0.036   0.596   7.410  0.0615 -0.2239 -0.1906
  127OSM   H16F13637   0.118   0.623   7.340 -1.1085 -1.4638 -2.0757
  127OSM   H16G13638  -0.013   0.680   7.464 -0.0330 -1.2316  1.3267
  127OSM   C17F13639  -0.071   0.535   7.310  0.3050  0.5288  0.2864
  127OSM   H17F13640  -0.014   0.472   7.237  1.3333  0.6690  0.9580
  127OSM   H17G13641  -0.115   0.606   7.237 -0.7153  0.4023  0.7734
  127OSM   C18F13642  -0.184   0.457   7.372 -0.4359  0.5740 -0.1122
  127OSM   H18F13643  -0.248   0.421   7.289  0.3972 -0.1643 -0.4431
  127OSM   H18G13644  -0.243   0.529   7.433 -0.3844 -2.0315  3.1690
  127OSM   H18H13645  -0.143   0.374   7.433 -2.6519  0.9187  1.9058
  128OSM      N13646   0.930   4.380   6.107 -0.4097 -0.0218 -0.7487
  128OSM    C1513647   0.857   4.322   5.991 -0.0685  0.2395  0.4974
  128OSM   H15A13648   0.757   4.292   6.018 -0.3310  0.0128 -0.6906
  128OSM   H15B13649   0.906   4.231   5.959 -0.4813  0.7595 -1.7254
  128OSM   H15C13650   0.848   4.390   5.908 -0.8927 -0.1894  0.2307
  128OSM    C1413651   1.061   4.423   6.049 -0.0505 -0.6085 -0.7378
  128OSM   H14A13652   1.115   4.477   6.126 -0.6570  1.5160 -1.7568
  128OSM   H14B13653   1.053   4.474   5.954 -2.7489 -3.1250 -1.9038
  128OSM   H14C13654   1.122   4.335   6.036  0.4270 -0.2817 -0.7235
  128OSM    C1313655   0.848   4.502   6.151  0.2072  0.5792 -0.4181
  128OSM   H13A13656   0.901   4.549   6.232 -1.6805  0.5477  0.8628
  128OSM   H13B13657   0.748   4.479   6.185  1.2110 -2.7551  0.3760
  128OSM   H13C13658   0.829   4.569   6.068  1.3004  0.3109 -0.8887
  128OSM    C1213659   0.945   4.286   6.228 -0.4929 -0.1992  0.6823
  128OSM   H12A13660   0.849   4.287   6.278  1.1792  0.0785  4.0617
  128OSM   H12B13661   1.010   4.326   6.304 -0.8359  0.2125  0.7569
  128OSM    C1113662   0.978   4.126   6.200 -0.1226  0.5088 -0.0283
  128OSM   H11A13663   0.917   4.082   6.119  1.6947 -1.9097 -0.1354
  128OSM   H11B13664   0.952   4.071   6.293 -0.1679 -1.0020 -0.9167
  128OSM      P13665   1.238   4.165   6.266  0.5845 -0.2271  0.1699
  128OSM    O1313666   1.324   4.048   6.292 -0.2543  0.1989 -0.3535
  128OSM    O1413667   1.317   4.287   6.218 -0.3415 -0.3905  0.3549
  128OSM    O1113668   1.162   4.202   6.406 -0.6268  0.3245 -0.5022
  128OSM    O1213669   1.119   4.114   6.175  0.1870  0.0135  0.0615
  128OSM    C1S13670   1.146   4.096   6.501 -0.0532  0.6456 -0.0617
  128OSM    H1S13671   1.246   4.059   6.532 -0.3861 -2.1922 -2.2121
  128OSM    H1T13672   1.083   4.015   6.459  0.1236  0.5595 -0.1616
  128OSM     NF13673   1.036   4.019   6.716  0.2202 -0.4647  0.0913
  128OSM    HNF13674   0.939   4.000   6.732  0.4417 -1.8396 -0.1954
  128OSM    C2S13675   1.075   4.137   6.636 -0.3049  0.1848 -0.4312
  128OSM    H2S13676   1.151   4.194   6.695  1.0421 -1.7139 -0.3099
  128OSM    C3S13677   0.953   4.234   6.593 -0.4488 -0.0980 -0.2950
  128OSM    H3S13678   0.885   4.173   6.531  1.0507 -1.2111 -0.8888
  128OSM     O313679   0.984   4.348   6.508  0.1452  1.0412 -0.1684
  128OSM    HO313680   1.067   4.322   6.469 -0.9937 -1.2289 -1.1438
  128OSM    C4S13681   0.883   4.277   6.722 -0.8863 -1.0912  0.1244
  128OSM    H4S13682   0.796   4.213   6.743 -0.6011 -1.3567  0.4971
  128OSM    C5S13683   0.888   4.390   6.795  0.4888 -0.2989  1.0715
  128OSM    H5S13684   0.965   4.464   6.769 -0.7724  1.0606  1.1073
  128OSM    C6S13685   0.801   4.427   6.910  0.1319 -0.3018 -0.4128
  128OSM    H6S13686   0.706   4.369   6.918 -0.6892  1.1673  0.6909
  128OSM    H6T13687   0.764   4.529   6.884  0.0409 -0.9135 -2.7797
  128OSM    C7S13688   0.880   4.440   7.036  0.6196 -0.4260 -0.7153
  128OSM    H7S13689   0.828   4.509   7.106  0.1800 -1.5076  0.0464
  128OSM    H7T13690   0.983   4.481   7.026  1.2270 -1.5963  0.5761
  128OSM    C8S13691   0.895   4.297   7.098  0.2885  0.1355 -0.3784
  128OSM    H8S13692   0.973   4.307   7.176  2.5701 -4.0166 -1.9899
  128OSM    H8T13693   0.942   4.233   7.020  2.5781 -0.0886  1.1616
  128OSM    C9S13694   0.772   4.230   7.157 -0.9558  0.7741 -0.0589
  128OSM    H9S13695   0.820   4.136   7.192  1.2566  1.3840 -1.3085
  128OSM    H9T13696   0.698   4.201   7.080 -0.7544 -2.5635  0.9098
  128OSM   C10S13697   0.708   4.311   7.268  0.6738  0.3878 -0.2824
  128OSM   H10S13698   0.647   4.392   7.222  2.2625  1.0729 -1.2303
  128OSM   H10T13699   0.784   4.362   7.331  0.4295 -0.5525  0.7931
  128OSM   C11S13700   0.635   4.223   7.366 -0.6919  0.1254  0.1201
  128OSM   H11S13701   0.701   4.141   7.402  0.2157 -0.3587 -2.5797
  128OSM   H11T13702   0.552   4.173   7.313  0.5395 -0.7443 -1.0174
  128OSM   C12S13703   0.595   4.286   7.499 -0.2499  0.1227 -0.7902
  128OSM   H12S13704   0.516   4.362   7.480 -0.0903  0.2138 -1.1025
  128OSM   H12T13705   0.676   4.345   7.546 -0.3224 -1.4260  1.3539
  128OSM   C13S13706   0.547   4.189   7.606  0.1942 -0.5947 -0.4085
  128OSM   H13S13707   0.618   4.104   7.611 -0.8421 -1.5520 -1.7972
  128OSM   H13T13708   0.460   4.136   7.562 -0.4213  0.2577 -0.2334
  128OSM   C14S13709   0.498   4.257   7.739 -0.2131  0.5106  0.3221
  128OSM   H14S13710   0.391   4.285   7.728 -0.5467 -1.0764 -0.6260
  128OSM   H14T13711   0.550   4.355   7.746  0.6837  0.0314  0.4485
  128OSM   C15S13712   0.521   4.160   7.855 -0.0428  0.1113  0.0603
  128OSM   H15S13713   0.628   4.129   7.848 -0.6119 -2.1211  0.7284
  128OSM   H15T13714   0.463   4.067   7.840  1.6348 -1.2998  1.9929
  128OSM   C16S13715   0.494   4.219   7.996 -0.3671 -0.5941 -0.3993
  128OSM   H16S13716   0.385   4.237   8.011  0.1374  2.5490 -0.1338
  128OSM   H16T13717   0.537   4.321   7.983  1.2230 -1.1576  0.2844
  128OSM   C17S13718   0.562   4.145   8.112  0.0745 -0.4041  0.8377
  128OSM   H17S13719   0.672   4.138   8.094 -0.0458 -1.9419  0.7099
  128OSM   H17T13720   0.521   4.042   8.111 -0.1250 -0.3272  1.0331
  128OSM   C18S13721   0.561   4.226   8.242  0.2439 -0.5156  0.1714
  128OSM   H18S13722   0.614   4.323   8.232 -0.6744  0.1069  1.1839
  128OSM   H18T13723   0.610   4.169   8.324  2.6038 -0.6634 -1.3074
  128OSM   H18U13724   0.457   4.243   8.277  0.1423 -1.5465  0.3869
  128OSM    C1F13725   1.110   3.916   6.759 -0.9452 -0.2990  0.2463
  128OSM     OF13726   1.228   3.904   6.728 -0.5890  0.5107  0.4619
  128OSM    C2F13727   1.032   3.828   6.858 -0.2048  1.0554 -0.4101
  128OSM    H2F13728   0.974   3.750   6.804  2.3359 -0.0672 -1.6521
  128OSM    H2G13729   0.965   3.894   6.915  1.1878  1.5001  0.7489
  128OSM    C3F13730   1.128   3.754   6.951  0.2036  0.3268  0.0548
  128OSM    H3F13731   1.199   3.823   7.002  1.0141 -0.7096  0.3379
  128OSM    H3G13732   1.205   3.698   6.895 -0.0483 -0.3895  0.4143
  128OSM    C4F13733   1.062   3.669   7.065  0.7952  0.5923 -0.1828
  128OSM    H4F13734   1.140   3.633   7.135  0.9204  2.2019  0.5416
  128OSM    H4G13735   1.012   3.578   7.026 -1.4172  0.9535  1.6921
  128OSM    C5F13736   0.962   3.750   7.149 -0.0513 -0.1598  0.3094
  128OSM    H5F13737   0.868   3.767   7.092  0.4953 -0.0941 -0.5884
  128OSM    H5G13738   1.000   3.853   7.162  2.1830 -0.8789 -0.2850
  128OSM    C6F13739   0.933   3.680   7.281  0.6245 -0.6295  0.4150
  128OSM    H6F13740   1.030   3.653   7.328  0.0534 -1.3775  1.1614
  128OSM    H6G13741   0.890   3.580   7.259 -0.8214  0.3024 -1.1241
  128OSM    C7F13742   0.856   3.769   7.376 -0.1485 -0.2954  0.4163
  128OSM    H7F13743   0.764   3.810   7.329  0.2319 -1.0401 -0.9965
  128OSM    H7G13744   0.917   3.859   7.401  1.1639 -1.3722  1.1655
  128OSM    C8F13745   0.799   3.697   7.506 -0.2752 -0.9331 -0.1174
  128OSM    H8F13746   0.894   3.657   7.549 -1.2921 -0.2657  2.8841
  128OSM    H8G13747   0.733   3.613   7.477 -0.1118 -1.8450  2.0224
  128OSM    C9F13748   0.747   3.800   7.607 -0.1149 -0.0067  0.0214
  128OSM    H9F13749   0.785   3.903   7.598 -0.4392  0.3419  2.3413
  128OSM   C10F13750   0.669   3.772   7.714 -0.3678  0.6400 -0.5515
  128OSM   H10F13751   0.644   3.854   7.783  0.7935  1.5990 -1.2599
  128OSM   C11F13752   0.604   3.643   7.742  0.9728  1.0668  0.3142
  128OSM   H11F13753   0.675   3.581   7.800  1.6621  1.8670  0.3360
  128OSM   H11G13754   0.570   3.596   7.647  1.0525  0.4060  0.6119
  128OSM   C12F13755   0.473   3.640   7.829 -0.2620 -0.0708  0.4281
  128OSM   H12F13756   0.486   3.672   7.934  0.5706 -0.0900  0.3332
  128OSM   H12G13757   0.436   3.535   7.828  0.5448 -0.3732 -2.0075
  128OSM   C13F13758   0.359   3.727   7.760  0.5604 -0.6341  0.0279
  128OSM   H13F13759   0.314   3.670   7.676  0.3164 -1.0650  0.4472
  128OSM   H13G13760   0.401   3.825   7.728  2.3820 -0.9808  1.2752
  128OSM   C14F13761   0.239   3.766   7.849 -0.2059 -0.2123 -0.2692
  128OSM   H14F13762   0.170   3.682   7.873 -2.3773  0.9735 -2.1437
  128OSM   H14G13763   0.170   3.840   7.802 -0.5135  0.0523  0.5833
  128OSM   C15F13764   0.280   3.822   7.982  0.1989 -0.4469  0.3905
  128OSM   H15F13765   0.356   3.902   7.968  1.0386 -1.3847 -0.4300
  128OSM   H15G13766   0.328   3.755   8.057 -0.6185 -1.1975  0.2494
  128OSM   C16F13767   0.165   3.901   8.040 -0.9076 -0.1656 -0.7130
  128OSM   H16F13768   0.091   3.823   8.066  0.1791 -0.9570  0.0667
  128OSM   H16G13769   0.136   3.972   7.960  1.7371  1.0538 -0.6395
  128OSM   C17F13770   0.214   3.979   8.167  0.3680  0.0444  0.1805
  128OSM   H17F13771   0.303   4.044   8.153  1.9564 -2.3738 -1.1333
  128OSM   H17G13772   0.242   3.901   8.241 -0.2797 -0.2959  0.0637
  128OSM   C18F13773   0.098   4.071   8.210 -0.9898 -0.3652  0.1249
  128OSM   H18F13774   0.117   4.097   8.316 -0.7747 -0.8463  0.2060
  128OSM   H18G13775   0.006   4.008   8.215 -0.4488 -1.0766  1.5983
  128OSM   H18H13776   0.084   4.157   8.141 -0.7187 -1.0783 -0.8321
  129OSM      N13777   5.546   5.904   5.779  0.3194 -0.5248  0.0873
  129OSM    C1513778   5.606   5.770   5.738 -0.1642 -0.7096  0.8130
  129OSM   H15A13779   5.713   5.761   5.752 -0.2421 -1.4468  0.9807
  129OSM   H15B13780   5.599   5.754   5.632 -1.0585 -0.3767  0.8170
  129OSM   H15C13781   5.554   5.688   5.786 -2.1012  0.1374  0.1965
  129OSM    C1413782   5.641   6.015   5.738  0.3300 -0.4313 -0.2120
  129OSM   H14A13783   5.723   6.016   5.808 -0.4971 -0.2409  0.7716
  129OSM   H14B13784   5.594   6.112   5.736 -1.6219 -1.3806 -3.1928
  129OSM   H14C13785   5.681   5.999   5.639  0.5650 -2.5230  0.1892
  129OSM    C1313786   5.417   5.929   5.714 -0.2620 -0.2771  0.1883
  129OSM   H13A13787   5.368   5.836   5.689  2.8321 -1.2663 -2.5495
  129OSM   H13B13788   5.436   5.972   5.616 -0.7097 -1.2682 -0.3501
  129OSM   H13C13789   5.354   6.007   5.753 -0.1181 -1.3102  2.5203
  129OSM    C1213790   5.527   5.907   5.930 -0.0513  0.3540  0.3497
  129OSM   H12A13791   5.453   5.834   5.959  0.4745 -0.2602  0.1417
  129OSM   H12B13792   5.495   6.002   5.970 -2.7627 -0.3571 -0.0008
  129OSM    C1113793   5.643   5.879   6.032  0.7069  0.0119  0.2157
  129OSM   H11A13794   5.669   5.773   6.014 -0.9930  0.2424 -4.0652
  129OSM   H11B13795   5.600   5.898   6.133  0.2610  1.4564 -0.2354
  129OSM      P13796   5.752   6.122   6.049 -0.6532  0.1543  0.1528
  129OSM    O1313797   5.871   6.191   5.991  0.0381 -0.2239  0.1664
  129OSM    O1413798   5.624   6.179   6.008 -0.1374  0.4010 -0.6323
  129OSM    O1113799   5.754   6.113   6.210  0.0482 -0.4010 -0.0178
  129OSM    O1213800   5.751   5.967   6.007  0.1001 -0.4712 -0.4683
  129OSM    C1S13801   5.834   6.013   6.283 -0.3063 -0.5454 -0.3226
  129OSM    H1S13802   5.932   6.011   6.231 -1.0830 -0.6962 -1.8272
  129OSM    H1T13803   5.793   5.910   6.274 -0.6407 -0.2657 -2.3758
  129OSM     NF13804   5.940   5.957   6.504  0.2433 -0.4611 -0.1460
  129OSM    HNF13805   5.902   5.881   6.554 -1.7685  1.2114  0.9432
  129OSM    C2S13806   5.848   6.043   6.441  0.0309 -0.3031  0.5183
  129OSM    H2S13807   5.883   6.146   6.461  2.5138 -1.0783  0.3094
  129OSM    C3S13808   5.700   6.035   6.497 -0.3357 -0.0393 -0.1931
  129OSM    H3S13809   5.655   5.935   6.479 -0.4731  0.2707 -1.6021
  129OSM     O313810   5.614   6.132   6.431 -0.5796  1.0310 -0.0547
  129OSM    HO313811   5.658   6.153   6.349 -0.0883  1.7980  0.3995
  129OSM    C4S13812   5.697   6.068   6.646 -0.7524  0.7579  0.6284
  129OSM    H4S13813   5.695   6.177   6.663  1.5521  0.4807  2.9105
  129OSM    C5S13814   5.682   5.976   6.739 -0.0685  0.0771  0.2183
  129OSM    H5S13815   5.668   5.875   6.698 -2.7812  1.0570 -1.4053
  129OSM    C6S13816   5.681   5.990   6.890 -0.0888  0.8937  0.3288
  129OSM    H6S13817   5.594   5.930   6.927  1.5992 -1.2634  0.9066
  129OSM    H6T13818   5.662   6.095   6.921 -1.2082  1.1879 -1.2562
  129OSM    C7S13819   5.819   5.939   6.929 -0.0599 -0.0643 -0.0390
  129OSM    H7S13820   5.898   6.008   6.895 -1.9189  0.5477 -3.4002
  129OSM    H7T13821   5.824   5.835   6.889 -1.9053 -0.1505 -0.1074
  129OSM    C8S13822   5.833   5.934   7.087  0.1083 -0.4311  0.5693
  129OSM    H8S13823   5.808   6.027   7.143  1.8989 -0.5133  1.5480
  129OSM    H8T13824   5.936   5.901   7.113  0.9807  0.8033 -1.1953
  129OSM    C9S13825   5.727   5.838   7.148 -0.3623  0.4513  0.3610
  129OSM    H9S13826   5.724   5.745   7.087  2.3050  0.4109  0.2363
  129OSM    H9T13827   5.624   5.877   7.131 -0.5779  0.4362  1.5681
  129OSM   C10S13828   5.748   5.789   7.294  0.5770 -0.9008 -0.0562
  129OSM   H10S13829   5.741   5.880   7.358 -0.6704 -1.0223 -0.0140
  129OSM   H10T13830   5.849   5.744   7.297  2.0835  2.3536  0.5684
  129OSM   C11S13831   5.643   5.685   7.320 -0.0085  0.8279 -0.3045
  129OSM   H11S13832   5.651   5.599   7.251 -0.3963  1.9666 -1.7885
  129OSM   H11T13833   5.545   5.735   7.301 -0.2818  0.5706  0.4032
  129OSM   C12S13834   5.634   5.619   7.457 -0.2697 -0.1566 -0.7140
  129OSM   H12S13835   5.650   5.691   7.540  1.0012 -1.4246  0.1424
  129OSM   H12T13836   5.714   5.542   7.462 -0.5013 -0.6145 -3.3427
  129OSM   C13S13837   5.513   5.529   7.482  0.4274 -0.0254  0.1861
  129OSM   H13S13838   5.479   5.476   7.391 -2.5626  1.6917  0.2117
  129OSM   H13T13839   5.438   5.597   7.528 -0.3555 -1.2583  0.7676
  129OSM   C14S13840   5.539   5.403   7.566 -0.3771  0.2055 -0.2964
  129OSM   H14S13841   5.606   5.335   7.510  1.2175  0.5679  1.1176
  129OSM   H14T13842   5.437   5.359   7.575 -0.5826  0.5370 -1.0105
  129OSM   C15S13843   5.615   5.425   7.698  0.1222 -0.5099 -0.0177
  129OSM   H15S13844   5.573   5.508   7.759  0.8144  0.7108 -1.1837
  129OSM   H15T13845   5.707   5.474   7.660  0.9075  0.5111  3.0971
  129OSM   C16S13846   5.632   5.290   7.778 -0.1937 -0.2650  0.3634
  129OSM   H16S13847   5.678   5.210   7.715 -1.9166  0.3489 -1.7574
  129OSM   H16T13848   5.534   5.248   7.810 -0.0232 -0.4396  0.6563
  129OSM   C17S13849   5.707   5.293   7.921  0.2358  0.1484  0.7777
  129OSM   H17S13850   5.796   5.359   7.917  0.7265 -0.5563  0.0718
  129OSM   H17T13851   5.746   5.196   7.957  0.5661 -0.6465 -1.6706
  129OSM   C18S13852   5.612   5.335   8.032  0.2575  0.0940  0.2401
  129OSM   H18S13853   5.532   5.259   8.035  0.7672 -0.4378  0.4801
  129OSM   H18T13854   5.579   5.440   8.019  2.5229  0.9050  0.6871
  129OSM   H18U13855   5.673   5.334   8.126  4.5093 -2.3509 -2.3746
  129OSM    C1F13856   6.073   5.955   6.474 -0.0786  0.1653  0.9013
  129OSM     OF13857   6.115   6.033   6.388 -0.1004 -0.3067  0.4423
  129OSM    C2F13858   6.153   5.844   6.534  0.5540 -0.0724 -0.0495
  129OSM    H2F13859   6.148   5.768   6.454 -1.9252 -0.4010  0.3814
  129OSM    H2G13860   6.109   5.802   6.627 -2.5375 -0.0433 -1.4489
  129OSM    C3F13861   6.301   5.892   6.550 -0.1079 -0.0492 -0.5231
  129OSM    H3F13862   6.344   5.911   6.449  0.3948 -0.2696 -0.3527
  129OSM    H3G13863   6.352   5.804   6.594  1.6432  0.5379 -1.3238
  129OSM    C4F13864   6.317   6.018   6.637  0.2553 -0.3138  0.1139
  129OSM    H4F13865   6.298   6.114   6.585  1.9569 -0.4343 -0.7664
  129OSM    H4G13866   6.424   6.026   6.667 -0.1927 -1.8372  2.2379
  129OSM    C5F13867   6.242   6.014   6.767  0.2878  0.7679 -0.0431
  129OSM    H5F13868   6.269   5.920   6.820 -1.5867  0.4370  0.3895
  129OSM    H5G13869   6.132   6.008   6.748  0.1800  0.2216  0.7083
  129OSM    C6F13870   6.278   6.133   6.852  0.6096 -0.5583 -0.1983
  129OSM    H6F13871   6.243   6.216   6.787 -0.0149  0.0094  0.8461
  129OSM    H6G13872   6.388   6.128   6.864  0.8435  1.4673 -1.2786
  129OSM    C7F13873   6.199   6.143   6.983 -0.5149  0.3475 -0.5509
  129OSM    H7F13874   6.227   6.062   7.053  1.2604  1.9582  0.6326
  129OSM    H7G13875   6.089   6.133   6.969 -0.5136 -0.3679 -0.0749
  129OSM    C8F13876   6.254   6.274   7.058 -0.1590 -0.0658  0.3241
  129OSM    H8F13877   6.185   6.313   7.137 -1.2267  0.8836 -1.0533
  129OSM    H8G13878   6.261   6.352   6.979 -1.9035  0.5288  0.7166
  129OSM    C9F13879   6.381   6.245   7.128  0.5639  0.0223  0.4557
  129OSM    H9F13880   6.470   6.230   7.065  0.3719 -2.9320  0.8500
  129OSM   C10F13881   6.402   6.226   7.261 -0.3786  0.1811 -0.1656
  129OSM   H10F13882   6.508   6.203   7.284 -0.5351 -0.4664 -0.0638
  129OSM   C11F13883   6.301   6.221   7.370  0.9181  0.2971 -0.2172
  129OSM   H11F13884   6.214   6.287   7.350  1.3804  0.6727 -1.0336
  129OSM   H11G13885   6.339   6.253   7.470  0.1302  2.6232 -0.6212
  129OSM   C12F13886   6.250   6.086   7.391  0.0129 -0.1171  0.0642
  129OSM   H12F13887   6.329   6.009   7.408 -0.5698 -0.6435  0.4369
  129OSM   H12G13888   6.191   6.053   7.303  0.5683 -1.6303  0.2430
  129OSM   C13F13889   6.170   6.086   7.514  0.0255 -0.0691 -1.0143
  129OSM   H13F13890   6.103   6.174   7.503  1.3157  1.1818  0.7489
  129OSM   H13G13891   6.218   6.091   7.614  0.1145  0.0062 -1.0603
  129OSM   C14F13892   6.080   5.962   7.519  0.5108  1.1236 -0.4659
  129OSM   H14F13893   6.145   5.876   7.542 -0.0735  1.0936  1.0856
  129OSM   H14G13894   6.027   5.945   7.422  0.6463  0.2518 -0.3849
  129OSM   C15F13895   5.970   5.972   7.624  0.3292  0.3118  0.1676
  129OSM   H15F13896   5.925   5.870   7.623  1.7419 -0.3424  1.5723
  129OSM   H15G13897   5.887   6.042   7.598  0.9495  1.4660  1.2412
  129OSM   C16F13898   6.021   5.989   7.764 -0.3028  0.3585  0.1138
  129OSM   H16F13899   6.073   6.087   7.758 -2.7073  1.7234  0.8012
  129OSM   H16G13900   6.099   5.914   7.791 -0.7438 -0.4703 -0.9002
  129OSM   C17F13901   5.906   6.011   7.864  0.1047  0.4336 -0.6939
  129OSM   H17F13902   5.825   5.939   7.840  1.2135 -0.2517 -2.4986
  129OSM   H17G13903   5.853   6.106   7.840  0.7800  0.6781 -1.2420
  129OSM   C18F13904   5.948   6.000   8.008 -0.0519  0.7817 -0.5950
  129OSM   H18F13905   5.994   6.098   8.035  1.5255  0.1996 -1.0843
  129OSM   H18G13906   6.021   5.918   8.025 -1.4754 -0.1931  0.9154
  129OSM   H18H13907   5.863   5.987   8.078 -0.0688  2.6654 -0.2442
  130OSM      N13908   5.772   3.292   6.202 -0.4462 -0.2001  0.3410
  130OSM    C1513909   5.674   3.352   6.288  0.2509  0.2177  1.0279
  130OSM   H15A13910   5.664   3.300   6.382 -2.6443  2.0268  1.7806
  130OSM   H15B13911   5.582   3.379   6.236  0.6853  0.0333  0.1534
  130OSM   H15C13912   5.716   3.451   6.300  0.0656  0.2536  1.3923
  130OSM    C1413913   5.728   3.144   6.190 -0.0158  0.5110  0.6559
  130OSM   H14A13914   5.623   3.148   6.167  0.8221  3.7627 -3.1411
  130OSM   H14B13915   5.747   3.085   6.278  0.2484 -0.8849 -0.3172
  130OSM   H14C13916   5.770   3.088   6.108  2.7404 -1.7844  3.5300
  130OSM    C1313917   5.770   3.358   6.071 -0.1245  0.5397  0.4444
  130OSM   H13A13918   5.669   3.354   6.033 -0.7650 -0.5117  2.1855
  130OSM   H13B13919   5.833   3.300   6.005  0.1159  0.1069  1.0404
  130OSM   H13C13920   5.817   3.455   6.064 -0.7072  0.8410  0.7013
  130OSM    C1213921   5.910   3.301   6.264  0.6124  0.4072  0.8244
  130OSM   H12A13922   5.939   3.399   6.297 -2.5149  0.9669  2.1382
  130OSM   H12B13923   5.987   3.266   6.197  0.4076  1.5091 -0.0086
  130OSM    C1113924   5.934   3.213   6.394  0.0389  0.3530 -0.4080
  130OSM   H11A13925   5.853   3.223   6.470  0.3257  1.4895 -0.2471
  130OSM   H11B13926   6.021   3.255   6.448  0.7814 -0.1540 -1.2018
  130OSM      P13927   6.090   3.013   6.327 -0.2085  0.1653  0.2732
  130OSM    O1313928   6.074   2.872   6.286  0.5744  0.3343  0.0009
  130OSM    O1413929   6.155   3.101   6.230  0.9361 -0.2206 -0.2275
  130OSM    O1113930   6.173   3.015   6.457 -0.0968  0.2184 -0.2472
  130OSM    O1213931   5.953   3.070   6.364 -0.2240 -0.2373  0.4021
  130OSM    C1S13932   6.121   2.943   6.570  0.4033  0.0372  0.9077
  130OSM    H1S13933   6.073   2.846   6.544  1.0997 -0.1154  0.1509
  130OSM    H1T13934   6.035   3.004   6.604 -0.9734 -0.5084 -1.4648
  130OSM     NF13935   6.129   2.917   6.812 -0.5498 -0.7068 -0.4474
  130OSM    HNF13936   6.105   3.000   6.861  0.2431 -0.3283 -0.6881
  130OSM    C2S13937   6.213   2.934   6.695 -0.0678 -0.0768  0.6211
  130OSM    H2S13938   6.279   2.845   6.691  0.2293  0.1416  0.6771
  130OSM    C3S13939   6.301   3.062   6.708  0.1570  0.1256  0.4648
  130OSM    H3S13940   6.244   3.157   6.707  0.8066  0.5151 -2.0810
  130OSM     O313941   6.387   3.072   6.599  0.5072  0.0541 -0.0441
  130OSM    HO313942   6.351   3.000   6.547 -0.4616  2.0932 -2.3081
  130OSM    C4S13943   6.391   3.054   6.831  0.4769 -0.4739  0.4519
  130OSM    H4S13944   6.471   2.979   6.840 -1.9316 -3.2058 -0.1297
  130OSM    C5S13945   6.395   3.150   6.930  0.0599 -0.4160 -0.5915
  130OSM    H5S13946   6.320   3.230   6.918 -0.7840 -0.7094  2.3243
  130OSM    C6S13947   6.481   3.143   7.052  0.2409 -0.0098 -0.8310
  130OSM    H6S13948   6.557   3.223   7.045  0.4538 -0.1937 -0.6263
  130OSM    H6T13949   6.525   3.041   7.058 -0.4800 -0.3779 -1.6056
  130OSM    C7S13950   6.411   3.161   7.190 -0.8454  0.3641 -0.5072
  130OSM    H7S13951   6.314   3.107   7.181  0.3855 -1.9174 -0.3698
  130OSM    H7T13952   6.389   3.270   7.195 -4.9118 -0.3931  0.2697
  130OSM    C8S13953   6.487   3.108   7.308  0.7282  0.2862  0.2315
  130OSM    H8S13954   6.596   3.126   7.311  0.3508  2.7567  0.3859
  130OSM    H8T13955   6.475   2.999   7.291  0.6756  0.4515 -0.8582
  130OSM    C9S13956   6.422   3.130   7.449  0.7979 -0.3686 -0.6240
  130OSM    H9S13957   6.313   3.108   7.442 -0.3782  3.9177  1.7986
  130OSM    H9T13958   6.425   3.235   7.487 -0.4594 -0.5607  0.0636
  130OSM   C10S13959   6.501   3.047   7.550 -0.2371 -0.3443 -0.4112
  130OSM   H10S13960   6.595   3.099   7.580 -0.4989 -0.7155  1.0546
  130OSM   H10T13961   6.518   2.943   7.513 -0.6174 -1.0001  1.2271
  130OSM   C11S13962   6.423   3.030   7.682 -0.7450  0.2465  0.2508
  130OSM   H11S13963   6.330   2.969   7.676 -0.9442  0.6631 -0.8372
  130OSM   H11T13964   6.401   3.132   7.720  0.2456 -0.0144  1.5712
  130OSM   C12S13965   6.514   2.981   7.785 -0.2640  0.2158  0.2387
  130OSM   H12S13966   6.616   3.026   7.781 -0.3011  0.1141 -2.4930
  130OSM   H12T13967   6.533   2.873   7.766  0.9092 -0.1436  3.1900
  130OSM   C13S13968   6.460   3.011   7.922  0.1236 -0.2873  0.5283
  130OSM   H13S13969   6.427   3.117   7.925  1.0764  0.1460 -2.2668
  130OSM   H13T13970   6.546   3.027   7.990  0.6736  1.3419 -0.5133
  130OSM   C14S13971   6.341   2.922   7.969  0.7596  0.5684  0.4886
  130OSM   H14S13972   6.255   2.937   7.901 -0.2659 -1.6206  1.2425
  130OSM   H14T13973   6.305   2.969   8.063 -2.1437  1.3684 -0.9599
  130OSM   C15S13974   6.389   2.775   7.981  0.1828 -0.0671  0.1077
  130OSM   H15S13975   6.484   2.774   8.038 -0.3752  0.7480  1.0446
  130OSM   H15T13976   6.404   2.730   7.880 -0.0816  1.2370 -0.5171
  130OSM   C16S13977   6.295   2.671   8.052 -0.3313 -0.2234  0.6541
  130OSM   H16S13978   6.360   2.595   8.100  2.2377  1.1238 -0.5712
  130OSM   H16T13979   6.233   2.626   7.972  0.2587 -0.9791  0.6186
  130OSM   C17S13980   6.209   2.733   8.166  0.8959  0.7322  0.6836
  130OSM   H17S13981   6.147   2.815   8.123  0.9795  0.6468  0.3952
  130OSM   H17T13982   6.260   2.775   8.255 -0.6659  0.0833  1.9249
  130OSM   C18S13983   6.105   2.629   8.223  0.2938  0.2167  0.1023
  130OSM   H18S13984   6.155   2.536   8.259  0.2330 -0.7126 -2.1260
  130OSM   H18T13985   6.037   2.602   8.139 -0.4146 -0.2065  0.8053
  130OSM   H18U13986   6.034   2.673   8.295 -1.3626 -1.0692 -0.6902
  130OSM    C1F13987   6.067   2.801   6.835 -0.7239 -0.0889 -0.6748
  130OSM     OF13988   6.087   2.703   6.762  0.3669 -0.2741 -0.2928
  130OSM    C2F13989   5.974   2.803   6.953 -0.2434 -0.0654 -0.2527
  130OSM    H2F13990   5.878   2.783   6.901  0.3394  1.9788 -2.2385
  130OSM    H2G13991   5.974   2.896   7.014 -0.1775  0.2989 -0.7990
  130OSM    C3F13992   6.006   2.687   7.050 -0.1020 -0.3080 -0.3680
  130OSM    H3F13993   6.005   2.590   6.995  0.7069 -0.8370  0.5335
  130OSM    H3G13994   5.924   2.673   7.124 -0.5106  3.8814  0.0961
  130OSM    C4F13995   6.139   2.694   7.128 -0.4545  0.2218 -0.2399
  130OSM    H4F13996   6.225   2.700   7.058 -1.1392 -0.5106 -1.1593
  130OSM    H4G13997   6.145   2.604   7.192  0.5417  1.5484  1.5907
  130OSM    C5F13998   6.149   2.816   7.225 -0.4385 -0.1401  0.2534
  130OSM    H5F13999   6.096   2.902   7.179 -0.1040 -1.1923 -2.1675
  130OSM    H5G14000   6.251   2.845   7.257 -0.4340  2.5901 -2.0747
  130OSM    C6F14001   6.077   2.786   7.358 -0.4917 -0.4952  1.2709
  130OSM    H6F14002   5.979   2.739   7.336 -1.5978  2.1218  0.3688
  130OSM    H6G14003   6.049   2.888   7.393  0.8154  0.5771 -0.6852
  130OSM    C7F14004   6.164   2.703   7.453  0.0186  0.4380 -0.0139
  130OSM    H7F14005   6.257   2.760   7.475 -0.7583  1.5730  0.4264
  130OSM    H7G14006   6.186   2.610   7.398  0.4736  0.7839 -0.4213
  130OSM    C8F14007   6.095   2.669   7.586  0.1545  0.1384 -0.1600
  130OSM    H8F14008   6.158   2.592   7.634 -0.6174  0.1468  0.8685
  130OSM    H8G14009   6.000   2.619   7.555  0.7344  1.0454 -3.6828
  130OSM    C9F14010   6.076   2.796   7.672 -0.3501  0.0061  0.6934
  130OSM    H9F14011   6.139   2.875   7.629  2.0111 -2.4569 -0.5061
  130OSM   C10F14012   6.000   2.817   7.778 -0.6332  0.4634 -1.0629
  130OSM   H10F14013   6.003   2.916   7.827 -0.4001 -0.5484  1.0056
  130OSM   C11F14014   5.910   2.710   7.833  0.0832 -0.5720 -0.0859
  130OSM   H11F14015   5.872   2.732   7.935  1.9210  2.0293  0.0977
  130OSM   H11G14016   5.952   2.607   7.829  1.9271  0.1248  0.6888
  130OSM   C12F14017   5.780   2.722   7.746 -0.1747  0.1749 -0.0355
  130OSM   H12F14018   5.715   2.639   7.782  0.2236 -0.0062  0.2745
  130OSM   H12G14019   5.815   2.709   7.641 -0.5466 -0.0336 -0.1319
  130OSM   C13F14020   5.691   2.848   7.760  0.1094  0.5134  0.0329
  130OSM   H13F14021   5.604   2.829   7.694 -0.7827 -2.1698  1.9117
  130OSM   H13G14022   5.735   2.941   7.718  0.4377 -0.1177 -1.0373
  130OSM   C14F14023   5.635   2.868   7.901 -0.0766 -0.8621 -0.0950
  130OSM   H14F14024   5.722   2.903   7.961  1.3509 -0.4518 -2.3605
  130OSM   H14G14025   5.606   2.772   7.948  0.9755 -1.2453 -0.2106
  130OSM   C15F14026   5.523   2.972   7.920  0.0941  0.0380  0.7728
  130OSM   H15F14027   5.557   3.069   7.879  1.9497 -1.5109 -1.5041
  130OSM   H15G14028   5.501   2.988   8.028 -2.7233 -0.5318  0.3099
  130OSM   C16F14029   5.384   2.926   7.871 -0.5791 -0.3135 -0.1579
  130OSM   H16F14030   5.340   2.852   7.941  0.3346 -1.7827 -1.1028
  130OSM   H16G14031   5.401   2.877   7.773 -0.6312  0.6246 -0.6459
  130OSM   C17F14032   5.287   3.043   7.839 -0.4191  0.1032 -0.4723
  130OSM   H17F14033   5.197   3.002   7.788  0.1576 -1.8451  0.0385
  130OSM   H17G14034   5.343   3.112   7.772 -1.6843  2.4418  0.8362
  130OSM   C18F14035   5.238   3.110   7.970  0.0731  0.6329  0.9661
  130OSM   H18F14036   5.178   3.198   7.937 -1.1103 -1.3231 -2.2755
  130OSM   H18G14037   5.321   3.145   8.035  0.8773 -0.6386  0.6381
  130OSM   H18H14038   5.174   3.044   8.032 -0.4402  0.0062 -0.2187
  131OSM      N14039   6.630   0.412   6.138  0.3036 -0.4567 -0.2980
  131OSM    C1514040   6.527   0.378   6.039  0.8305  0.3047  0.2592
  131OSM   H15A14041   6.430   0.409   6.076  0.2858 -1.6456  0.4849
  131OSM   H15B14042   6.526   0.271   6.023  0.7132  0.3324  0.0773
  131OSM   H15C14043   6.548   0.427   5.945 -1.5736 -1.7750 -1.4271
  131OSM    C1414044   6.750   0.333   6.097  0.0647  0.5809  0.1443
  131OSM   H14A14045   6.738   0.229   6.122  2.6950  0.9028  2.9738
  131OSM   H14B14046   6.842   0.365   6.143 -1.1582  1.4059  2.0801
  131OSM   H14C14047   6.765   0.344   5.990  0.7830  2.8051  0.4523
  131OSM    C1314048   6.671   0.560   6.127  0.5248 -0.8324 -0.6679
  131OSM   H13A14049   6.747   0.580   6.201 -0.8201 -2.9929  1.3974
  131OSM   H13B14050   6.581   0.619   6.139  1.5604  0.4394  0.8865
  131OSM   H13C14051   6.706   0.569   6.025 -0.5905 -0.5778 -1.0389
  131OSM    C1214052   6.583   0.375   6.283  1.1992 -0.6246 -0.2313
  131OSM   H12A14053   6.666   0.388   6.352  1.0851  0.1601 -0.2350
  131OSM   H12B14054   6.553   0.272   6.292  1.1177 -0.5619  0.2287
  131OSM    C1114055   6.464   0.451   6.352 -1.0569 -0.0419  0.1383
  131OSM   H11A14056   6.501   0.556   6.357 -0.9976  0.1177 -2.5600
  131OSM   H11B14057   6.437   0.408   6.451 -1.1081 -0.4387 -0.0505
  131OSM      P14058   6.218   0.535   6.313  0.3806  0.4138  0.2470
  131OSM    O1314059   6.232   0.676   6.288  0.1197  0.4288 -0.4455
  131OSM    O1414060   6.101   0.479   6.244 -0.1106 -0.0866  0.0117
  131OSM    O1114061   6.196   0.510   6.465  0.9622 -0.1437 -0.1220
  131OSM    O1214062   6.348   0.463   6.265 -0.1430  0.2115  0.0842
  131OSM    C1S14063   6.259   0.605   6.555 -0.6540 -0.4648  0.1997
  131OSM    H1S14064   6.208   0.703   6.558  0.7554  0.2418  0.9852
  131OSM    H1T14065   6.365   0.627   6.532 -0.8986  0.6220  0.0801
  131OSM     NF14066   6.280   0.665   6.795 -0.0536  0.4258  0.4153
  131OSM    HNF14067   6.378   0.667   6.813 -0.3018  0.7696  1.8150
  131OSM    C2S14068   6.244   0.561   6.699 -0.1200 -0.1440 -0.2795
  131OSM    H2S14069   6.139   0.531   6.717 -0.4009  0.5912 -0.6695
  131OSM    C3S14070   6.320   0.432   6.732  0.5688 -0.2935 -0.0993
  131OSM    H3S14071   6.430   0.443   6.719  0.8327 -2.0424  0.5035
  131OSM     O314072   6.292   0.319   6.644  0.3937 -0.4976 -0.1967
  131OSM    HO314073   6.221   0.349   6.587  1.9486  1.6614 -1.0578
  131OSM    C4S14074   6.294   0.383   6.871 -0.5128  0.1033 -0.1662
  131OSM    H4S14075   6.373   0.401   6.945 -1.7278  0.6725  1.0199
  131OSM    C5S14076   6.184   0.318   6.914 -0.3945 -0.1986 -0.6799
  131OSM    H5S14077   6.112   0.284   6.838 -0.0428 -0.1714 -1.0306
  131OSM    C6S14078   6.156   0.278   7.055  0.0118  0.1324 -0.2846
  131OSM    H6S14079   6.135   0.169   7.057 -1.8972  0.4793 -1.2254
  131OSM    H6T14080   6.058   0.315   7.090 -0.3881 -1.3151  0.1713
  131OSM    C7S14081   6.253   0.307   7.172 -0.8144  0.8018 -0.6319
  131OSM    H7S14082   6.285   0.413   7.166  1.1104  0.2728 -0.0489
  131OSM    H7T14083   6.341   0.239   7.166 -2.2233 -0.9866 -1.5009
  131OSM    C8S14084   6.187   0.290   7.308  0.6660 -0.1379  0.4565
  131OSM    H8S14085   6.206   0.186   7.344  0.0885 -0.5929 -0.5182
  131OSM    H8T14086   6.078   0.306   7.301  0.6711 -0.2572  0.0697
  131OSM    C9S14087   6.251   0.370   7.425 -0.3137  0.4696  0.4110
  131OSM    H9S14088   6.236   0.477   7.402  1.0242  0.5852  0.0490
  131OSM    H9T14089   6.358   0.340   7.431 -0.4425 -0.2670 -0.7201
  131OSM   C10S14090   6.182   0.337   7.560 -0.8091  0.4195  0.7102
  131OSM   H10S14091   6.173   0.226   7.558 -1.9216  0.4571  2.6019
  131OSM   H10T14092   6.082   0.385   7.561  0.0356  2.2195  1.6529
  131OSM   C11S14093   6.269   0.391   7.674 -0.3200  0.6351 -0.1208
  131OSM   H11S14094   6.281   0.500   7.661  1.3753  0.1378 -3.4363
  131OSM   H11T14095   6.373   0.351   7.673 -0.2654  0.7263  1.4151
  131OSM   C12S14096   6.215   0.350   7.809 -0.2289 -0.7525 -0.4554
  131OSM   H12S14097   6.230   0.243   7.835  1.2487 -0.7220 -1.1300
  131OSM   H12T14098   6.105   0.367   7.804  0.0844  1.8909  0.9201
  131OSM   C13S14099   6.264   0.437   7.928  0.4319 -0.3500  0.1820
  131OSM   H13S14100   6.320   0.522   7.884 -2.1935  1.8568  0.9015
  131OSM   H13T14101   6.343   0.391   7.990  0.9489  1.2893  0.7668
  131OSM   C14S14102   6.162   0.522   8.005  0.1647 -0.0374 -0.1883
  131OSM   H14S14103   6.090   0.454   8.056 -0.8514  0.8410 -0.4282
  131OSM   H14T14104   6.102   0.579   7.931  0.7060  0.7046 -0.0629
  131OSM   C15S14105   6.230   0.609   8.121 -0.0145  0.3878 -0.6414
  131OSM   H15S14106   6.290   0.693   8.081  0.6703 -0.0187 -0.4702
  131OSM   H15T14107   6.296   0.540   8.178  0.2958  0.5989 -0.7472
  131OSM   C16S14108   6.123   0.653   8.218 -0.9122 -0.7645  0.2625
  131OSM   H16S14109   6.109   0.570   8.291 -0.9176 -1.1698 -0.1978
  131OSM   H16T14110   6.027   0.677   8.167  0.3721  1.1456 -1.2966
  131OSM   C17S14111   6.166   0.779   8.303 -0.8341  0.1484 -0.4698
  131OSM   H17S14112   6.083   0.814   8.367 -2.7039  0.3765 -2.9347
  131OSM   H17T14113   6.189   0.866   8.237  0.4657 -0.6842 -1.1387
  131OSM   C18S14114   6.277   0.745   8.405  0.3748 -1.2549  0.3345
  131OSM   H18S14115   6.230   0.689   8.489 -1.7857  0.7611  0.5297
  131OSM   H18T14116   6.323   0.841   8.437  0.3916 -0.9037 -0.7185
  131OSM   H18U14117   6.357   0.690   8.352 -0.9294 -2.3583 -0.5273
  131OSM    C1F14118   6.213   0.779   6.816  0.0801  0.7140  0.3396
  131OSM     OF14119   6.108   0.797   6.757  0.5509  0.0072  0.0526
  131OSM    C2F14120   6.274   0.889   6.898  0.1584  0.8528  0.2975
  131OSM    H2F14121   6.254   0.986   6.848  0.2522  0.9761  0.4961
  131OSM    H2G14122   6.382   0.865   6.909  0.0388 -1.4317 -2.7722
  131OSM    C3F14123   6.211   0.888   7.039 -0.2315  0.9816 -0.2486
  131OSM    H3F14124   6.227   0.795   7.098  0.1053  2.5488  2.2559
  131OSM    H3G14125   6.101   0.897   7.028 -0.1858  2.2695  0.3003
  131OSM    C4F14126   6.274   1.002   7.129  0.3168  0.1764  0.3124
  131OSM    H4F14127   6.258   1.096   7.072 -0.2554  0.2132  0.5238
  131OSM    H4G14128   6.382   0.992   7.149  0.5000  1.7063  0.0916
  131OSM    C5F14129   6.207   1.016   7.267 -0.5809 -0.1990  0.2748
  131OSM    H5F14130   6.098   1.020   7.247 -0.5409  0.3273  0.1530
  131OSM    H5G14131   6.239   1.120   7.291  2.3680 -0.5142 -1.9695
  131OSM    C6F14132   6.241   0.908   7.369  0.1364  0.1949 -0.0708
  131OSM    H6F14133   6.352   0.908   7.383  0.3402 -0.6135 -1.5496
  131OSM    H6G14134   6.220   0.809   7.324  0.5456 -0.0681  0.3177
  131OSM    C7F14135   6.165   0.928   7.502 -0.2662  0.0992 -0.5439
  131OSM    H7F14136   6.188   0.840   7.566  1.0521  0.1888 -0.8823
  131OSM    H7G14137   6.055   0.920   7.488 -0.3903  2.5822 -1.1857
  131OSM    C8F14138   6.192   1.056   7.595  0.1770 -0.0838  0.3952
  131OSM    H8F14139   6.133   1.136   7.544  1.9811  1.3723  0.4970
  131OSM    H8G14140   6.300   1.083   7.603  0.0563  0.4387  0.2887
  131OSM    C9F14141   6.131   1.037   7.729 -0.5017  0.2817 -0.0169
  131OSM    H9F14142   6.021   1.036   7.728 -0.5163 -0.7853  1.2038
  131OSM   C10F14143   6.193   0.993   7.836 -0.1165 -0.3873 -0.1288
  131OSM   H10F14144   6.141   0.989   7.933  0.3625  0.5728  0.1722
  131OSM   C11F14145   6.337   0.952   7.854  0.3316  0.1114 -0.1155
  131OSM   H11F14146   6.354   0.932   7.962 -1.1809  2.0473  0.5140
  131OSM   H11G14147   6.398   1.034   7.811 -0.2388 -0.5196 -2.1866
  131OSM   C12F14148   6.371   0.824   7.779 -0.3833  0.0382  0.3738
  131OSM   H12F14149   6.380   0.835   7.669  0.5381 -2.5172  0.1623
  131OSM   H12G14150   6.291   0.750   7.801 -0.6757  0.1144 -0.4399
  131OSM   C13F14151   6.490   0.745   7.838  0.4098  0.1033 -0.5285
  131OSM   H13F14152   6.453   0.693   7.930 -1.1735  0.1228 -1.1472
  131OSM   H13G14153   6.561   0.828   7.860  1.2816 -0.4330 -1.2771
  131OSM   C14F14154   6.561   0.639   7.755  0.4105 -0.1492 -0.3644
  131OSM   H14F14155   6.597   0.691   7.663 -0.7555  0.9426 -0.2196
  131OSM   H14G14156   6.496   0.554   7.724  0.9016 -0.4555 -0.5618
  131OSM   C15F14157   6.689   0.571   7.813 -0.1171  0.6491 -0.2440
  131OSM   H15F14158   6.771   0.645   7.821  0.6289 -0.2047  0.1271
  131OSM   H15G14159   6.723   0.482   7.755  2.7827  2.0176 -0.7592
  131OSM   C16F14160   6.665   0.524   7.960 -0.1826  0.0005  0.6613
  131OSM   H16F14161   6.574   0.460   7.962 -0.7365  0.7976  2.0544
  131OSM   H16G14162   6.645   0.611   8.026 -0.9281  1.1235 -1.0251
  131OSM   C17F14163   6.780   0.439   8.019  0.0520  0.1037  0.4950
  131OSM   H17F14164   6.879   0.486   8.004  0.3437 -0.5383  0.3879
  131OSM   H17G14165   6.766   0.342   7.965 -0.0712  1.0093 -1.1315
  131OSM   C18F14166   6.765   0.411   8.174  0.4203  0.5187  0.0553
  131OSM   H18F14167   6.665   0.369   8.199  1.3375  0.4613  3.8008
  131OSM   H18G14168   6.781   0.503   8.233 -0.8685  0.4812  0.4856
  131OSM   H18H14169   6.833   0.328   8.202  1.1916  1.2034  0.2150
  132OSM      N14170   1.776   5.160   6.362 -0.2646  0.0470  0.2823
  132OSM    C1514171   1.736   5.220   6.229 -0.3428 -0.3712 -0.0320
  132OSM   H15A14172   1.818   5.248   6.165  0.3450 -2.0047  0.1125
  132OSM   H15B14173   1.680   5.310   6.250  0.9548  0.1836  1.1509
  132OSM   H15C14174   1.679   5.151   6.168 -0.7814 -0.1922  0.1755
  132OSM    C1414175   1.647   5.150   6.438  0.4359 -0.2491  0.4637
  132OSM   H14A14176   1.590   5.240   6.424  0.1133 -0.4817  0.2555
  132OSM   H14B14177   1.663   5.121   6.541  1.3640 -0.0345  0.3759
  132OSM   H14C14178   1.586   5.069   6.399  0.6667 -1.5975  2.7852
  132OSM    C1314179   1.818   5.021   6.334 -0.0224 -1.2217 -0.3708
  132OSM   H13A14180   1.867   4.978   6.420  1.4310 -0.4667 -0.8039
  132OSM   H13B14181   1.883   5.023   6.247  2.1542 -1.6295  1.2015
  132OSM   H13C14182   1.728   4.967   6.308 -0.4761  0.3167 -2.0955
  132OSM    C1214183   1.875   5.243   6.429  0.4308 -0.5636  0.2435
  132OSM   H12A14184   1.827   5.336   6.455 -1.2708 -1.2625 -0.3461
  132OSM   H12B14185   1.952   5.249   6.353 -0.1909 -2.0276 -0.5192
  132OSM    C1114186   1.935   5.193   6.565  0.3134 -0.9807 -0.0470
  132OSM   H11A14187   1.855   5.196   6.642 -0.2274 -2.4336 -0.5344
  132OSM   H11B14188   2.017   5.263   6.592  0.8649 -0.6730 -2.4581
  132OSM      P14189   2.137   5.039   6.553 -0.6386  0.1570  0.3911
  132OSM    O1314190   2.152   4.900   6.506 -0.3839 -0.6319  0.3107
  132OSM    O1414191   2.198   5.142   6.464  0.1083 -0.5757 -0.0398
  132OSM    O1114192   2.198   5.057   6.699 -0.1366 -0.2886 -0.4024
  132OSM    O1214193   1.982   5.059   6.557 -0.1312 -0.3420 -0.1640
  132OSM    C1S14194   2.130   4.987   6.800  0.5699 -0.2914  0.7102
  132OSM    H1S14195   2.125   4.878   6.777 -1.0029  0.7590 -4.3549
  132OSM    H1T14196   2.026   5.025   6.814  0.9393  1.9380 -2.1243
  132OSM     NF14197   2.137   4.937   7.043 -0.4921 -0.4592  0.2165
  132OSM    HNF14198   2.067   4.987   7.093 -1.5369 -3.6465  2.1298
  132OSM    C2S14199   2.194   5.015   6.938 -0.3352 -0.3763  0.2795
  132OSM    H2S14200   2.297   4.979   6.916  0.8277  2.7835  0.2623
  132OSM    C3S14201   2.206   5.168   6.950  0.8273  0.1461 -0.3933
  132OSM    H3S14202   2.119   5.226   6.910  2.0568  2.4727  0.2038
  132OSM     O314203   2.323   5.214   6.884 -0.0950  0.6662  0.2956
  132OSM    HO314204   2.347   5.133   6.837  2.0278  0.4524  1.6918
  132OSM    C4S14205   2.232   5.195   7.093 -0.4274  0.2358  0.4498
  132OSM    H4S14206   2.326   5.156   7.136  1.0702  0.8836 -2.1818
  132OSM    C5S14207   2.146   5.261   7.172 -0.0599 -0.4315 -0.3069
  132OSM    H5S14208   2.057   5.310   7.131  1.6400  1.0122 -2.3781
  132OSM    C6S14209   2.162   5.287   7.318 -0.2244  0.6704  1.2096
  132OSM    H6S14210   2.157   5.397   7.333 -2.4942  1.0237 -1.7401
  132OSM    H6T14211   2.263   5.244   7.336  0.9720  2.0260 -1.8164
  132OSM    C7S14212   2.068   5.230   7.425  0.0742  0.5557 -0.0728
  132OSM    H7S14213   2.055   5.120   7.421  0.6499  0.4527  0.7630
  132OSM    H7T14214   1.971   5.276   7.396 -1.3052 -1.2467  1.5606
  132OSM    C8S14215   2.110   5.282   7.567  0.6372  0.8370 -0.7223
  132OSM    H8S14216   2.031   5.255   7.640 -0.4777  3.1280 -1.0395
  132OSM    H8T14217   2.121   5.391   7.551 -1.1247  1.0714 -0.4440
  132OSM    C9S14218   2.247   5.218   7.617 -0.5223  0.1796  0.1744
  132OSM    H9S14219   2.330   5.235   7.545 -0.0341 -0.2453  0.6312
  132OSM    H9T14220   2.227   5.109   7.607 -0.5932 -0.0922  2.9714
  132OSM   C10S14221   2.295   5.251   7.758  0.4240  0.1216 -0.1921
  132OSM   H10S14222   2.396   5.205   7.767  0.8783  1.0503 -0.5103
  132OSM   H10T14223   2.237   5.196   7.835  2.3330 -1.1079  0.4166
  132OSM   C11S14224   2.279   5.392   7.802 -0.0665  0.2764 -0.0320
  132OSM   H11S14225   2.179   5.435   7.780 -0.1720 -0.2569 -0.6058
  132OSM   H11T14226   2.355   5.442   7.739 -0.0104 -0.3073 -0.4347
  132OSM   C12S14227   2.283   5.414   7.950 -0.0386 -0.1346  0.4185
  132OSM   H12S14228   2.212   5.340   7.991  0.0577 -1.1949 -1.2818
  132OSM   H12T14229   2.251   5.518   7.975  4.1598  1.3591  0.1108
  132OSM   C13S14230   2.425   5.390   8.014 -0.0301 -0.3650  0.2494
  132OSM   H13S14231   2.500   5.453   7.960  0.7988 -1.3266  0.2734
  132OSM   H13T14232   2.463   5.289   7.987  2.1085  0.4822  0.0246
  132OSM   C14S14233   2.427   5.435   8.158  0.2638 -0.0238 -0.3259
  132OSM   H14S14234   2.395   5.540   8.175 -0.0160 -0.3864  1.4734
  132OSM   H14T14235   2.530   5.436   8.198  0.8919 -4.1084 -1.5803
  132OSM   C15S14236   2.339   5.346   8.246 -0.6828 -0.2132  0.5830
  132OSM   H15S14237   2.384   5.245   8.252  1.4745  0.6991  0.3658
  132OSM   H15T14238   2.244   5.331   8.190 -1.3854  2.2446  1.0453
  132OSM   C16S14239   2.317   5.381   8.390 -0.1406 -0.1306 -0.1101
  132OSM   H16S14240   2.413   5.379   8.447  0.2179  1.5138 -0.6319
  132OSM   H16T14241   2.243   5.309   8.430  1.9495 -3.2229 -1.5553
  132OSM   C17S14242   2.240   5.513   8.415 -0.9324  0.0373  0.0012
  132OSM   H17S14243   2.292   5.594   8.360 -2.9171  1.0989 -0.3868
  132OSM   H17T14244   2.231   5.530   8.524 -3.4589 -2.9924  0.3579
  132OSM   C18S14245   2.108   5.501   8.353 -0.1193  0.8298 -0.2704
  132OSM   H18S14246   2.113   5.521   8.244  1.2425  1.1333 -0.1656
  132OSM   H18T14247   2.047   5.584   8.396  0.7856  2.5688 -2.2593
  132OSM   H18U14248   2.063   5.401   8.373 -0.7487  1.2105  0.2252
  132OSM    C1F14249   2.149   4.801   7.058 -0.0171  0.1321  0.2066
  132OSM     OF14250   2.235   4.744   6.986  0.5739  0.2357  0.1899
  132OSM    C2F14251   2.080   4.721   7.164  0.6740 -0.6050 -0.5207
  132OSM    H2F14252   2.125   4.620   7.172  1.6047 -0.0978  0.6782
  132OSM    H2G14253   1.972   4.703   7.145  0.3249  0.9053 -0.0757
  132OSM    C3F14254   2.088   4.800   7.297  0.0799 -0.1003  0.4891
  132OSM    H3F14255   2.044   4.740   7.380 -2.0143  2.3985  1.2727
  132OSM    H3G14256   2.037   4.899   7.286 -1.6711 -0.9519  0.7149
  132OSM    C4F14257   2.227   4.839   7.345 -0.6035 -0.4581 -0.5246
  132OSM    H4F14258   2.219   4.892   7.442  1.9387  0.0797 -0.5622
  132OSM    H4G14259   2.265   4.912   7.270  2.6768 -2.1459 -0.5949
  132OSM    C5F14260   2.326   4.731   7.358 -0.0526  0.0750 -0.0889
  132OSM    H5F14261   2.426   4.763   7.394 -0.0022  0.6258 -0.7146
  132OSM    H5G14262   2.341   4.703   7.252  2.1911 -0.9636  0.4784
  132OSM    C6F14263   2.279   4.621   7.452 -0.3502  0.5659 -0.2875
  132OSM    H6F14264   2.367   4.552   7.450 -0.9734 -0.3421  2.4878
  132OSM    H6G14265   2.189   4.575   7.407 -0.7583 -0.5395  1.5980
  132OSM    C7F14266   2.254   4.678   7.592 -0.0117 -0.9899 -0.8585
  132OSM    H7F14267   2.154   4.722   7.609  0.2948 -1.0669  1.3466
  132OSM    H7G14268   2.336   4.752   7.607  0.0025 -0.6871 -2.3359
  132OSM    C8F14269   2.260   4.568   7.704  0.5691 -0.0712 -0.1619
  132OSM    H8F14270   2.247   4.619   7.802 -1.1219 -0.2994 -0.2528
  132OSM    H8G14271   2.361   4.522   7.703 -0.1602 -1.7793  1.0259
  132OSM    C9F14272   2.166   4.460   7.689  0.5448 -0.0155 -0.4242
  132OSM    H9F14273   2.096   4.474   7.606  1.4543 -0.4847 -1.2879
  132OSM   C10F14274   2.154   4.362   7.772  0.1125  0.0258 -0.7551
  132OSM   H10F14275   2.089   4.278   7.744 -1.1394  0.7823 -0.1593
  132OSM   C11F14276   2.244   4.348   7.893  0.3655  0.4043 -0.1869
  132OSM   H11F14277   2.348   4.385   7.885  0.9280 -0.9952  0.5463
  132OSM   H11G14278   2.251   4.242   7.925  0.4400  0.5460  0.2724
  132OSM   C12F14279   2.177   4.407   8.023  0.5490 -0.5391 -0.7572
  132OSM   H12F14280   2.071   4.373   8.027 -0.0764  1.2757 -1.8532
  132OSM   H12G14281   2.181   4.518   8.027 -1.0034 -0.5309  1.1534
  132OSM   C13F14282   2.225   4.357   8.160 -0.4368  0.4323 -0.7547
  132OSM   H13F14283   2.214   4.247   8.147  0.0030  0.4402 -1.2180
  132OSM   H13G14284   2.164   4.397   8.244  1.5933  0.7031  0.6078
  132OSM   C14F14285   2.371   4.388   8.186 -0.3619 -1.1244  0.2103
  132OSM   H14F14286   2.387   4.490   8.147 -0.0664 -1.8371 -1.5675
  132OSM   H14G14287   2.436   4.325   8.122  1.8273  1.4228 -0.1519
  132OSM   C15F14288   2.398   4.378   8.337  0.1445 -0.4069  0.5442
  132OSM   H15F14289   2.318   4.425   8.398  0.6694  0.6020  0.4600
  132OSM   H15G14290   2.486   4.442   8.356 -1.0201  1.6047 -0.6275
  132OSM   C16F14291   2.427   4.238   8.394  0.1870 -0.0216 -0.0338
  132OSM   H16F14292   2.496   4.248   8.481  2.1156  1.3151 -1.6611
  132OSM   H16G14293   2.477   4.175   8.317 -1.2155  0.8488 -1.6781
  132OSM   C17F14294   2.309   4.154   8.443 -0.7858  0.2022  0.4207
  132OSM   H17F14295   2.337   4.048   8.458  0.2615  0.6807  1.9601
  132OSM   H17G14296   2.221   4.172   8.377 -0.7314  2.1907  0.8497
  132OSM   C18F14297   2.259   4.193   8.588 -0.6347 -0.7133 -0.5667
  132OSM   H18F14298   2.218   4.297   8.590 -1.9925 -1.2135 -1.8917
  132OSM   H18G14299   2.337   4.194   8.668 -1.0735 -0.4496 -0.1446
  132OSM   H18H14300   2.180   4.122   8.618  0.5021 -2.1537 -0.9224
  133SAPE     N14301   3.815   1.032  10.915 -0.4361 -0.4710 -0.2535
  133SAPE   HN114302   3.882   0.963  10.875  3.6793  2.6406  0.8207
  133SAPE   HN214303   3.738   0.987  10.968 -0.1174  1.6362  2.1303
  133SAPE   HN314304   3.762   1.084  10.843 -0.4967 -0.9111 -0.5252
  133SAPE   C1214305   3.901   1.124  11.002  0.0598  0.0747  0.3720
  133SAPE  H12A14306   3.943   1.075  11.092 -1.4222 -0.0659  0.9984
  133SAPE  H12B14307   3.847   1.216  11.034 -1.1672 -1.0431  1.5926
  133SAPE   C1114308   4.028   1.164  10.928 -0.5919 -0.1972  0.2750
  133SAPE  H11A14309   4.100   1.186  11.009 -0.1119 -0.2395 -0.1346
  133SAPE  H11B14310   4.007   1.257  10.870 -0.3426 -0.2449  0.1075
  133SAPE     P14311   4.200   1.012  10.791  0.0767  0.1961 -0.6950
  133SAPE   O1314312   4.311   1.081  10.864 -0.5012 -0.3183  0.2277
  133SAPE   O1414313   4.203   0.864  10.780  0.4538  0.6541 -0.0828
  133SAPE   O1214314   4.063   1.051  10.847  0.0174  0.2754 -0.3145
  133SAPE   O1114315   4.200   1.060  10.644  0.3889  0.0234 -0.3026
  133SAPE    C114316   4.075   1.079  10.577  0.1311 -0.5255  0.2130
  133SAPE    HA14317   4.013   0.987  10.588  0.2207 -0.4916  1.0315
  133SAPE    HB14318   4.020   1.166  10.617 -0.0355 -1.3654  1.8525
  133SAPE    C214319   4.092   1.107  10.421  0.8446  0.3473  0.6086
  133SAPE    HS14320   4.118   1.213  10.402 -1.6013  0.6760 -1.1842
  133SAPE   O2114321   3.969   1.058  10.345 -0.3180 -0.0452 -0.2381
  133SAPE   C2114322   3.871   1.144  10.351 -0.6453 -0.1249  0.2994
  133SAPE   O2214323   3.869   1.244  10.419  0.2102 -0.4924  0.2932
  133SAPE   C2214324   3.755   1.106  10.263  0.4718  0.2163  0.2629
  133SAPE   H2R14325   3.797   1.074  10.166 -0.6862 -2.2105  0.5210
  133SAPE   H2S14326   3.719   1.024  10.329  0.1931  0.7083  0.7318
  133SAPE    C314327   4.211   1.022  10.373 -0.4455 -0.3386  0.2017
  133SAPE    HX14328   4.208   0.914  10.395  1.1696 -0.4842 -0.2635
  133SAPE    HY14329   4.297   1.065  10.428  0.9179 -1.8808 -0.7089
  133SAPE   O3114330   4.236   1.035  10.228 -0.0131  0.9192 -0.0078
  133SAPE   C3114331   4.341   0.955  10.200 -0.7211  0.1231  0.2932
  133SAPE   O3214332   4.403   0.880  10.273 -0.2678  0.6990 -0.7365
  133SAPE   C3214333   4.380   0.961  10.053  0.7498 -0.0410 -0.3435
  133SAPE   H2X14334   4.334   1.056  10.019 -1.2373 -0.0736  2.0945
  133SAPE   H2Y14335   4.328   0.886   9.990  1.6340 -1.8487  1.0380
  133SAPE   C2314336   3.645   1.202  10.226  0.0166 -0.0757 -0.2869
  133SAPE   H3R14337   3.687   1.284  10.164 -2.5102 -0.1528 -2.1852
  133SAPE   H3S14338   3.611   1.249  10.321 -0.9124  1.0057 -1.1433
  133SAPE   C2414339   3.532   1.143  10.141  0.0865  0.1296  0.8006
  133SAPE   H4R14340   3.455   1.092  10.204  0.6743 -2.0074 -0.1539
  133SAPE   H4S14341   3.586   1.072  10.075 -0.1046  0.0988  0.6785
  133SAPE   C2514342   3.467   1.259  10.068  0.2275 -0.3551  0.3964
  133SAPE   H5R14343   3.423   1.335  10.135  0.0875 -0.6531  0.6447
  133SAPE   C2614344   3.435   1.273   9.940  0.0406  0.3175  0.1860
  133SAPE   H6R14345   3.401   1.370   9.900  1.7479  1.1335  0.6755
  133SAPE   C2714346   3.483   1.166   9.842  0.2822  0.3405  0.1798
  133SAPE   H7R14347   3.401   1.143   9.771  0.2041 -0.4142  0.5120
  133SAPE   H7S14348   3.497   1.063   9.881 -3.0258 -0.5905 -0.8925
  133SAPE   C2814349   3.614   1.218   9.786 -0.1800  0.0892 -0.1879
  133SAPE   H8R14350   3.682   1.269   9.856 -2.2736  3.0266 -0.2187
  133SAPE   C2914351   3.659   1.190   9.663  0.4774 -0.3826  0.4063
  133SAPE   H9R14352   3.760   1.226   9.637  1.2895 -1.7450  1.5799
  133SAPE  C21014353   3.600   1.110   9.555 -0.9631  0.2484 -0.4242
  133SAPE  H10R14354   3.521   1.165   9.500  0.5944  0.7804 -2.1853
  133SAPE  H10S14355   3.534   1.029   9.595  0.7899 -1.5314 -1.0169
  133SAPE  C21114356   3.711   1.053   9.467  0.0255 -0.6827  0.6779
  133SAPE  H11R14357   3.780   0.988   9.523  0.9070  0.7305  1.2727
  133SAPE  C21214358   3.709   1.066   9.332 -0.3281 -0.2641  0.0364
  133SAPE  H12R14359   3.796   1.033   9.273 -0.2954 -0.2788  0.0919
  133SAPE  C21314360   3.605   1.137   9.248 -0.1931  0.4741  0.4413
  133SAPE  H13R14361   3.653   1.175   9.156  0.1454  0.2929  0.5423
  133SAPE  H13S14362   3.562   1.229   9.294 -1.9358  0.5767 -1.3102
  133SAPE  C21414363   3.490   1.044   9.207 -0.1031 -0.4035  0.1360
  133SAPE  H14R14364   3.399   1.046   9.268 -1.0408 -0.2014 -1.2353
  133SAPE  C21514365   3.498   0.956   9.101  0.1827 -0.1076  0.4452
  133SAPE  H15R14366   3.403   0.900   9.096 -1.6116  2.7785  1.0865
  133SAPE  C21614367   3.614   0.936   9.004  0.3394  0.5553 -0.7116
  133SAPE  H16R14368   3.706   0.981   9.048  1.2149 -0.7036 -1.2209
  133SAPE  H16S14369   3.601   0.994   8.911  0.5482  0.2515 -0.9329
  133SAPE  C21714370   3.654   0.788   8.991  0.5211 -0.7557 -0.2936
  133SAPE  H17R14371   3.576   0.732   8.933 -0.5837 -0.0509  0.4898
  133SAPE  H17S14372   3.669   0.752   9.095  1.0366  2.3750  0.7461
  133SAPE  C21814373   3.784   0.763   8.913 -0.1808 -0.5499  0.2693
  133SAPE  H18R14374   3.848   0.853   8.918  0.2739 -0.7761 -1.2206
  133SAPE  H18S14375   3.764   0.751   8.804 -2.0207  2.3637  0.2482
  133SAPE  C21914376   3.853   0.638   8.977 -0.4922  0.0374  0.3396
  133SAPE  H19R14377   3.781   0.556   8.955 -2.2101  1.7685 -0.6591
  133SAPE  H19S14378   3.876   0.638   9.085  0.3726  1.5475  0.1645
  133SAPE  C22014379   3.993   0.614   8.906  0.1995  0.0697  0.2535
  133SAPE  H20R14380   4.029   0.520   8.954 -0.0263  0.1275  0.5383
  133SAPE  H20S14381   4.051   0.706   8.930 -1.6596  1.0829  0.9140
  133SAPE  H20T14382   3.986   0.597   8.796  0.3590  0.5625  0.1652
  133SAPE   C3314383   4.534   0.933  10.025  0.2797 -0.5195  0.2603
  133SAPE   H3X14384   4.555   0.827  10.050 -0.4844 -1.0715 -1.3722
  133SAPE   H3Y14385   4.587   1.002  10.094 -0.1560  0.0081  0.0624
  133SAPE   C3414386   4.577   0.979   9.891 -0.1121 -0.5649 -0.2496
  133SAPE   H4X14387   4.516   0.913   9.826 -1.4240 -0.7193  1.1166
  133SAPE   H4Y14388   4.685   0.958   9.878  0.2251  1.3434 -0.7081
  133SAPE   C3514389   4.539   1.128   9.857  0.2321  0.1354  0.5083
  133SAPE   H5X14390   4.555   1.189   9.948 -1.8734  0.0619  0.9450
  133SAPE   H5Y14391   4.436   1.128   9.817  1.2906 -0.2331 -2.3631
  133SAPE   C3614392   4.624   1.175   9.740 -0.3986 -0.4278  0.4239
  133SAPE   H6X14393   4.727   1.142   9.765 -0.2517 -2.8534 -3.0229
  133SAPE   H6Y14394   4.609   1.285   9.741  1.3962 -0.1654  0.4572
  133SAPE   C3714395   4.591   1.117   9.602 -0.1732  0.0717 -1.0298
  133SAPE   H7X14396   4.484   1.146   9.595 -0.0316  1.0566  0.6734
  133SAPE   H7Y14397   4.595   1.007   9.618 -0.3910 -0.3566 -3.6682
  133SAPE   C3814398   4.688   1.167   9.494 -0.7220 -0.1455  0.2063
  133SAPE   H8X14399   4.788   1.155   9.539 -2.3332 -0.0265  4.0203
  133SAPE   H8Y14400   4.676   1.277   9.481  0.2431 -0.3543 -2.7897
  133SAPE   C3914401   4.674   1.111   9.350 -0.4358 -0.2982  0.0211
  133SAPE   H9X14402   4.708   1.007   9.330 -0.7311 -0.3054 -0.4463
  133SAPE   H9Y14403   4.731   1.178   9.282 -0.0028 -2.6970 -2.0424
  133SAPE  C31014404   4.529   1.117   9.299  0.1739 -0.3218  0.1895
  133SAPE  H10X14405   4.487   1.219   9.312 -1.8181 -1.3006  1.7815
  133SAPE  H10Y14406   4.473   1.042   9.358 -2.0073  0.0331 -1.3324
  133SAPE  C31114407   4.510   1.077   9.151  0.1787  0.1326 -0.1075
  133SAPE  H11X14408   4.565   0.980   9.146 -2.5337 -1.3729 -2.6026
  133SAPE  H11Y14409   4.553   1.151   9.080  1.0990  0.1271  0.4339
  133SAPE  C31214410   4.361   1.063   9.104 -0.4709 -0.0102  0.0520
  133SAPE  H12X14411   4.312   1.156   9.139 -0.3222  0.3159 -0.5898
  133SAPE  H12Y14412   4.321   0.985   9.173 -1.1107 -0.9291 -1.3267
  133SAPE  C31314413   4.346   1.027   8.961 -0.1761 -0.0226 -0.1591
  133SAPE  H13X14414   4.421   0.950   8.932 -0.4890 -1.3319  2.3430
  133SAPE  H13Y14415   4.357   1.120   8.901  0.6525  0.8917  1.3540
  133SAPE  C31414416   4.199   0.982   8.943  0.5959 -0.1057  0.0699
  133SAPE  H14X14417   4.131   1.060   8.984  0.6843 -0.6001  1.2022
  133SAPE  H14Y14418   4.187   0.892   9.008  1.8109 -0.0499  0.3796
  133SAPE  C31514419   4.152   0.942   8.799 -0.2189 -0.8328 -0.4302
  133SAPE  H15X14420   4.056   0.885   8.803 -1.4586  1.2883  1.5794
  133SAPE  H15Y14421   4.236   0.879   8.765 -0.6665 -1.1349 -0.9780
  133SAPE  C31614422   4.118   1.063   8.713 -0.0043 -0.5919 -0.1511
  133SAPE  H16X14423   4.068   1.019   8.624 -0.8400  2.0233 -1.0185
  133SAPE  H16Y14424   4.212   1.113   8.680  1.5791 -2.6442  1.1225
  133SAPE  C31714425   4.025   1.177   8.767 -0.2758 -0.7401  0.8092
  133SAPE  H17X14426   4.033   1.254   8.688 -1.5148 -0.2121  1.1819
  133SAPE  H17Y14427   4.070   1.226   8.856 -0.0849 -0.8536  0.7750
  133SAPE  C31814428   3.878   1.145   8.792 -0.2340 -0.1396 -0.3437
  133SAPE  H18X14429   3.832   1.115   8.696 -2.2738  0.0979  0.5231
  133SAPE  H18Y14430   3.820   1.233   8.829  3.0358  1.7901  0.3346
  133SAPE  H18Z14431   3.875   1.059   8.862  0.2822  0.9537  1.0681
  134SAPE     N14432   6.324   2.121  10.857  0.7190 -0.0321  0.0517
  134SAPE   HN114433   6.237   2.106  10.912  2.2868  0.5012  2.7939
  134SAPE   HN214434   6.400   2.071  10.908 -0.0676 -3.2317 -1.8198
  134SAPE   HN314435   6.336   2.225  10.862 -0.2674  0.0566  0.5920
  134SAPE   C1214436   6.336   2.074  10.714  0.6587  0.0839  0.1946
  134SAPE  H12A14437   6.277   2.141  10.648 -0.7843  0.4762  1.8487
  134SAPE  H12B14438   6.292   1.973  10.702 -2.8859  1.6834 -1.0057
  134SAPE   C1114439   6.481   2.065  10.658  0.5679  0.3687 -0.2766
  134SAPE  H11A14440   6.529   2.163  10.679  1.5276  0.0099 -0.7648
  134SAPE  H11B14441   6.482   2.034  10.551  0.9909  1.7497 -0.6740
  134SAPE     P14442   6.693   1.930  10.719 -0.1985  0.0155 -0.1311
  134SAPE   O1314443   6.775   2.025  10.790  1.0765  0.6383 -0.0380
  134SAPE   O1414444   6.706   1.784  10.749  0.3932 -0.3206  0.5800
  134SAPE   O1214445   6.540   1.965  10.732 -0.0220 -0.2054 -0.4532
  134SAPE   O1114446   6.716   1.955  10.571  0.1453  0.2653  0.1248
  134SAPE    C114447   6.844   1.969  10.511 -0.5820 -0.4558  0.5370
  134SAPE    HA14448   6.923   1.989  10.587 -1.5644  1.5745  1.0761
  134SAPE    HB14449   6.884   1.881  10.456 -1.6161  0.2908 -1.4476
  134SAPE    C214450   6.849   2.077  10.395  0.5589  0.2067 -0.4392
  134SAPE    HS14451   6.837   2.166  10.461 -1.2654  0.7746 -1.5031
  134SAPE   O2114452   6.734   2.050  10.304  0.2880 -0.0826 -0.3394
  134SAPE   C2114453   6.678   2.164  10.255 -0.3143 -0.6036  0.0650
  134SAPE   O2214454   6.715   2.275  10.296 -0.0726 -0.0120  0.1847
  134SAPE   C2214455   6.553   2.123  10.185 -0.3602  0.1883 -0.0642
  134SAPE   H2R14456   6.572   2.025  10.136  2.0093 -0.2013  1.5552
  134SAPE   H2S14457   6.477   2.115  10.266  0.3504 -0.0329  0.5837
  134SAPE    C314458   6.990   2.089  10.329  0.2535  0.2074  0.2041
  134SAPE    HX14459   7.059   2.109  10.414 -0.9184 -0.8818  1.4354
  134SAPE    HY14460   6.997   2.185  10.273  0.0614  0.6593  0.9583
  134SAPE   O3114461   7.036   1.973  10.255  0.0487 -0.5562  0.0338
  134SAPE   C3114462   7.015   1.984  10.125 -0.7615 -0.1762  0.5247
  134SAPE   O3214463   6.965   2.084  10.070  1.1776 -0.1524 -0.0812
  134SAPE   C3214464   7.031   1.856  10.051  0.2980 -0.2817 -0.0222
  134SAPE   H2X14465   6.970   1.782  10.107  1.7121 -0.3679  1.4559
  134SAPE   H2Y14466   7.138   1.826  10.050  0.7960  1.4505  0.4443
  134SAPE   C2314467   6.525   2.229  10.073 -0.1981 -0.3877  0.1732
  134SAPE   H3R14468   6.519   2.333  10.112  0.8139  0.1853 -1.1900
  134SAPE   H3S14469   6.421   2.206  10.040 -0.5941 -0.4845  1.4556
  134SAPE   C2414470   6.638   2.220   9.969 -0.0341  0.8905  0.4958
  134SAPE   H4R14471   6.661   2.113   9.952 -4.7797 -0.3563  1.2594
  134SAPE   H4S14472   6.727   2.264  10.018  0.8330  0.7565 -0.9257
  134SAPE   C2514473   6.608   2.298   9.847  0.4808 -0.0946  0.1352
  134SAPE   H5R14474   6.622   2.402   9.879  3.3136 -0.3021 -0.2824
  134SAPE   C2614475   6.569   2.264   9.724 -0.0096  0.0817 -0.6846
  134SAPE   H6R14476   6.546   2.343   9.651 -0.3721 -0.5165 -1.2257
  134SAPE   C2714477   6.538   2.120   9.690  0.1631 -0.1521 -0.3300
  134SAPE   H7R14478   6.473   2.103   9.601  2.1884  1.2527 -2.1090
  134SAPE   H7S14479   6.482   2.067   9.771 -0.3609 -0.0245 -0.6026
  134SAPE   C2814480   6.669   2.050   9.663  0.1947  0.1896 -0.7535
  134SAPE   H8R14481   6.718   2.012   9.753 -0.1372 -1.0946 -1.0931
  134SAPE   C2914482   6.718   2.025   9.538  0.1318 -0.1774 -0.0835
  134SAPE   H9R14483   6.820   1.983   9.534 -0.3649 -1.5106  1.0758
  134SAPE  C21014484   6.653   2.061   9.411 -0.3050  0.6803 -0.1198
  134SAPE  H10R14485   6.552   2.015   9.407 -0.2613  0.3722  2.0703
  134SAPE  H10S14486   6.717   2.011   9.335 -2.4412 -0.3140 -1.3045
  134SAPE  C21114487   6.648   2.215   9.375  0.0075  0.4906 -0.5112
  134SAPE  H11R14488   6.594   2.278   9.447  1.8423 -0.6804  1.9821
  134SAPE  C21214489   6.699   2.269   9.261 -0.6648 -0.5620  0.0970
  134SAPE  H12R14490   6.695   2.378   9.247  0.4905 -0.2315  2.0304
  134SAPE  C21314491   6.771   2.193   9.156 -0.1008  0.3840  0.2486
  134SAPE  H13R14492   6.835   2.116   9.204 -2.9036 -1.6361  0.8677
  134SAPE  H13S14493   6.839   2.263   9.102  0.4945 -0.1340  0.3372
  134SAPE  C21414494   6.684   2.101   9.070  0.2344 -0.4409 -1.0823
  134SAPE  H14R14495   6.646   2.010   9.118  0.6183  0.4019  0.8520
  134SAPE  C21514496   6.642   2.129   8.944 -0.2478 -0.1438  0.1002
  134SAPE  H15R14497   6.574   2.051   8.906 -0.1294 -0.7119  1.0228
  134SAPE  C21614498   6.667   2.249   8.866 -0.4279 -0.0855  0.7124
  134SAPE  H16R14499   6.704   2.334   8.928 -0.6263  1.8682 -1.8001
  134SAPE  H16S14500   6.573   2.280   8.816 -0.3853  2.0722  1.8970
  134SAPE  C21714501   6.778   2.205   8.768 -0.3513 -0.5398 -0.6398
  134SAPE  H17R14502   6.851   2.139   8.819  0.1161  0.0235 -0.5849
  134SAPE  H17S14503   6.836   2.297   8.746  0.0640 -0.2577  1.5716
  134SAPE  C21814504   6.731   2.123   8.641 -0.8991  0.1894 -0.7926
  134SAPE  H18R14505   6.688   2.192   8.565  0.6418  1.6910 -0.3217
  134SAPE  H18S14506   6.662   2.037   8.657  1.0138 -1.1198  0.5741
  134SAPE  C21914507   6.856   2.064   8.571  0.3833 -0.7018 -0.1482
  134SAPE  H19R14508   6.915   2.150   8.535 -0.2912 -0.3619 -0.4575
  134SAPE  H19S14509   6.823   2.021   8.474 -2.5834  1.4155 -0.1444
  134SAPE  C22014510   6.943   1.968   8.657  0.2654  0.5817 -0.0829
  134SAPE  H20R14511   7.035   1.944   8.600 -0.3258 -2.9490  0.3285
  134SAPE  H20S14512   6.889   1.879   8.694 -0.4692  0.7602 -0.7002
  134SAPE  H20T14513   6.979   2.024   8.746 -0.8431 -1.4947  1.7178
  134SAPE   C3314514   6.993   1.864   9.904 -0.1186  0.2176  1.0766
  134SAPE   H3X14515   6.917   1.937   9.870  1.0463  1.4175  0.9971
  134SAPE   H3Y14516   6.950   1.763   9.888  2.6949 -0.8678  0.1174
  134SAPE   C3414517   7.117   1.871   9.804 -0.4082  0.4349 -0.4825
  134SAPE   H4X14518   7.196   1.796   9.825  0.9768  2.2556  1.0665
  134SAPE   H4Y14519   7.157   1.973   9.826  1.9305 -0.7748  1.1015
  134SAPE   C3514520   7.070   1.865   9.660 -0.0409  0.2022 -0.2848
  134SAPE   H5X14521   7.009   1.955   9.638 -0.3346  0.7950  2.7327
  134SAPE   H5Y14522   7.005   1.776   9.647 -0.3299  0.4459 -0.5065
  134SAPE   C3614523   7.181   1.854   9.552 -0.2060 -0.4721 -0.1564
  134SAPE   H6X14524   7.250   1.768   9.571  3.0090  1.6372 -1.7796
  134SAPE   H6Y14525   7.252   1.939   9.547 -0.0007 -0.5397  1.2985
  134SAPE   C3714526   7.134   1.841   9.410  0.8588  0.2192 -0.5082
  134SAPE   H7X14527   7.072   1.927   9.376  2.2580  0.3131 -2.9263
  134SAPE   H7Y14528   7.067   1.753   9.401 -0.5117  1.1053  0.7952
  134SAPE   C3814529   7.245   1.836   9.304 -0.4521 -0.9319 -0.4864
  134SAPE   H8X14530   7.309   1.747   9.324 -0.3003 -1.1539 -1.8438
  134SAPE   H8Y14531   7.309   1.924   9.326 -1.5601 -0.2555  0.0026
  134SAPE   C3914532   7.187   1.832   9.163 -0.8225  0.3918 -0.0630
  134SAPE   H9X14533   7.114   1.915   9.151 -1.0050  0.1613 -0.5599
  134SAPE   H9Y14534   7.139   1.733   9.147 -0.2197  0.3603 -1.7167
  134SAPE  C31014535   7.280   1.848   9.042 -0.3114  0.1954 -0.2955
  134SAPE  H10X14536   7.358   1.921   9.071  0.2298  0.0668 -1.4033
  134SAPE  H10Y14537   7.219   1.891   8.959 -0.4100 -0.0290 -0.3419
  134SAPE  C31114538   7.336   1.714   8.985 -0.0544  0.7679  0.2536
  134SAPE  H11X14539   7.255   1.640   8.975  0.9231 -0.2707 -0.0876
  134SAPE  H11Y14540   7.418   1.676   9.051 -0.0280 -1.2620 -0.9376
  134SAPE  C31214541   7.397   1.736   8.842 -0.1287  0.1527 -0.4739
  134SAPE  H12X14542   7.482   1.808   8.853  1.5052 -1.4488 -2.1995
  134SAPE  H12Y14543   7.322   1.779   8.772 -0.6267 -1.2029 -0.7762
  134SAPE  C31314544   7.463   1.615   8.780 -0.7392  0.6352 -0.2601
  134SAPE  H13X14545   7.508   1.559   8.865  1.3587 -0.7292 -2.1821
  134SAPE  H13Y14546   7.544   1.635   8.707 -2.2914  0.1833 -2.1522
  134SAPE  C31414547   7.373   1.521   8.702 -0.2383  0.6810  0.9475
  134SAPE  H14X14548   7.279   1.522   8.762 -0.1815 -2.4886  1.1413
  134SAPE  H14Y14549   7.417   1.419   8.697 -1.8250 -0.0456  1.4484
  134SAPE  C31514550   7.343   1.564   8.557  0.0830 -0.7708  0.1794
  134SAPE  H15X14551   7.416   1.641   8.526 -0.6440 -0.4000 -0.6277
  134SAPE  H15Y14552   7.244   1.614   8.549  0.9976  0.8604 -1.1772
  134SAPE  C31614553   7.361   1.442   8.466  0.3528  0.6232  0.1004
  134SAPE  H16X14554   7.281   1.369   8.491  0.2614  0.0773 -1.7099
  134SAPE  H16Y14555   7.455   1.385   8.481  0.6879  1.0908 -0.2020
  134SAPE  C31714556   7.350   1.459   8.319 -0.6005  0.4448  0.1471
  134SAPE  H17X14557   7.416   1.545   8.294  2.1597 -1.4740  0.5119
  134SAPE  H17Y14558   7.246   1.489   8.297 -1.0816 -0.1016  1.6174
  134SAPE  C31814559   7.391   1.337   8.239  0.2926  0.3144  0.5284
  134SAPE  H18X14560   7.495   1.302   8.250  0.3928  0.4411  0.0388
  134SAPE  H18Y14561   7.370   1.356   8.131 -0.1358 -1.1040  0.3619
  134SAPE  H18Z14562   7.322   1.253   8.260 -2.6154  2.4863  0.1519
  135SAPE     N14563   5.476   1.041  10.530  0.2834  0.1870  0.7989
  135SAPE   HN114564   5.534   1.016  10.613  1.3246  0.4499  0.1638
  135SAPE   HN214565   5.424   1.129  10.543 -1.2708 -0.9288  2.3931
  135SAPE   HN314566   5.410   0.973  10.487 -2.1479  3.3714 -0.6740
  135SAPE   C1214567   5.580   1.077  10.418  0.6396 -0.6211 -0.2755
  135SAPE  H12A14568   5.633   1.170  10.448  0.5967 -0.2005 -1.4909
  135SAPE  H12B14569   5.521   1.102  10.327  1.1347  1.0923 -0.1452
  135SAPE   C1114570   5.663   0.947  10.386  0.9742  0.3796  0.2014
  135SAPE  H11A14571   5.736   0.976  10.307  2.6746  0.7522  1.8820
  135SAPE  H11B14572   5.581   0.888  10.339  0.6283  0.0260  1.2422
  135SAPE     P14573   5.697   0.742  10.548 -0.3352 -0.1974  0.2108
  135SAPE   O1314574   5.822   0.693  10.615 -0.1782 -0.0085  0.2428
  135SAPE   O1414575   5.582   0.750  10.639 -0.2843  0.2168  0.0696
  135SAPE   O1214576   5.727   0.883  10.497  0.2158 -0.0504 -0.1663
  135SAPE   O1114577   5.657   0.646  10.415  0.2189  0.3119 -0.6154
  135SAPE    C114578   5.749   0.645  10.301 -0.0990 -0.5003  0.6158
  135SAPE    HA14579   5.698   0.663  10.203 -1.5838 -1.1287  1.2659
  135SAPE    HB14580   5.828   0.723  10.302  0.8042 -1.3054 -2.1962
  135SAPE    C214581   5.827   0.506  10.291 -0.0504  0.0687 -0.8895
  135SAPE    HS14582   5.873   0.488  10.391 -0.1924  0.3722 -0.7691
  135SAPE   O2114583   5.929   0.517  10.187 -0.2176 -0.2718 -0.0398
  135SAPE   C2114584   6.022   0.428  10.190 -0.8844  0.7065 -0.0577
  135SAPE   O2214585   6.048   0.341  10.275  0.0330  0.3422 -0.5914
  135SAPE   C2214586   6.106   0.460  10.064  0.0393 -0.3347 -0.0632
  135SAPE   H2R14587   6.051   0.408   9.983 -0.6309  0.0046  0.1724
  135SAPE   H2S14588   6.112   0.570  10.052 -0.3819 -0.2440  0.5472
  135SAPE    C314589   5.729   0.386  10.269  0.3153 -1.2354  0.2926
  135SAPE    HX14590   5.659   0.376  10.355  0.6365 -2.1903  0.4514
  135SAPE    HY14591   5.788   0.293  10.279  2.2782 -0.1594 -0.9853
  135SAPE   O3114592   5.661   0.390  10.141  0.2719  0.4493  0.2592
  135SAPE   C3114593   5.602   0.281  10.097  0.3982  0.2913  0.1832
  135SAPE   O3214594   5.587   0.175  10.157  1.0152 -0.2234 -0.6754
  135SAPE   C3214595   5.541   0.319   9.964  0.0450  0.0380  0.1437
  135SAPE   H2X14596   5.501   0.423   9.965  0.3123  0.1391  0.7118
  135SAPE   H2Y14597   5.460   0.246   9.940 -0.7158  0.1424  2.2493
  135SAPE   C2314598   6.256   0.397  10.067  0.0088  0.0042 -0.0420
  135SAPE   H3R14599   6.257   0.287  10.085  1.4549 -0.0453 -0.3640
  135SAPE   H3S14600   6.316   0.449  10.145 -0.8598 -0.4966  0.9793
  135SAPE   C2414601   6.336   0.427   9.934 -0.2636 -0.2678 -0.7987
  135SAPE   H4R14602   6.439   0.405   9.971  0.0167  0.2651 -1.2562
  135SAPE   H4S14603   6.329   0.537   9.924  0.1025 -0.4913 -4.0647
  135SAPE   C2514604   6.317   0.346   9.808  0.1192  0.0393  0.5174
  135SAPE   H5R14605   6.322   0.236   9.814  0.0767  0.1685  3.4214
  135SAPE   C2614606   6.299   0.404   9.685 -0.4333 -0.2442 -0.2909
  135SAPE   H6R14607   6.300   0.333   9.602 -0.0488 -1.1234  0.4610
  135SAPE   C2714608   6.299   0.547   9.651  0.1885  0.3114  0.8948
  135SAPE   H7R14609   6.403   0.582   9.636  0.1529  0.0717  0.0602
  135SAPE   H7S14610   6.261   0.610   9.735  0.0104  0.7233  0.5093
  135SAPE   C2814611   6.212   0.570   9.527 -0.0456 -0.0890 -0.7286
  135SAPE   H8R14612   6.120   0.620   9.561  1.2053  2.4353 -0.8766
  135SAPE   C2914613   6.250   0.544   9.399 -0.5810  0.1166  0.4297
  135SAPE   H9R14614   6.164   0.565   9.334  1.1298  0.2560 -1.8449
  135SAPE  C21014615   6.371   0.475   9.346  0.1203  0.0759 -0.5005
  135SAPE  H10R14616   6.346   0.367   9.332  1.0930 -0.0382 -1.4917
  135SAPE  H10S14617   6.444   0.481   9.429 -0.7361 -0.3809  0.2857
  135SAPE  C21114618   6.438   0.534   9.221 -0.2906  0.5224  1.0963
  135SAPE  H11R14619   6.366   0.544   9.138 -3.0863  1.2311  3.5027
  135SAPE  C21214620   6.560   0.580   9.196 -0.7874 -0.4318 -0.5231
  135SAPE  H12R14621   6.584   0.600   9.091  0.1921  0.4042 -0.1403
  135SAPE  C21314622   6.681   0.588   9.292 -0.2968  0.2110 -0.8171
  135SAPE  H13R14623   6.656   0.552   9.394  1.7141 -1.0752 -0.7630
  135SAPE  H13S14624   6.686   0.697   9.312 -1.7795 -0.2055  2.0608
  135SAPE  C21414625   6.814   0.535   9.253 -0.7411 -0.3017  0.5142
  135SAPE  H14R14626   6.831   0.426   9.260  3.2005  0.0956 -1.5421
  135SAPE  C21514627   6.902   0.611   9.191 -0.8574 -0.5898 -0.1935
  135SAPE  H15R14628   7.005   0.583   9.164  0.9728  2.8299  2.6969
  135SAPE  C21614629   6.884   0.757   9.150 -0.1874 -1.2216  0.5829
  135SAPE  H16R14630   6.971   0.818   9.184  0.6159 -2.1029  0.1559
  135SAPE  H16S14631   6.795   0.812   9.187  0.3004 -1.2126  1.7628
  135SAPE  C21714632   6.889   0.763   8.997  0.3282 -0.4128  0.2536
  135SAPE  H17R14633   6.818   0.687   8.959  1.4344 -0.4749 -1.7642
  135SAPE  H17S14634   6.988   0.725   8.963  0.9690  1.4752 -0.0191
  135SAPE  C21814635   6.864   0.901   8.942  0.1682  0.2525  0.0214
  135SAPE  H18R14636   6.758   0.927   8.965  0.2711 -0.9770  1.9347
  135SAPE  H18S14637   6.864   0.897   8.831  0.2717  0.6455  0.0082
  135SAPE  C21914638   6.946   1.017   9.001 -0.2393  0.0298  0.1665
  135SAPE  H19R14639   7.049   0.978   8.994 -0.5627 -0.5738 -1.5010
  135SAPE  H19S14640   6.918   1.039   9.106 -0.1092 -0.1520  0.2374
  135SAPE  C22014641   6.953   1.139   8.904 -0.1808  0.0147 -0.4369
  135SAPE  H20R14642   7.023   1.118   8.821 -1.5843 -0.6741 -1.4687
  135SAPE  H20S14643   6.989   1.232   8.953 -0.7436 -0.0161  0.0508
  135SAPE  H20T14644   6.853   1.150   8.857 -0.7787 -1.0865  0.5579
  135SAPE   C3314645   5.638   0.314   9.841 -0.1306  0.2862 -0.1902
  135SAPE   H3X14646   5.681   0.211   9.848  1.9351  1.2029  1.0674
  135SAPE   H3Y14647   5.716   0.392   9.850  1.0913 -0.8915 -0.3391
  135SAPE   C3414648   5.569   0.323   9.710  0.6455 -0.0978  0.4018
  135SAPE   H4X14649   5.526   0.425   9.714 -1.4329 -0.9242  0.0775
  135SAPE   H4Y14650   5.488   0.248   9.696  1.3898 -0.5991 -1.4911
  135SAPE   C3514651   5.664   0.305   9.591 -0.1822 -0.3275  0.1743
  135SAPE   H5X14652   5.592   0.286   9.508  0.3740  0.1094 -0.4141
  135SAPE   H5Y14653   5.728   0.216   9.607  2.7697  1.6480 -0.2637
  135SAPE   C3614654   5.757   0.430   9.564 -0.3941  0.6072 -0.4499
  135SAPE   H6X14655   5.838   0.423   9.639  0.5634  1.8776 -1.3462
  135SAPE   H6Y14656   5.689   0.514   9.588  0.0106  0.5838  0.7950
  135SAPE   C3714657   5.803   0.455   9.420 -0.7260  0.2022 -0.8862
  135SAPE   H7X14658   5.859   0.551   9.414  0.2918 -0.2509  0.8797
  135SAPE   H7Y14659   5.716   0.462   9.351 -2.1662 -1.3537  0.7019
  135SAPE   C3814660   5.904   0.351   9.375  0.7717 -0.1171  0.1713
  135SAPE   H8X14661   5.861   0.249   9.387 -0.2586  0.1929 -0.7970
  135SAPE   H8Y14662   5.987   0.348   9.448  0.3127 -1.1869  0.6688
  135SAPE   C3914663   5.961   0.367   9.232 -0.2012  0.3000 -0.7368
  135SAPE   H9X14664   6.003   0.469   9.222 -0.0185  0.2234 -0.7607
  135SAPE   H9Y14665   5.876   0.356   9.162  0.5547 -0.6643 -1.5185
  135SAPE  C31014666   6.068   0.255   9.195  0.1862 -0.6572 -0.5155
  135SAPE  H10X14667   6.014   0.158   9.195  0.6585 -0.9220 -0.9783
  135SAPE  H10Y14668   6.147   0.247   9.272 -1.7932 -2.2021  1.4489
  135SAPE  C31114669   6.127   0.289   9.056 -0.0426  0.2220 -0.3856
  135SAPE  H11X14670   6.191   0.200   9.042 -0.6677 -0.3694  0.4247
  135SAPE  H11Y14671   6.190   0.379   9.074  2.6771 -2.0660  1.9936
  135SAPE  C31214672   6.026   0.303   8.947 -0.2194 -0.0476  0.9871
  135SAPE  H12X14673   5.969   0.398   8.955  3.1010  2.5408 -3.8561
  135SAPE  H12Y14674   5.949   0.225   8.965 -1.1598  0.5598 -0.3178
  135SAPE  C31314675   6.081   0.309   8.805  1.5596  0.5046 -0.3741
  135SAPE  H13X14676   6.115   0.205   8.782 -1.1608 -0.0929 -1.8963
  135SAPE  H13Y14677   6.168   0.378   8.810  0.5973  1.5536  2.3124
  135SAPE  C31414678   5.972   0.342   8.704  0.9819 -0.3874  0.1475
  135SAPE  H14X14679   5.910   0.431   8.729  2.3018  0.7793 -0.6792
  135SAPE  H14Y14680   5.894   0.263   8.699  2.1839 -1.5349 -0.7281
  135SAPE  C31514681   6.017   0.360   8.556  0.0514  0.2204 -0.2420
  135SAPE  H15X14682   6.058   0.463   8.558 -0.6432  0.4959  2.2324
  135SAPE  H15Y14683   5.938   0.357   8.479 -0.7684 -4.1444  0.6602
  135SAPE  C31614684   6.138   0.272   8.518 -0.6097 -0.0429  0.0354
  135SAPE  H16X14685   6.123   0.165   8.543  2.1861 -0.6565 -0.7183
  135SAPE  H16Y14686   6.228   0.291   8.581 -1.7795  1.4470  1.2976
  135SAPE  C31714687   6.179   0.275   8.369  0.4845  0.0205  0.0893
  135SAPE  H17X14688   6.265   0.206   8.353  1.0717  0.6654  0.4378
  135SAPE  H17Y14689   6.208   0.380   8.345  1.0822  0.3283  2.0768
  135SAPE  C31814690   6.071   0.243   8.272  0.0522  0.1864  0.0084
  135SAPE  H18X14691   6.123   0.244   8.174  0.2505 -1.1511  0.0964
  135SAPE  H18Y14692   5.980   0.307   8.276 -0.1718 -0.1810  0.8008
  135SAPE  H18Z14693   6.037   0.138   8.283  0.0164  0.1937 -0.0292
  136SAPE     N14694   2.665   1.536  10.779  0.3608  0.4306  0.1532
  136SAPE   HN114695   2.701   1.626  10.816 -1.9020  1.3857  0.1182
  136SAPE   HN214696   2.661   1.454  10.844  0.1418  1.2813  1.2227
  136SAPE   HN314697   2.730   1.509  10.702 -0.3921  2.4990 -1.2528
  136SAPE   C1214698   2.520   1.548  10.728  0.1975  0.3288 -0.2634
  136SAPE  H12A14699   2.491   1.445  10.701 -0.8085  0.3502  0.6840
  136SAPE  H12B14700   2.528   1.609  10.636  1.6433  0.4265 -0.0835
  136SAPE   C1114701   2.429   1.618  10.834  0.2211 -0.3189 -0.2392
  136SAPE  H11A14702   2.330   1.651  10.795  0.5265  0.1770 -0.5881
  136SAPE  H11B14703   2.480   1.711  10.867 -2.5136  1.3813 -0.6836
  136SAPE     P14704   2.298   1.418  10.956 -0.2085  0.1371 -0.1439
  136SAPE   O1314705   2.334   1.322  11.059 -0.1814 -0.4753  0.2390
  136SAPE   O1414706   2.177   1.493  10.972  0.5658 -0.2611  0.3110
  136SAPE   O1214707   2.416   1.522  10.944 -0.1076  1.0833 -0.2211
  136SAPE   O1114708   2.304   1.356  10.809 -0.6308  0.6873  0.3983
  136SAPE    C114709   2.215   1.250  10.773 -0.3664 -0.0132 -0.4551
  136SAPE    HA14710   2.143   1.223  10.854  1.5024  1.9786  1.9416
  136SAPE    HB14711   2.151   1.299  10.696 -3.3054 -2.2969  0.4507
  136SAPE    C214712   2.284   1.123  10.705 -0.9049  0.2996 -0.1747
  136SAPE    HS14713   2.343   1.087  10.792  0.6825  1.1838 -0.8650
  136SAPE   O2114714   2.355   1.172  10.586  0.4510  0.3010 -0.2952
  136SAPE   C2114715   2.475   1.180  10.596 -0.3298 -0.0464  0.9669
  136SAPE   O2214716   2.549   1.150  10.688  0.5184  0.3778 -0.0572
  136SAPE   C2214717   2.529   1.249  10.470  0.3870  0.2217 -0.8579
  136SAPE   H2R14718   2.449   1.271  10.396  0.0707  0.1438 -0.5432
  136SAPE   H2S14719   2.558   1.346  10.516 -0.6593  0.0807  0.1183
  136SAPE    C314720   2.200   1.001  10.663 -0.1317  1.0025  0.8340
  136SAPE    HX14721   2.158   1.010  10.560  1.0514  0.8666  0.3236
  136SAPE    HY14722   2.124   0.998  10.743  2.2948  1.6070  3.2516
  136SAPE   O3114723   2.292   0.889  10.667  0.2526 -0.7304  0.0511
  136SAPE   C3114724   2.246   0.790  10.603  0.3079 -0.3351 -0.1087
  136SAPE   O3214725   2.131   0.779  10.559  0.0174  0.0930  0.4086
  136SAPE   C3214726   2.350   0.671  10.600 -0.1413 -0.0603  0.5875
  136SAPE   H2X14727   2.334   0.626  10.701 -1.9298 -4.1889 -1.4166
  136SAPE   H2Y14728   2.452   0.714  10.599 -0.2122  0.0909 -0.4261
  136SAPE   C2314729   2.649   1.179  10.411  0.4372  0.1006  0.2360
  136SAPE   H3R14730   2.723   1.170  10.494 -1.0713 -1.7231  1.4128
  136SAPE   H3S14731   2.691   1.252  10.339  0.4131  0.6751  0.7946
  136SAPE   C2414732   2.619   1.045  10.348 -0.4658 -0.5018  0.2492
  136SAPE   H4R14733   2.588   0.976  10.429 -0.9335 -1.0193 -0.3642
  136SAPE   H4S14734   2.707   0.987  10.312 -1.2292 -0.9273 -0.9613
  136SAPE   C2514735   2.516   1.048  10.240 -0.6668 -0.6223 -0.1060
  136SAPE   H5R14736   2.419   1.082  10.277 -0.6069  0.0691 -0.5853
  136SAPE   C2614737   2.529   1.043  10.107  0.1303  0.1603  0.9399
  136SAPE   H6R14738   2.442   1.059  10.042  0.5386 -2.7739 -0.3727
  136SAPE   C2714739   2.651   1.027  10.024 -0.4538  0.1109  0.1638
  136SAPE   H7R14740   2.726   1.090  10.076 -2.4670  2.6629  0.0727
  136SAPE   H7S14741   2.639   1.073   9.924  0.3805 -0.3315 -0.1470
  136SAPE   C2814742   2.703   0.888  10.000  0.1417  1.2443  0.5228
  136SAPE   H8R14743   2.700   0.829  10.093 -1.7347 -0.1625 -0.4150
  136SAPE   C2914744   2.736   0.829   9.883 -0.0271  0.0251  0.8929
  136SAPE   H9R14745   2.771   0.725   9.877  1.8710  0.7137 -0.1638
  136SAPE  C21014746   2.756   0.898   9.749  0.2810  0.4702 -0.2136
  136SAPE  H10R14747   2.810   0.825   9.686  0.3958  0.2519  0.1352
  136SAPE  H10S14748   2.831   0.978   9.763 -0.1708  0.9670 -0.6219
  136SAPE  C21114749   2.626   0.935   9.679 -0.6794 -0.1787  0.2541
  136SAPE  H11R14750   2.536   0.944   9.741 -0.7763 -0.0042  0.0897
  136SAPE  C21214751   2.618   0.942   9.545 -0.0828  0.4246  0.8429
  136SAPE  H12R14752   2.517   0.966   9.508 -0.2917  0.9131  1.7045
  136SAPE  C21314753   2.722   0.913   9.441  0.0039  0.4991 -0.2061
  136SAPE  H13R14754   2.820   0.898   9.493 -0.3405  1.9156  0.9072
  136SAPE  H13S14755   2.738   1.001   9.375 -0.5832  2.2243  1.8726
  136SAPE  C21414756   2.707   0.781   9.361 -0.2669  0.3964  0.3185
  136SAPE  H14R14757   2.706   0.696   9.431  0.7338  0.5573  0.5348
  136SAPE  C21514758   2.695   0.761   9.230 -0.5876  0.4796 -0.0897
  136SAPE  H15R14759   2.703   0.660   9.186  1.3859  0.6045 -0.0573
  136SAPE  C21614760   2.694   0.864   9.117 -0.3502 -0.5294 -0.1185
  136SAPE  H16R14761   2.629   0.953   9.135  1.1067  0.6779 -0.7026
  136SAPE  H16S14762   2.662   0.820   9.020  2.3115  1.9626 -2.2301
  136SAPE  C21714763   2.843   0.916   9.088  0.3578 -0.1687  0.1491
  136SAPE  H17R14764   2.904   0.875   9.170 -1.3063 -1.6454  0.6896
  136SAPE  H17S14765   2.846   1.027   9.078  1.0315 -0.0453  1.7441
  136SAPE  C21814766   2.880   0.861   8.949  0.4053  0.1473 -0.0219
  136SAPE  H18R14767   2.807   0.895   8.872  0.3570  2.2312  0.9258
  136SAPE  H18S14768   2.869   0.750   8.952  0.8861  0.0802 -0.6078
  136SAPE  C21914769   3.023   0.907   8.907 -0.6714  0.6667 -0.5823
  136SAPE  H19R14770   3.014   1.016   8.893  0.9460  0.8198 -0.4827
  136SAPE  H19S14771   3.047   0.869   8.805  3.0726  0.3401  0.3531
  136SAPE  C22014772   3.133   0.875   9.007  0.9908 -0.0664 -0.3228
  136SAPE  H20R14773   3.135   0.764   9.019 -2.7429 -0.0973  0.6483
  136SAPE  H20S14774   3.131   0.917   9.110 -0.5529 -1.8455  0.4042
  136SAPE  H20T14775   3.230   0.896   8.958  0.0287 -2.1651 -3.2793
  136SAPE   C3314776   2.332   0.575  10.483 -0.2576  0.1440 -0.1474
  136SAPE   H3X14777   2.226   0.545  10.470 -0.2766  0.3754 -0.5343
  136SAPE   H3Y14778   2.376   0.474  10.493 -1.4490 -0.2944  0.8149
  136SAPE   C3414779   2.377   0.644  10.350 -0.1299  0.5505  0.2994
  136SAPE   H4X14780   2.487   0.649  10.341  0.0133 -1.0311  1.1376
  136SAPE   H4Y14781   2.345   0.751  10.340  0.5971  1.0873  3.2188
  136SAPE   C3514782   2.310   0.568  10.231 -0.6408  0.5932 -0.4314
  136SAPE   H5X14783   2.200   0.584  10.240 -0.7634 -1.3724  1.8572
  136SAPE   H5Y14784   2.333   0.462  10.256  0.1009  1.0769  0.9980
  136SAPE   C3614785   2.369   0.621  10.098 -0.2745 -0.0425  0.3432
  136SAPE   H6X14786   2.478   0.599  10.095 -0.3062 -0.2167  0.4552
  136SAPE   H6Y14787   2.360   0.731  10.082  0.0877 -0.0767 -0.1257
  136SAPE   C3714788   2.332   0.527   9.981  0.1649  0.4010  0.7136
  136SAPE   H7X14789   2.221   0.536   9.979 -0.1631 -2.8815  1.2111
  136SAPE   H7Y14790   2.363   0.423  10.001 -2.8102 -0.7890 -0.6028
  136SAPE   C3814791   2.402   0.567   9.859  0.1058  0.2118  0.3572
  136SAPE   H8X14792   2.513   0.555   9.857  0.1228  0.4728 -0.5607
  136SAPE   H8Y14793   2.385   0.675   9.842 -0.7865 -0.1182 -0.9566
  136SAPE   C3914794   2.348   0.493   9.721 -0.7577  0.2652  0.0994
  136SAPE   H9X14795   2.241   0.525   9.720 -0.5204  1.0696 -2.4215
  136SAPE   H9Y14796   2.351   0.383   9.730 -0.1646  0.2817  0.1197
  136SAPE  C31014797   2.418   0.533   9.589 -0.1735 -0.3052  0.3206
  136SAPE  H10X14798   2.529   0.520   9.596  0.2109  2.4066 -0.4155
  136SAPE  H10Y14799   2.406   0.641   9.569  2.5964 -0.1987 -1.0723
  136SAPE  C31114800   2.357   0.468   9.464 -0.0746 -0.4362  0.6315
  136SAPE  H11X14801   2.246   0.473   9.460 -0.0718  0.4926  1.5027
  136SAPE  H11Y14802   2.385   0.361   9.465 -1.3419 -0.7684  0.8280
  136SAPE  C31214803   2.405   0.515   9.322  0.1444 -0.7620  0.1579
  136SAPE  H12X14804   2.515   0.499   9.316  0.1376 -0.9725  0.5958
  136SAPE  H12Y14805   2.396   0.623   9.297  1.4803 -0.3008  1.5383
  136SAPE  C31314806   2.339   0.425   9.215  1.1591  0.5655  0.4950
  136SAPE  H13X14807   2.232   0.449   9.204  0.1212 -1.8982  4.0434
  136SAPE  H13Y14808   2.349   0.317   9.239  0.4512  0.2156 -0.7432
  136SAPE  C31414809   2.413   0.453   9.075 -0.0766 -0.2731 -0.7414
  136SAPE  H14X14810   2.513   0.404   9.076 -0.1499 -0.4530 -2.0054
  136SAPE  H14Y14811   2.436   0.560   9.054 -0.0195 -0.3633 -1.1354
  136SAPE  C31514812   2.337   0.383   8.953  0.7797 -0.6070 -0.0015
  136SAPE  H15X14813   2.247   0.445   8.932  0.1465 -0.7573  2.1457
  136SAPE  H15Y14814   2.307   0.280   8.983 -0.6033 -0.0203  0.7174
  136SAPE  C31614815   2.400   0.378   8.811 -0.0966 -0.3210  0.1709
  136SAPE  H16X14816   2.320   0.324   8.755 -0.4969  0.6464 -0.2074
  136SAPE  H16Y14817   2.486   0.308   8.809  0.0547 -0.1289 -0.0649
  136SAPE  C31714818   2.431   0.516   8.758 -0.0075  0.2941 -0.0148
  136SAPE  H17X14819   2.506   0.556   8.830 -0.6250 -0.0604  0.8367
  136SAPE  H17Y14820   2.346   0.586   8.773 -0.8719 -1.4595  3.7522
  136SAPE  C31814821   2.491   0.516   8.619 -0.1145  0.2438 -0.2342
  136SAPE  H18X14822   2.586   0.459   8.612  0.9190  1.7825  0.7861
  136SAPE  H18Y14823   2.519   0.620   8.592 -1.3180  0.7347  0.3297
  136SAPE  H18Z14824   2.419   0.476   8.544 -0.7053 -0.7869  0.8572
  137SAPE     N14825   0.287   3.306  10.894 -0.0686 -0.3638 -0.1936
  137SAPE   HN114826   0.297   3.290  10.792 -1.0578  1.6466 -0.6389
  137SAPE   HN214827   0.233   3.392  10.918 -0.1558 -0.6097  0.5016
  137SAPE   HN314828   0.381   3.338  10.924  1.0350 -2.8129 -0.9229
  137SAPE   C1214829   0.235   3.185  10.966  0.5936 -0.0418 -0.1891
  137SAPE  H12A14830   0.274   3.184  11.070  0.4091 -0.6980 -0.1245
  137SAPE  H12B14831   0.275   3.093  10.920 -0.5553  0.3004 -1.9500
  137SAPE   C1114832   0.081   3.175  10.961 -0.2668 -0.4936  0.3430
  137SAPE  H11A14833   0.052   3.280  10.982  2.3953  0.3724 -0.2021
  137SAPE  H11B14834   0.035   3.109  11.039 -0.2750  0.8626  1.4973
  137SAPE     P14835  -0.106   3.086  10.793  0.0283  0.0515  0.2826
  137SAPE   O1314836  -0.094   2.979  10.693 -0.0616  1.0162 -1.2112
  137SAPE   O1414837  -0.185   3.056  10.918 -0.2349 -0.5295  0.5539
  137SAPE   O1214838   0.034   3.144  10.827 -0.1200  0.5051  0.1639
  137SAPE   O1114839  -0.182   3.213  10.726 -1.1833 -0.2963  0.2834
  137SAPE    C114840  -0.115   3.337  10.686 -0.1432 -0.0086  0.7070
  137SAPE    HA14841  -0.204   3.403  10.683 -0.1035 -0.0320 -3.3659
  137SAPE    HB14842  -0.039   3.381  10.754 -1.2153  3.0679 -0.0185
  137SAPE    C214843  -0.048   3.324  10.548  0.1069 -0.0130 -0.6703
  137SAPE    HS14844  -0.070   3.422  10.501  1.0848  0.5479  0.0046
  137SAPE   O2114845  -0.087   3.205  10.472  0.5519 -0.9664 -0.0764
  137SAPE   C2114846  -0.198   3.225  10.412  0.0528 -0.7924  0.5121
  137SAPE   O2214847  -0.267   3.326  10.421  0.3404 -0.7558 -0.0440
  137SAPE   C2214848  -0.224   3.114  10.314 -0.3323  0.6180  0.3596
  137SAPE   H2R14849  -0.260   3.028  10.375  1.8416  1.1449  2.4344
  137SAPE   H2S14850  -0.307   3.151  10.249 -1.6661 -0.6759  1.2787
  137SAPE    C314851   0.107   3.317  10.563 -0.3251  0.3401  0.1147
  137SAPE    HX14852   0.139   3.235  10.631 -0.5636  0.3433  0.2294
  137SAPE    HY14853   0.126   3.409  10.622  2.4258  0.2529 -0.5256
  137SAPE   O3114854   0.181   3.322  10.436  0.0366  0.0307 -0.0507
  137SAPE   C3114855   0.212   3.201  10.373  0.7796 -0.6595 -0.2441
  137SAPE   O3214856   0.173   3.093  10.411 -0.0236  0.0671  0.0286
  137SAPE   C3214857   0.293   3.212  10.244 -0.0821 -0.3758  0.1122
  137SAPE   H2X14858   0.361   3.125  10.236 -0.9938 -1.0361 -0.7260
  137SAPE   H2Y14859   0.360   3.298  10.263  0.6668 -1.3358  1.8706
  137SAPE   C2314860  -0.100   3.081  10.229 -0.2488  0.0497 -0.0545
  137SAPE   H3R14861  -0.020   3.027  10.284 -0.3637  0.4206  0.4732
  137SAPE   H3S14862  -0.047   3.166  10.180 -1.5487 -1.0368 -3.5000
  137SAPE   C2414863  -0.126   2.992  10.104  0.6002  0.0082  0.2893
  137SAPE   H4R14864  -0.170   2.898  10.143  1.0265  0.5475  2.1025
  137SAPE   H4S14865  -0.027   2.977  10.055 -0.2755 -0.8878 -1.2391
  137SAPE   C2514866  -0.221   3.067  10.011  0.2974  0.1198  0.5425
  137SAPE   H5R14867  -0.328   3.080  10.033 -0.2796 -1.2917 -1.3511
  137SAPE   C2614868  -0.188   3.119   9.886 -0.4978 -0.4983  0.1118
  137SAPE   H6R14869  -0.252   3.185   9.826 -0.5431 -1.1602 -0.5773
  137SAPE   C2714870  -0.046   3.105   9.839  0.4432  0.2833  0.3127
  137SAPE   H7R14871   0.039   3.092   9.910  1.6659  2.3777 -0.7252
  137SAPE   H7S14872  -0.014   3.200   9.791  0.9095 -1.7503 -3.5394
  137SAPE   C2814873  -0.027   2.986   9.747 -0.4424  0.3129 -0.2568
  137SAPE   H8R14874  -0.039   2.891   9.802  1.3658  0.9347  1.2546
  137SAPE   C2914875  -0.012   2.983   9.612 -0.0316 -0.3380  0.0841
  137SAPE   H9R14876   0.013   2.891   9.558  0.4209  0.9021 -1.8517
  137SAPE  C21014877   0.004   3.100   9.515  0.1793 -0.4325  0.2742
  137SAPE  H10R14878   0.109   3.114   9.481 -0.1184  0.8521 -0.1474
  137SAPE  H10S14879  -0.021   3.195   9.565  2.0757 -0.3799  1.1616
  137SAPE  C21114880  -0.089   3.076   9.402  0.0874 -0.3804 -0.3245
  137SAPE  H11R14881  -0.184   3.032   9.435 -0.5578  1.1117 -0.1343
  137SAPE  C21214882  -0.069   3.109   9.271  0.2822  0.0671  0.3571
  137SAPE  H12R14883  -0.153   3.113   9.200 -0.5241  2.5588  1.3970
  137SAPE  C21314884   0.052   3.168   9.201  0.5077  0.3952 -0.2061
  137SAPE  H13R14885   0.053   3.110   9.107  0.2233  0.2083 -0.0938
  137SAPE  H13S14886   0.146   3.144   9.256  0.0670 -1.4713 -0.2389
  137SAPE  C21414887   0.046   3.317   9.180  0.3589  0.7386 -0.6390
  137SAPE  H14R14888  -0.016   3.381   9.244 -0.0425 -0.4606  0.1852
  137SAPE  C21514889   0.136   3.397   9.121  0.1409  0.4128  0.6401
  137SAPE  H15R14890   0.142   3.506   9.121 -0.2433  0.4341  0.2139
  137SAPE  C21614891   0.261   3.338   9.055  0.4138 -0.3483  0.2731
  137SAPE  H16R14892   0.252   3.227   9.045 -0.2237 -0.3378  0.6764
  137SAPE  H16S14893   0.348   3.364   9.119  0.4304 -1.3082  0.6559
  137SAPE  C21714894   0.297   3.402   8.917  0.6731  0.2699 -0.2264
  137SAPE  H17R14895   0.400   3.376   8.886 -0.4541 -3.6765 -0.9123
  137SAPE  H17S14896   0.295   3.512   8.934 -1.6393  0.3217 -0.6623
  137SAPE  C21814897   0.207   3.352   8.803  0.5832  0.0762 -0.1693
  137SAPE  H18R14898   0.217   3.405   8.706  0.1445 -1.3540 -0.9976
  137SAPE  H18S14899   0.106   3.367   8.847  0.8045  1.1981 -0.0075
  137SAPE  C21914900   0.208   3.200   8.753  0.3488 -0.0565 -0.1122
  137SAPE  H19R14901   0.215   3.136   8.843  1.5872  1.5020  0.9315
  137SAPE  H19S14902   0.302   3.185   8.697  0.0691  0.8036 -0.8161
  137SAPE  C22014903   0.083   3.168   8.666  0.7334 -0.8542  0.6273
  137SAPE  H20R14904  -0.012   3.197   8.715  1.1251  1.7206 -0.0475
  137SAPE  H20S14905   0.079   3.057   8.668  0.4198 -0.8774 -0.6796
  137SAPE  H20T14906   0.082   3.187   8.556  0.0175  1.7403  1.0551
  137SAPE   C3314907   0.209   3.214  10.113  0.1485 -1.1810  0.5769
  137SAPE   H3X14908   0.128   3.287  10.134  2.1570  1.1132  0.6744
  137SAPE   H3Y14909   0.166   3.114  10.094 -0.7231 -0.3791 -1.9532
  137SAPE   C3414910   0.271   3.257   9.981  0.6835 -0.9001  0.0866
  137SAPE   H4X14911   0.323   3.354   9.996 -0.8527 -0.1925  0.9912
  137SAPE   H4Y14912   0.189   3.279   9.909 -0.6968 -1.7299  1.3874
  137SAPE   C3514913   0.348   3.141   9.917  0.3748 -0.1636  0.5587
  137SAPE   H5X14914   0.325   3.036   9.942  1.6566 -0.6012 -0.0223
  137SAPE   H5Y14915   0.450   3.170   9.950 -0.4498  0.8664  2.3021
  137SAPE   C3614916   0.341   3.141   9.762  0.2825 -0.0613  0.1940
  137SAPE   H6X14917   0.363   3.247   9.735  0.0361  0.0324  0.3568
  137SAPE   H6Y14918   0.236   3.119   9.735 -0.0862  1.5236  0.2827
  137SAPE   C3714919   0.433   3.029   9.716  0.1909  0.2720  0.4316
  137SAPE   H7X14920   0.413   2.944   9.784 -0.0789 -0.9346 -1.1288
  137SAPE   H7Y14921   0.539   3.055   9.736 -0.1986 -0.3384  3.5529
  137SAPE   C3814922   0.405   2.987   9.573 -0.6656  0.3677  1.0142
  137SAPE   H8X14923   0.297   2.965   9.562 -0.0319 -1.5624 -2.1797
  137SAPE   H8Y14924   0.472   2.900   9.558 -0.4691  0.8143 -0.8635
  137SAPE   C3914925   0.438   3.101   9.471  0.2173  0.5436 -0.2110
  137SAPE   H9X14926   0.548   3.118   9.481  0.0904  0.9553  0.5700
  137SAPE   H9Y14927   0.395   3.199   9.500 -0.2958  0.0151  0.8326
  137SAPE  C31014928   0.397   3.082   9.321 -0.5220 -0.6968 -0.2787
  137SAPE  H10X14929   0.388   3.185   9.281 -2.4079  0.7783  3.6614
  137SAPE  H10Y14930   0.297   3.034   9.315 -0.5538 -0.4636 -1.8097
  137SAPE  C31114931   0.478   2.989   9.236 -1.0203  0.3287  0.4673
  137SAPE  H11X14932   0.474   2.884   9.272 -2.0012  0.0498 -0.4248
  137SAPE  H11Y14933   0.583   3.024   9.239 -0.8234 -0.3141  1.2522
  137SAPE  C31214934   0.428   2.997   9.099 -0.8906  0.6396 -0.3365
  137SAPE  H12X14935   0.467   3.091   9.056  0.8729  0.5969  1.0955
  137SAPE  H12Y14936   0.317   3.000   9.096 -0.8334  2.9749 -1.6798
  137SAPE  C31314937   0.463   2.880   9.018 -0.5766  0.3848  0.7204
  137SAPE  H13X14938   0.399   2.801   9.063  0.4886 -0.9405 -0.0358
  137SAPE  H13Y14939   0.569   2.847   9.023 -0.3080  1.2007  0.5836
  137SAPE  C31414940   0.431   2.910   8.867 -0.6293  0.3647 -0.6677
  137SAPE  H14X14941   0.481   3.004   8.837  1.7735 -0.0756  1.7362
  137SAPE  H14Y14942   0.322   2.906   8.849 -0.9713  0.6306  1.2658
  137SAPE  C31514943   0.493   2.798   8.782  0.6525 -0.8418  0.3098
  137SAPE  H15X14944   0.453   2.700   8.815 -0.7973 -1.3132 -2.6684
  137SAPE  H15Y14945   0.601   2.793   8.808  0.8995  0.1538 -0.5163
  137SAPE  C31614946   0.466   2.828   8.631  0.2575  0.0715 -0.6675
  137SAPE  H16X14947   0.473   2.937   8.612  1.2770  0.0115 -0.6575
  137SAPE  H16Y14948   0.362   2.790   8.619  0.0060  1.1971 -2.2119
  137SAPE  C31714949   0.562   2.760   8.528 -0.1268 -0.3800  1.1896
  137SAPE  H17X14950   0.512   2.785   8.431  0.0047  0.7899  1.4097
  137SAPE  H17Y14951   0.574   2.651   8.546 -0.2655 -0.5793  0.1009
  137SAPE  C31814952   0.709   2.820   8.533  0.7444 -0.1181 -0.2125
  137SAPE  H18X14953   0.765   2.782   8.445 -0.5038  1.1373 -1.5713
  137SAPE  H18Y14954   0.749   2.777   8.628 -1.5456 -0.8852  0.4449
  137SAPE  H18Z14955   0.697   2.930   8.540 -1.6840 -0.1095 -3.6111
  138SAPE     N14956   3.417   4.227  11.185 -0.2785  0.5014  0.3895
  138SAPE   HN114957   3.520   4.218  11.196 -0.1919  0.8973 -0.0459
  138SAPE   HN214958   3.393   4.298  11.257 -0.8527 -0.3027  0.9901
  138SAPE   HN314959   3.367   4.137  11.194  0.7754 -0.0529  0.7606
  138SAPE   C1214960   3.391   4.293  11.044 -0.0778  0.0230  1.0713
  138SAPE  H12A14961   3.452   4.385  11.047  1.5243 -1.0048  0.8876
  138SAPE  H12B14962   3.281   4.308  11.043 -0.1829 -0.7410  0.3819
  138SAPE   C1114963   3.434   4.175  10.938  0.0308 -0.1520  0.7868
  138SAPE  H11A14964   3.541   4.145  10.946  0.0490 -0.0446  0.9374
  138SAPE  H11B14965   3.427   4.227  10.840  0.2135 -0.6856  0.4882
  138SAPE     P14966   3.219   4.042  10.877  0.0787  0.1663  0.4918
  138SAPE   O1314967   3.152   3.917  10.922  0.2184 -0.3942 -0.3444
  138SAPE   O1414968   3.153   4.174  10.894 -0.2999  0.2645 -0.2839
  138SAPE   O1214969   3.364   4.053  10.955  0.0398 -0.4868  0.4089
  138SAPE   O1114970   3.261   4.029  10.723 -0.9245  0.4505 -0.0318
  138SAPE    C114971   3.345   3.922  10.683 -0.1323  0.2220 -0.3405
  138SAPE    HA14972   3.437   3.914  10.744  2.0414  0.9161 -3.4009
  138SAPE    HB14973   3.296   3.824  10.705  0.4851  0.1375  0.6966
  138SAPE    C214974   3.380   3.919  10.533  0.8188 -0.5251 -0.1613
  138SAPE    HS14975   3.444   3.833  10.503 -0.4809 -1.2346 -0.9181
  138SAPE   O2114976   3.460   4.039  10.515  0.5369  0.4110  0.0485
  138SAPE   C2114977   3.589   4.031  10.543  0.5028 -0.1182  0.3293
  138SAPE   O2214978   3.647   3.928  10.576  0.1043 -0.6012  0.5355
  138SAPE   C2214979   3.666   4.164  10.538  0.3255  0.5316 -0.5858
  138SAPE   H2R14980   3.586   4.241  10.541 -0.4382 -0.2930  0.9698
  138SAPE   H2S14981   3.730   4.168  10.629 -3.4288  1.9480  2.1324
  138SAPE    C314982   3.264   3.919  10.432  1.4382 -0.4915 -0.0899
  138SAPE    HX14983   3.197   4.006  10.453  0.3885 -1.6780  1.6269
  138SAPE    HY14984   3.212   3.821  10.442 -0.0803  0.2788 -0.1927
  138SAPE   O3114985   3.328   3.929  10.302 -0.3050  0.3062 -0.2592
  138SAPE   C3114986   3.260   3.997  10.208  0.5410  0.7634  0.3002
  138SAPE   O3214987   3.151   4.046  10.226  0.3518 -0.6116 -1.0099
  138SAPE   C3214988   3.355   4.004  10.090 -0.1759  0.2326 -0.1133
  138SAPE   H2X14989   3.394   3.906  10.057 -0.7939 -0.0566  0.0085
  138SAPE   H2Y14990   3.436   4.064  10.136 -1.1070  1.2166  0.2587
  138SAPE   C2314991   3.748   4.165  10.408  0.6636 -0.0203  0.5730
  138SAPE   H3R14992   3.825   4.086  10.399  1.6059  1.2370 -3.7408
  138SAPE   H3S14993   3.800   4.263  10.407 -3.5678  2.3686  0.0318
  138SAPE   C2414994   3.655   4.156  10.281 -0.4674  0.1407 -0.1478
  138SAPE   H4R14995   3.584   4.073  10.301 -2.2109  1.2163 -1.6956
  138SAPE   H4S14996   3.713   4.118  10.194 -3.2707 -1.1802 -1.5127
  138SAPE   C2514997   3.586   4.284  10.244 -0.9723 -0.3359  0.4826
  138SAPE   H5R14998   3.547   4.340  10.331 -0.7809 -1.0591  1.0440
  138SAPE   C2614999   3.551   4.319  10.113 -0.7025 -0.3045 -0.1614
  138SAPE   H6R15000   3.491   4.412  10.112 -1.0164 -0.4965  0.4513
  138SAPE   C2715001   3.585   4.257   9.983  0.0447 -0.1995 -0.1620
  138SAPE   H7R15002   3.505   4.269   9.907  0.1262 -1.3436 -0.4479
  138SAPE   H7S15003   3.585   4.146   9.993 -3.2589 -0.1002  1.5952
  138SAPE   C2815004   3.719   4.287   9.914  0.0449  1.0627  0.8308
  138SAPE   H8R15005   3.796   4.219   9.954 -0.1350  0.0029 -0.5869
  138SAPE   C2915006   3.737   4.352   9.805  0.8760 -0.3878  0.0935
  138SAPE   H9R15007   3.837   4.346   9.761  1.7450 -3.4128  2.2924
  138SAPE  C21015008   3.626   4.432   9.742  0.4924 -0.1519  0.4530
  138SAPE  H10R15009   3.584   4.507   9.812 -2.3222  0.9437 -2.2901
  138SAPE  H10S15010   3.539   4.373   9.709 -0.4077  0.4960  1.6275
  138SAPE  C21115011   3.689   4.503   9.627 -0.3288 -0.6554 -0.0277
  138SAPE  H11R15012   3.715   4.608   9.649  1.3134 -0.2418 -3.4910
  138SAPE  C21215013   3.723   4.466   9.503 -0.3747 -0.7237  0.7459
  138SAPE  H12R15014   3.760   4.539   9.430  2.3182  0.8020  3.4991
  138SAPE  C21315015   3.689   4.333   9.454 -0.1003 -0.3189  1.0387
  138SAPE  H13R15016   3.586   4.332   9.414  0.4948  0.9989 -0.5696
  138SAPE  H13S15017   3.679   4.255   9.533 -1.6791 -1.6813 -0.4690
  138SAPE  C21415018   3.789   4.277   9.347 -0.0150 -0.3606 -0.0491
  138SAPE  H14R15019   3.894   4.266   9.376 -0.1563 -1.0422  0.2187
  138SAPE  C21515020   3.759   4.247   9.216 -0.1615  0.6592  0.0622
  138SAPE  H15R15021   3.838   4.200   9.157  0.9607  2.3894  0.1450
  138SAPE  C21615022   3.624   4.265   9.147  0.3159  0.0653 -0.1018
  138SAPE  H16R15023   3.612   4.361   9.094  0.8509 -0.0524 -0.4342
  138SAPE  H16S15024   3.539   4.270   9.219  0.0318  0.3550 -0.4553
  138SAPE  C21715025   3.583   4.155   9.050  0.5084 -0.6567  1.0760
  138SAPE  H17R15026   3.602   4.054   9.092 -0.9335 -1.5519 -0.3663
  138SAPE  H17S15027   3.654   4.172   8.967 -0.5819 -0.7235  0.1208
  138SAPE  C21815028   3.434   4.157   8.998 -0.2437 -0.0772 -0.4072
  138SAPE  H18R15029   3.401   4.260   8.973  0.5660  0.2391 -0.1845
  138SAPE  H18S15030   3.370   4.149   9.088  2.2824  4.0259  1.8868
  138SAPE  C21915031   3.394   4.050   8.898 -0.6253  0.4599 -0.0320
  138SAPE  H19R15032   3.424   4.069   8.793  0.0019  1.2562  0.2938
  138SAPE  H19S15033   3.284   4.062   8.897 -0.9546 -1.6862  3.1106
  138SAPE  C22015034   3.426   3.896   8.934  0.2126 -0.0653 -0.0613
  138SAPE  H20R15035   3.380   3.869   9.032 -1.3035 -1.1025 -1.0329
  138SAPE  H20S15036   3.536   3.888   8.941  0.3109  0.9726 -0.2675
  138SAPE  H20T15037   3.383   3.816   8.870  0.3780 -1.3890  1.4637
  138SAPE   C3315038   3.274   4.068   9.973 -0.4897 -0.7437 -0.2765
  138SAPE   H3X15039   3.349   4.090   9.893  1.2622 -0.5689  1.3776
  138SAPE   H3Y15040   3.229   4.164  10.005  1.4448 -0.4451  1.6394
  138SAPE   C3415041   3.187   3.960   9.901  0.5833 -0.1823 -0.4846
  138SAPE   H4X15042   3.093   3.947   9.959  1.7285 -0.0085  1.4632
  138SAPE   H4Y15043   3.235   3.860   9.896 -2.8883 -1.8968 -0.8773
  138SAPE   C3515044   3.143   4.008   9.765 -0.2802 -0.2041  0.2179
  138SAPE   H5X15045   3.225   4.001   9.690  1.9978 -0.5924  2.6559
  138SAPE   H5Y15046   3.116   4.115   9.778 -5.8138 -1.5041  0.7603
  138SAPE   C3615047   3.024   3.931   9.708 -0.5551  0.1203 -0.8794
  138SAPE   H6X15048   2.933   3.956   9.767  0.0621 -0.1459  0.2137
  138SAPE   H6Y15049   3.052   3.823   9.715 -1.6264 -0.0859  0.5627
  138SAPE   C3715050   3.003   3.969   9.565 -0.1102 -0.1763 -0.7351
  138SAPE   H7X15051   3.094   3.945   9.505  0.3627  1.2986 -0.6371
  138SAPE   H7Y15052   2.985   4.079   9.563  0.3169 -0.1080 -0.9329
  138SAPE   C3815053   2.892   3.893   9.498 -0.0043  0.5943 -0.4249
  138SAPE   H8X15054   2.793   3.904   9.548 -0.5973 -0.8940 -1.2334
  138SAPE   H8Y15055   2.913   3.785   9.483  1.1900  1.0942 -2.4377
  138SAPE   C3915056   2.862   3.931   9.355  0.5031 -0.5289  0.1615
  138SAPE   H9X15057   2.851   4.042   9.352  0.5586 -0.5334 -0.2356
  138SAPE   H9Y15058   2.764   3.887   9.329  0.1961  0.2944 -0.1029
  138SAPE  C31015059   2.962   3.892   9.250 -0.5564  0.2006  0.0318
  138SAPE  H10X15060   2.974   3.781   9.253 -0.2837  0.2161 -0.5324
  138SAPE  H10Y15061   3.063   3.930   9.276 -0.7071 -0.9800  2.5668
  138SAPE  C31115062   2.934   3.916   9.098  0.6248  0.0489  0.6708
  138SAPE  H11X15063   2.932   4.026   9.083  0.7683  0.1521  1.3827
  138SAPE  H11Y15064   2.829   3.884   9.076  0.6654 -0.0688  0.6481
  138SAPE  C31215065   3.022   3.837   9.002 -0.0192 -0.2243 -0.7375
  138SAPE  H12X15066   3.020   3.733   9.039 -1.9103  0.1470  0.2437
  138SAPE  H12Y15067   3.121   3.888   9.010  0.5891 -1.5000 -0.0421
  138SAPE  C31315068   2.978   3.843   8.855  0.4814 -0.9538  0.1077
  138SAPE  H13X15069   2.972   3.946   8.815 -2.6086 -1.9372 -2.1981
  138SAPE  H13Y15070   2.872   3.811   8.844 -0.0173  0.3620  1.0011
  138SAPE  C31415071   3.073   3.763   8.768  0.2583  0.6425  0.0659
  138SAPE  H14X15072   3.090   3.669   8.824  3.4805  0.6090 -0.8170
  138SAPE  H14Y15073   3.170   3.816   8.755  1.3291 -1.1181  0.6449
  138SAPE  C31515074   3.007   3.727   8.627  0.0061 -0.0663  0.1302
  138SAPE  H15X15075   2.985   3.826   8.581 -1.4437 -1.1016 -1.4385
  138SAPE  H15Y15076   2.913   3.670   8.635  0.9541 -1.5690  0.8662
  138SAPE  C31615077   3.109   3.650   8.537 -0.0858  0.2919 -0.3358
  138SAPE  H16X15078   3.121   3.549   8.580  2.3141  0.3651 -0.7363
  138SAPE  H16Y15079   3.207   3.698   8.560  1.7568 -2.6295 -1.8039
  138SAPE  C31715080   3.096   3.653   8.386  0.7982 -0.0353  0.4806
  138SAPE  H17X15081   2.994   3.617   8.361  0.6605  0.5046  0.2349
  138SAPE  H17Y15082   3.179   3.595   8.339  0.8859  1.1839 -0.9139
  138SAPE  C31815083   3.105   3.799   8.324 -1.1014 -0.0323 -0.3395
  138SAPE  H18X15084   3.206   3.840   8.345 -1.7925  0.6669  1.8026
  138SAPE  H18Y15085   3.022   3.853   8.374  0.3600  3.0229 -1.1099
  138SAPE  H18Z15086   3.094   3.791   8.214 -1.9599 -1.1429 -0.1814
  139SAPE     N15087   2.526   2.746  10.750 -0.2043 -1.0763 -0.0297
  139SAPE   HN115088   2.453   2.681  10.786  0.2291 -0.3096  2.2590
  139SAPE   HN215089   2.600   2.755  10.823  0.5732 -0.4829 -0.8741
  139SAPE   HN315090   2.483   2.836  10.722  2.9482 -0.0961 -2.0216
  139SAPE   C1215091   2.595   2.723  10.623  0.3206 -0.1086  0.5353
  139SAPE  H12A15092   2.521   2.717  10.540 -1.2773 -2.2033  2.0832
  139SAPE  H12B15093   2.653   2.629  10.632 -2.1290 -1.5902  1.2066
  139SAPE   C1115094   2.702   2.827  10.603  0.0669 -0.4798  0.0249
  139SAPE  H11A15095   2.654   2.925  10.580  2.0240  0.5896  0.4146
  139SAPE  H11B15096   2.761   2.803  10.511 -2.8435 -2.3978 -1.4163
  139SAPE     P15097   2.924   2.907  10.729  0.1146 -0.3342 -0.0668
  139SAPE   O1315098   2.922   3.053  10.752 -0.5412  0.4570  0.0900
  139SAPE   O1415099   3.016   2.835  10.823 -0.3109 -0.2609  0.2091
  139SAPE   O1215100   2.778   2.852  10.720 -0.7451  0.3967  0.0278
  139SAPE   O1115101   2.988   2.890  10.584  0.4819 -0.2762 -0.0644
  139SAPE    C115102   2.981   3.001  10.491  0.2431  0.5531 -0.0949
  139SAPE    HA15103   2.877   3.009  10.453 -0.2431 -1.0233  0.8645
  139SAPE    HB15104   3.005   3.103  10.529  2.5035  0.6974 -1.7713
  139SAPE    C215105   3.089   2.995  10.371  0.0479  0.8875  0.1211
  139SAPE    HS15106   3.057   3.075  10.300  1.2736  1.3002  0.0202
  139SAPE   O2115107   3.089   2.863  10.323  0.6198 -0.2437  0.4452
  139SAPE   C2115108   2.968   2.829  10.267  0.5245 -0.5503 -0.2805
  139SAPE   O2215109   2.875   2.907  10.240 -0.1600 -0.4611  0.3053
  139SAPE   C2215110   2.968   2.686  10.247  0.3614  0.0571 -0.1069
  139SAPE   H2R15111   2.972   2.630  10.343  1.1062  1.2583  0.5692
  139SAPE   H2S15112   2.870   2.659  10.201  0.8031  0.3704 -1.2570
  139SAPE    C315113   3.232   3.027  10.424  0.1921  0.0715 -0.1990
  139SAPE    HX15114   3.258   2.950  10.499 -0.3793  0.7954  0.7468
  139SAPE    HY15115   3.219   3.117  10.488 -0.2889  0.7903 -1.2879
  139SAPE   O3115116   3.329   3.054  10.323  0.2764  0.0349 -0.3321
  139SAPE   C3115117   3.399   2.942  10.295 -0.1110 -1.0603 -0.3418
  139SAPE   O3215118   3.395   2.844  10.366 -0.0374  0.3272  0.4080
  139SAPE   C3215119   3.502   2.973  10.183 -0.6758 -0.1098 -0.0660
  139SAPE   H2X15120   3.605   2.974  10.225 -0.7358  2.3804  0.1259
  139SAPE   H2Y15121   3.483   3.082  10.166 -0.0590  0.1627  0.9330
  139SAPE   C2315122   3.099   2.645  10.170  0.4975  0.0275  0.0333
  139SAPE   H3R15123   3.081   2.538  10.142  0.3350 -0.0967  0.6198
  139SAPE   H3S15124   3.181   2.641  10.244 -0.9696  2.0283  1.8069
  139SAPE   C2415125   3.137   2.727  10.046  0.2214  0.7879  0.0926
  139SAPE   H4R15126   3.236   2.695  10.007  1.1416  1.7006  1.6277
  139SAPE   H4S15127   3.157   2.826  10.093 -0.2888  0.8127  0.2583
  139SAPE   C2515128   3.032   2.738   9.939  0.0730  0.3219 -0.0525
  139SAPE   H5R15129   3.005   2.638   9.901 -0.6655  0.6348 -0.3671
  139SAPE   C2615130   2.982   2.846   9.876  0.1323 -0.3272 -1.0996
  139SAPE   H6R15131   2.917   2.836   9.788 -1.6144 -0.1910  0.1362
  139SAPE   C2715132   3.027   2.991   9.907  0.0543  0.4584 -0.8841
  139SAPE   H7R15133   3.123   3.001   9.851  0.5992  4.5023  0.5880
  139SAPE   H7S15134   3.039   3.004  10.016 -0.7750  2.2542 -0.9971
  139SAPE   C2815135   2.925   3.095   9.877 -0.6067  0.5142 -0.1909
  139SAPE   H8R15136   2.857   3.128   9.956 -0.1308  1.7566 -0.2889
  139SAPE   C2915137   2.907   3.144   9.752 -0.3295  0.4644 -0.1149
  139SAPE   H9R15138   2.850   3.237   9.743  0.6995  1.2794  1.5842
  139SAPE  C21015139   2.977   3.103   9.625 -0.4110 -0.8327  0.3096
  139SAPE  H10R15140   3.056   3.025   9.626 -0.9199 -1.3673 -0.5050
  139SAPE  H10S15141   3.026   3.192   9.579 -1.6419 -0.5507 -0.4815
  139SAPE  C21115142   2.882   3.056   9.514  0.7547 -0.6710 -0.2379
  139SAPE  H11R15143   2.778   3.055   9.551  0.9491  1.2347  0.4242
  139SAPE  C21215144   2.909   3.046   9.381 -0.2475  0.0882  0.5271
  139SAPE  H12R15145   2.824   3.036   9.312  1.1111 -0.4478 -1.1004
  139SAPE  C21315146   3.039   3.079   9.312 -0.3597 -0.1707 -0.4488
  139SAPE  H13R15147   3.126   3.024   9.354  0.4411  1.4362  0.0140
  139SAPE  H13S15148   3.058   3.185   9.336 -3.8465  0.2468  0.7025
  139SAPE  C21415149   3.036   3.059   9.159 -0.2802 -0.1486 -0.0544
  139SAPE  H14R15150   3.064   2.959   9.123  0.0021 -0.2618  0.4726
  139SAPE  C21515151   3.011   3.145   9.063 -0.2809 -0.3249  0.7556
  139SAPE  H15R15152   3.009   3.119   8.956  0.8984  1.2222  0.3352
  139SAPE  C21615153   2.985   3.292   9.085 -0.1117  0.8419  0.5210
  139SAPE  H16R15154   3.041   3.348   9.007  0.2050 -1.0478 -0.6396
  139SAPE  H16S15155   3.020   3.326   9.185 -0.8214 -1.5124  1.6141
  139SAPE  C21715156   2.846   3.321   9.103  0.0985 -0.0522  0.4893
  139SAPE  H17R15157   2.805   3.286   9.200  2.5697  0.6649  1.8344
  139SAPE  H17S15158   2.779   3.278   9.025  2.3671  0.9987 -2.1150
  139SAPE  C21815159   2.817   3.472   9.114  0.7076 -0.0306 -0.1949
  139SAPE  H18R15160   2.870   3.523   9.030  0.3065  0.2133 -0.2997
  139SAPE  H18S15161   2.846   3.509   9.215 -0.0075  2.7045 -0.9497
  139SAPE  C21915162   2.665   3.505   9.111  0.3688  0.4746  0.4459
  139SAPE  H19R15163   2.622   3.470   9.208 -0.8888 -0.4809 -0.4463
  139SAPE  H19S15164   2.608   3.443   9.039  0.3378  0.5210  0.4295
  139SAPE  C22015165   2.624   3.643   9.076 -0.0098  0.4823 -0.3332
  139SAPE  H20R15166   2.522   3.641   9.032 -0.2729 -1.8162  0.3073
  139SAPE  H20S15167   2.679   3.686   8.989 -0.4527 -1.6491 -1.7257
  139SAPE  H20T15168   2.637   3.714   9.159 -0.7916 -1.4827  1.5101
  139SAPE   C3315169   3.483   2.893  10.050  0.0285  0.1234  0.2082
  139SAPE   H3X15170   3.495   2.962   9.964 -0.6903  0.2205  0.1855
  139SAPE   H3Y15171   3.380   2.852  10.053  0.4260 -0.9820 -0.8382
  139SAPE   C3415172   3.578   2.768  10.037 -0.4022 -0.3535 -0.7273
  139SAPE   H4X15173   3.568   2.698  10.123  2.3421  0.2485  0.1260
  139SAPE   H4Y15174   3.676   2.820  10.045 -0.1696 -0.8096 -0.5381
  139SAPE   C3515175   3.575   2.702   9.903  0.9507 -0.4580 -0.3217
  139SAPE   H5X15176   3.600   2.774   9.822  0.2607 -0.6832 -0.7409
  139SAPE   H5Y15177   3.474   2.666   9.875  0.4376  0.0598  0.8625
  139SAPE   C3615178   3.671   2.583   9.899 -0.4300 -0.2455 -0.2324
  139SAPE   H6X15179   3.624   2.504   9.962 -0.8063 -1.9390 -2.5869
  139SAPE   H6Y15180   3.774   2.603   9.937  0.1775 -0.8915 -1.5227
  139SAPE   C3715181   3.699   2.548   9.751  1.2975 -0.5119 -1.0823
  139SAPE   H7X15182   3.760   2.627   9.701 -0.4229 -0.2987 -2.9095
  139SAPE   H7Y15183   3.600   2.542   9.701  0.1721  2.6913  0.5959
  139SAPE   C3815184   3.770   2.415   9.726  0.1976  0.1393 -0.0599
  139SAPE   H8X15185   3.714   2.345   9.791  0.4828  1.4886  1.6667
  139SAPE   H8Y15186   3.875   2.429   9.760  0.0168 -2.4621  1.7006
  139SAPE   C3915187   3.759   2.380   9.580  0.6636  0.6011 -0.6577
  139SAPE   H9X15188   3.777   2.472   9.521  0.2619  1.5035  0.5933
  139SAPE   H9Y15189   3.655   2.345   9.566  1.2526 -0.8847 -1.4648
  139SAPE  C31015190   3.861   2.272   9.542 -0.0782  0.8773  0.1941
  139SAPE  H10X15191   3.806   2.187   9.588 -0.5307  0.8248 -0.4312
  139SAPE  H10Y15192   3.964   2.282   9.581 -0.1333  0.7266  0.3826
  139SAPE  C31115193   3.867   2.255   9.388  0.3587  0.5616  0.1821
  139SAPE  H11X15194   3.874   2.360   9.352  0.6501  0.3452 -0.3876
  139SAPE  H11Y15195   3.779   2.209   9.339  1.0961 -2.1633  1.3399
  139SAPE  C31215196   3.981   2.162   9.346 -1.0801 -0.2984 -0.1942
  139SAPE  H12X15197   3.964   2.060   9.388 -0.2232 -0.9584 -1.4130
  139SAPE  H12Y15198   4.074   2.200   9.394 -3.0285  0.0905  3.4395
  139SAPE  C31315199   3.997   2.146   9.191 -0.2503 -0.1505  0.1361
  139SAPE  H13X15200   3.929   2.065   9.155 -1.2490  1.8568 -2.7144
  139SAPE  H13Y15201   4.099   2.105   9.178 -0.8333 -1.2865 -1.0409
  139SAPE  C31415202   3.988   2.284   9.122 -0.8497 -0.2222  0.1539
  139SAPE  H14X15203   4.062   2.356   9.161 -0.0430 -1.7188  1.4419
  139SAPE  H14Y15204   3.884   2.320   9.139 -0.8278 -0.4511  0.8208
  139SAPE  C31515205   4.015   2.257   8.975 -0.1074 -0.0483  0.2333
  139SAPE  H15X15206   3.977   2.156   8.947 -2.2530  0.6588  0.5074
  139SAPE  H15Y15207   4.125   2.249   8.959 -0.4434 -1.2437 -1.7541
  139SAPE  C31615208   3.955   2.360   8.882 -0.1883 -0.1763  0.4869
  139SAPE  H16X15209   3.845   2.365   8.895  0.1670  1.5502  3.2526
  139SAPE  H16Y15210   3.981   2.465   8.909 -0.3241  0.3264 -1.2455
  139SAPE  C31715211   3.996   2.327   8.738  0.0027 -0.2506  0.6726
  139SAPE  H17X15212   3.986   2.219   8.713  1.1441 -0.2790  0.2926
  139SAPE  H17Y15213   4.103   2.347   8.718 -0.0824 -1.0410 -0.6838
  139SAPE  C31815214   3.913   2.398   8.630 -0.2838 -0.6159  0.0630
  139SAPE  H18X15215   3.806   2.400   8.656 -0.1897 -0.9498  0.4809
  139SAPE  H18Y15216   3.914   2.335   8.538 -0.4495  0.5871 -0.7660
  139SAPE  H18Z15217   3.946   2.502   8.612 -2.5854 -0.0140 -0.7533
  140SAPE     N15218   6.084   6.113  11.063 -0.3116  0.1066  0.2779
  140SAPE   HN115219   6.167   6.093  11.004  1.2550 -0.8594  2.7088
  140SAPE   HN215220   6.115   6.138  11.159  3.9556  1.7909 -1.4235
  140SAPE   HN315221   6.034   6.022  11.062  0.9561 -0.5926 -0.6158
  140SAPE   C1215222   5.999   6.226  10.998 -0.2887  0.6303 -0.0438
  140SAPE  H12A15223   5.960   6.181  10.904 -1.4241  1.7035 -0.1082
  140SAPE  H12B15224   6.065   6.313  10.978  0.0291  0.2376 -0.6767
  140SAPE   C1115225   5.871   6.251  11.083  0.0403 -0.1913 -0.4045
  140SAPE  H11A15226   5.814   6.157  11.094  1.6877 -1.6078 -3.3302
  140SAPE  H11B15227   5.807   6.322  11.027 -1.0242 -0.3544  0.5876
  140SAPE     P15228   5.894   6.466  11.240  0.2026 -0.2679 -0.5060
  140SAPE   O1315229   5.754   6.511  11.213  0.7207 -0.2127  0.8057
  140SAPE   O1415230   5.951   6.491  11.373 -0.0012 -0.2385  0.7699
  140SAPE   O1215231   5.912   6.313  11.209 -0.2396  0.6646  0.4885
  140SAPE   O1115232   5.990   6.529  11.136  0.3768  0.2099 -0.0433
  140SAPE    C115233   5.953   6.648  11.061 -0.8359 -0.1075  0.2075
  140SAPE    HA15234   5.865   6.698  11.106 -0.3018  1.4010 -0.4020
  140SAPE    HB15235   6.033   6.724  11.075 -1.0637  0.8058 -3.0352
  140SAPE    C215236   5.942   6.618  10.907  0.1390 -0.6798 -0.6607
  140SAPE    HS15237   5.849   6.558  10.897  1.6240 -2.8316 -2.0599
  140SAPE   O2115238   6.058   6.543  10.859 -0.1616 -0.0887 -0.4008
  140SAPE   C2115239   6.028   6.464  10.759 -0.0854  0.2834  0.6602
  140SAPE   O2215240   5.922   6.438  10.714  0.3602 -0.4297  0.5142
  140SAPE   C2215241   6.159   6.415  10.694  0.9180 -0.1731 -0.2650
  140SAPE   H2R15242   6.239   6.439  10.767 -0.8665  3.1493  0.6876
  140SAPE   H2S15243   6.155   6.304  10.680  0.8662 -0.4404  1.7204
  140SAPE    C315244   5.921   6.742  10.827 -0.4154 -0.0085 -0.2207
  140SAPE    HX15245   6.012   6.801  10.852 -1.2034  1.9605 -1.8339
  140SAPE    HY15246   5.831   6.798  10.860 -0.3110  0.8096 -1.2879
  140SAPE   O3115247   5.918   6.717  10.678 -0.1346  0.6144 -0.0764
  140SAPE   C3115248   5.798   6.687  10.632 -0.7785  0.4584  0.4541
  140SAPE   O3215249   5.701   6.661  10.702  0.8754  0.0290  0.1358
  140SAPE   C3215250   5.812   6.657  10.480  0.5942 -0.2467 -0.1730
  140SAPE   H2X15251   5.716   6.642  10.427  0.9489 -0.8184 -0.6607
  140SAPE   H2Y15252   5.854   6.554  10.478  1.2615 -0.0395  1.8179
  140SAPE   C2315253   6.185   6.473  10.549 -0.1210  0.1799  0.2965
  140SAPE   H3R15254   6.296   6.480  10.541 -0.2902  1.3171 -1.2525
  140SAPE   H3S15255   6.140   6.573  10.531 -2.6625 -1.0633 -0.5611
  140SAPE   C2415256   6.139   6.375  10.438 -0.3878 -0.0389 -0.1550
  140SAPE   H4R15257   6.143   6.440  10.348  0.3000 -0.0848 -0.1627
  140SAPE   H4S15258   6.037   6.343  10.470  0.4780 -1.7478  1.0174
  140SAPE   C2515259   6.235   6.258  10.423  0.4641  0.0657 -0.2433
  140SAPE   H5R15260   6.254   6.195  10.512  0.6221 -0.7711 -0.8612
  140SAPE   C2615261   6.305   6.225  10.318  1.4890  0.5828  0.0116
  140SAPE   H6R15262   6.378   6.143  10.325  1.1005  0.3735  2.0052
  140SAPE   C2715263   6.313   6.299  10.186  0.2226  0.1504 -0.6667
  140SAPE   H7R15264   6.269   6.402  10.186  1.3668  0.6428 -0.7524
  140SAPE   H7S15265   6.262   6.244  10.104  2.9221 -0.5907 -1.8848
  140SAPE   C2815266   6.455   6.332  10.155 -0.1786  0.3592 -0.0144
  140SAPE   H8R15267   6.477   6.439  10.144  1.3688  0.0846  0.3420
  140SAPE   C2915268   6.552   6.244  10.123 -0.1666  0.3865  0.1376
  140SAPE   H9R15269   6.654   6.283  10.106  0.8496 -2.1895  0.0124
  140SAPE  C21015270   6.550   6.093  10.121  0.6605 -0.4089  0.2388
  140SAPE  H10R15271   6.559   6.072  10.012  1.7435  2.0382 -0.1997
  140SAPE  H10S15272   6.455   6.046  10.151 -0.1915 -0.7265 -2.8423
  140SAPE  C21115273   6.656   6.022  10.204 -0.6544  0.1599 -0.2086
  140SAPE  H11R15274   6.612   5.979  10.295 -0.1285 -1.3204 -0.6550
  140SAPE  C21215275   6.780   5.993  10.160 -0.5124 -0.4774  0.2991
  140SAPE  H12R15276   6.849   5.936  10.224 -0.3956 -2.4518 -1.5078
  140SAPE  C21315277   6.837   6.032  10.022  0.0076  0.1818 -0.0871
  140SAPE  H13R15278   6.761   6.045   9.941  2.2109 -3.5652 -2.9352
  140SAPE  H13S15279   6.897   5.946   9.986 -1.4683 -1.3764  1.0951
  140SAPE  C21415280   6.945   6.133  10.011 -0.5820  0.1072  0.1531
  140SAPE  H14R15281   6.974   6.181  10.106 -0.9454 -1.9963  1.3637
  140SAPE  C21515282   7.007   6.163   9.892  0.0652 -0.0156  0.4662
  140SAPE  H15R15283   7.088   6.238   9.888  0.8614 -0.9563 -1.8154
  140SAPE  C21615284   6.990   6.100   9.756  0.0754  0.0302 -0.2566
  140SAPE  H16R15285   6.924   6.159   9.689  0.3117 -1.9530 -2.3028
  140SAPE  H16S15286   6.936   6.004   9.770 -2.6759  1.5316 -0.2447
  140SAPE  C21715287   7.122   6.076   9.681  0.4751  0.4505  0.5147
  140SAPE  H17R15288   7.180   5.997   9.732 -1.0327 -1.3041 -0.4082
  140SAPE  H17S15289   7.178   6.170   9.662  0.6502 -0.0670 -1.8031
  140SAPE  C21815290   7.081   6.029   9.536  0.2989 -0.2981 -0.4276
  140SAPE  H18R15291   7.001   6.097   9.500 -0.6202 -0.8291  0.5935
  140SAPE  H18S15292   7.031   5.930   9.549 -2.8301  1.3756  0.7798
  140SAPE  C21915293   7.203   6.038   9.437  0.5220 -0.2305 -0.7930
  140SAPE  H19R15294   7.277   5.958   9.458  0.0490 -0.5474 -0.3071
  140SAPE  H19S15295   7.246   6.140   9.443 -3.3822  1.5631 -1.4958
  140SAPE  C22015296   7.158   6.013   9.299  0.8266  0.2263  0.0890
  140SAPE  H20R15297   7.239   6.021   9.224 -0.8198  0.3055 -1.7289
  140SAPE  H20S15298   7.082   6.089   9.269 -0.6370 -1.2067  0.0769
  140SAPE  H20T15299   7.110   5.914   9.282  0.4365  0.6080 -1.0798
  140SAPE   C3315300   5.900   6.745  10.393  0.1591 -0.2567 -0.2450
  140SAPE   H3X15301   5.989   6.771  10.454  0.3819 -2.2242  0.3200
  140SAPE   H3Y15302   5.856   6.843  10.367  1.5986  0.1218 -1.3637
  140SAPE   C3415303   5.945   6.680  10.261  0.5390 -0.0167  0.1837
  140SAPE   H4X15304   5.853   6.642  10.213  0.1562  1.6905 -0.4739
  140SAPE   H4Y15305   6.030   6.611  10.281  1.3995  1.0206  0.1263
  140SAPE   C3515306   5.998   6.783  10.156  0.0399  0.2929 -0.6509
  140SAPE   H5X15307   6.102   6.811  10.183  0.9573 -0.6751 -3.0424
  140SAPE   H5Y15308   5.939   6.876  10.170 -0.9290 -0.4902  0.6519
  140SAPE   C3615309   5.996   6.731  10.015  0.0699 -0.0454  0.5510
  140SAPE   H6X15310   5.901   6.679   9.989  1.1817 -1.1294 -1.4975
  140SAPE   H6Y15311   6.074   6.652  10.002  0.3409  0.3169 -0.0084
  140SAPE   C3715312   6.011   6.836   9.900  0.8290 -0.1309 -0.1451
  140SAPE   H7X15313   6.104   6.893   9.920  1.8497 -1.3830 -1.3086
  140SAPE   H7Y15314   5.924   6.906   9.908  0.3667 -0.6044 -0.9996
  140SAPE   C3815315   6.023   6.782   9.756  0.2789 -0.2108  0.4400
  140SAPE   H8X15316   5.921   6.746   9.731  0.1346  0.7858 -0.4439
  140SAPE   H8Y15317   6.102   6.705   9.759 -1.5556 -2.1613 -0.5020
  140SAPE   C3915318   6.043   6.885   9.646  0.0497 -0.5748  0.5018
  140SAPE   H9X15319   6.147   6.922   9.653 -0.3341  0.8102 -0.9228
  140SAPE   H9Y15320   5.973   6.969   9.663 -1.2898 -1.8331  1.3635
  140SAPE  C31015321   6.022   6.824   9.502 -0.3829 -0.0239  0.4809
  140SAPE  H10X15322   6.027   6.908   9.429 -0.0833 -0.5063 -0.0490
  140SAPE  H10Y15323   5.926   6.770   9.493  0.3762 -1.2575 -0.2145
  140SAPE  C31115324   6.128   6.720   9.456  0.3020  0.0923 -0.4849
  140SAPE  H11X15325   6.101   6.621   9.500 -0.1449  1.0008  1.3532
  140SAPE  H11Y15326   6.228   6.752   9.494 -0.4240  0.4229  1.1834
  140SAPE  C31215327   6.141   6.705   9.308  0.5059  0.3247 -0.4679
  140SAPE  H12X15328   6.167   6.795   9.247  1.2172  0.2372 -0.2987
  140SAPE  H12Y15329   6.044   6.660   9.279  1.1028 -2.3085  1.3860
  140SAPE  C31315330   6.254   6.599   9.269 -0.8765 -0.4136  0.0877
  140SAPE  H13X15331   6.246   6.509   9.333  0.2603  0.3300  1.3059
  140SAPE  H13Y15332   6.353   6.647   9.284 -1.2559  0.2397  0.5254
  140SAPE  C31415333   6.249   6.552   9.132  0.7287  0.1578 -0.3695
  140SAPE  H14X15334   6.232   6.640   9.067  1.6531  0.2178 -0.5311
  140SAPE  H14Y15335   6.178   6.468   9.115 -0.3788  0.7369  1.3092
  140SAPE  C31515336   6.378   6.478   9.096 -0.1166 -0.1443  0.0813
  140SAPE  H15X15337   6.412   6.421   9.185  1.9483  1.7770  0.5535
  140SAPE  H15Y15338   6.459   6.547   9.063  0.9669 -0.1224  2.6652
  140SAPE  C31615339   6.361   6.376   8.984  0.4265  0.0754  0.0228
  140SAPE  H16X15340   6.458   6.382   8.930  1.1250  0.0328  1.2366
  140SAPE  H16Y15341   6.277   6.402   8.917 -0.9440 -1.2935  1.1767
  140SAPE  C31715342   6.343   6.237   9.033 -0.2508 -0.4094 -0.0225
  140SAPE  H17X15343   6.287   6.174   8.960  0.0782  0.6692 -1.2395
  140SAPE  H17Y15344   6.291   6.230   9.130  0.1322 -3.5479  0.0064
  140SAPE  C31815345   6.477   6.174   9.055 -0.4372  0.8655  0.0720
  140SAPE  H18X15346   6.540   6.232   9.126 -1.6206  1.1455  0.9215
  140SAPE  H18Y15347   6.533   6.156   8.961  1.5500 -1.0697  1.5605
  140SAPE  H18Z15348   6.464   6.078   9.110  1.0402 -0.2051 -1.4370
  141SAPE     N15349   5.529   0.301  10.649  1.0343  0.3048  0.1279
  141SAPE   HN115350   5.444   0.341  10.606  2.3656  1.0976 -1.8527
  141SAPE   HN215351   5.555   0.212  10.602 -0.8049 -0.4154  0.4733
  141SAPE   HN315352   5.492   0.278  10.743 -0.1802  0.1451 -0.3798
  141SAPE   C1215353   5.656   0.384  10.656  0.4902 -0.3910  0.3454
  141SAPE  H12A15354   5.642   0.464  10.731 -1.0420  0.3486 -0.7064
  141SAPE  H12B15355   5.662   0.429  10.555  0.4334  0.1244  0.5736
  141SAPE   C1115356   5.779   0.294  10.686  0.5427 -0.0584  0.0277
  141SAPE  H11A15357   5.872   0.355  10.695  0.5472  0.0536 -0.7724
  141SAPE  H11B15358   5.795   0.233  10.595  0.4745 -3.4945  2.2110
  141SAPE     P15359   5.801   0.269  10.942  0.0121  0.2173 -0.0964
  141SAPE   O1315360   5.687   0.367  10.972  0.2252  0.4950 -0.1585
  141SAPE   O1415361   5.820   0.158  11.040  0.3875 -0.0927 -0.0354
  141SAPE   O1215362   5.766   0.212  10.795 -0.3999  0.6361 -0.2969
  141SAPE   O1115363   5.940   0.344  10.927 -0.2505 -0.6068  0.0520
  141SAPE    C115364   6.044   0.265  10.871 -0.1784 -0.1345  0.3699
  141SAPE    HA15365   6.083   0.201  10.953  1.8704 -0.6157 -0.9363
  141SAPE    HB15366   6.015   0.205  10.782 -0.8358 -0.1557  0.5981
  141SAPE    C215367   6.170   0.349  10.826  0.1663 -0.0505  1.0334
  141SAPE    HS15368   6.187   0.420  10.910  0.0516 -0.9719  1.8529
  141SAPE   O2115369   6.135   0.427  10.709 -0.3475  0.2847 -0.1371
  141SAPE   C2115370   6.240   0.512  10.673  0.1416  0.6172 -0.4559
  141SAPE   O2215371   6.329   0.542  10.750 -0.3442 -0.1282  0.5238
  141SAPE   C2215372   6.217   0.567  10.534  0.5208  0.6863  1.1025
  141SAPE   H2R15373   6.312   0.555  10.477 -0.0028 -0.7835  0.5158
  141SAPE   H2S15374   6.150   0.493  10.487  0.0764  1.0715  1.1316
  141SAPE    C315375   6.293   0.255  10.802  0.2979  0.7793  0.3405
  141SAPE    HX15376   6.315   0.196  10.893  0.4335 -2.9653 -2.0045
  141SAPE    HY15377   6.386   0.314  10.790  1.1009 -0.0956  2.1586
  141SAPE   O3115378   6.259   0.153  10.706 -0.2058  0.3666 -0.0467
  141SAPE   C3115379   6.353   0.129  10.609 -0.4788  0.9018 -0.1560
  141SAPE   O3215380   6.456   0.197  10.593  0.1756  0.0022 -0.4904
  141SAPE   C3215381   6.308  -0.005  10.534  0.2018 -0.6241 -0.2257
  141SAPE   H2X15382   6.204   0.019  10.505  0.4354 -1.1507 -1.5209
  141SAPE   H2Y15383   6.321  -0.090  10.604 -0.5366 -0.8455 -0.3573
  141SAPE   C2315384   6.182   0.719  10.538 -0.8275 -0.1274 -0.2628
  141SAPE   H3R15385   6.270   0.780  10.568  0.0483 -1.4602 -0.0805
  141SAPE   H3S15386   6.102   0.745  10.611  1.3769  1.7838  1.5578
  141SAPE   C2415387   6.131   0.769  10.403 -0.1227  0.0925  0.4253
  141SAPE   H4R15388   6.034   0.719  10.385  0.2735  0.1319 -1.9241
  141SAPE   H4S15389   6.197   0.744  10.317  1.4092  0.1401  1.5557
  141SAPE   C2515390   6.103   0.923  10.398 -0.7612 -0.2937  0.3834
  141SAPE   H5R15391   6.018   0.949  10.462 -1.2270  1.4733 -0.9397
  141SAPE   C2615392   6.175   1.018  10.327  0.1928  0.1061 -0.2308
  141SAPE   H6R15393   6.146   1.124  10.336  1.3762  0.3776  0.4003
  141SAPE   C2715394   6.295   0.993  10.249 -0.1506  0.0189 -0.0950
  141SAPE   H7R15395   6.315   1.080  10.183 -2.1901  1.2068  0.8402
  141SAPE   H7S15396   6.282   0.896  10.196 -2.1263 -0.3214  0.9792
  141SAPE   C2815397   6.418   0.968  10.328 -0.3233 -0.2666 -0.4198
  141SAPE   H8R15398   6.399   0.948  10.435  3.1919  0.4332  0.3914
  141SAPE   C2915399   6.537   0.974  10.280 -0.2608 -0.1266  0.1612
  141SAPE   H9R15400   6.621   0.949  10.346 -0.7022 -1.4979  0.2091
  141SAPE  C21015401   6.577   1.010  10.134  0.0235  0.2984 -0.2040
  141SAPE  H10R15402   6.641   1.100  10.130 -1.9038  1.6890 -0.5049
  141SAPE  H10S15403   6.498   1.044  10.062  0.1505  0.4783 -0.2597
  141SAPE  C21115404   6.655   0.889  10.091  1.0131  0.1842  0.3827
  141SAPE  H11R15405   6.666   0.815  10.172  1.3756  0.3286  0.4652
  141SAPE  C21215406   6.707   0.865   9.973  0.6188  0.2251 -0.2724
  141SAPE  H12R15407   6.771   0.775   9.969  0.4516  0.1238 -0.6990
  141SAPE  C21315408   6.715   0.942   9.844  0.1115  0.4120  0.3797
  141SAPE  H13R15409   6.699   1.050   9.862  1.2069  0.6358  0.0952
  141SAPE  H13S15410   6.625   0.923   9.783  1.0728 -1.2380 -0.5711
  141SAPE  C21415411   6.841   0.918   9.767  1.0214 -0.9984 -0.7577
  141SAPE  H14R15412   6.929   0.907   9.831 -1.7809  1.1081  3.6870
  141SAPE  C21515413   6.859   0.926   9.632  0.2160 -0.3670 -0.0017
  141SAPE  H15R15414   6.960   0.917   9.591  0.6546 -0.9728  1.2242
  141SAPE  C21615415   6.759   0.943   9.522 -0.3810  0.4230  0.3994
  141SAPE  H16R15416   6.660   0.980   9.557 -0.5836 -1.3644  1.8074
  141SAPE  H16S15417   6.739   0.850   9.466  2.7877 -0.2793  0.3491
  141SAPE  C21715418   6.808   1.034   9.403 -0.2629  0.4240 -0.1678
  141SAPE  H17R15419   6.756   1.007   9.309 -0.0147 -2.1504  0.3806
  141SAPE  H17S15420   6.912   1.010   9.372  0.1994  1.9885  0.1242
  141SAPE  C21815421   6.783   1.184   9.431  0.2012 -0.5450 -0.3438
  141SAPE  H18R15422   6.828   1.218   9.527  0.4292  2.2143 -1.3825
  141SAPE  H18S15423   6.678   1.204   9.463  0.9565  0.9340  1.2707
  141SAPE  C21915424   6.829   1.266   9.313  0.3878 -0.0289 -0.0381
  141SAPE  H19R15425   6.916   1.220   9.262  0.0209  0.2181 -0.9131
  141SAPE  H19S15426   6.872   1.363   9.346  1.0360 -0.1703 -0.4597
  141SAPE  C22015427   6.718   1.281   9.204 -0.0457 -0.3754 -0.0261
  141SAPE  H20R15428   6.614   1.306   9.233  0.1928 -1.3436  1.7723
  141SAPE  H20S15429   6.718   1.182   9.154 -0.0553  0.2160 -1.2056
  141SAPE  H20T15430   6.740   1.348   9.118 -3.8644  0.1150 -0.6799
  141SAPE   C3315431   6.377  -0.026  10.396 -0.0763 -0.1373  0.1135
  141SAPE   H3X15432   6.336  -0.115  10.343 -0.5779 -0.4057  0.9580
  141SAPE   H3Y15433   6.483  -0.053  10.417 -0.4859 -2.1868 -0.2926
  141SAPE   C3415434   6.365   0.093  10.302 -0.4567  0.4580  0.5287
  141SAPE   H4X15435   6.385   0.195  10.341  1.3261  1.1687 -2.1236
  141SAPE   H4Y15436   6.260   0.119  10.276 -0.3135 -2.3401 -3.1707
  141SAPE   C3515437   6.457   0.087  10.177  0.5244 -0.4396 -0.0325
  141SAPE   H5X15438   6.556   0.064  10.222  2.2206  1.7995 -2.4112
  141SAPE   H5Y15439   6.463   0.193  10.143 -0.3769 -0.1400  0.7365
  141SAPE   C3615440   6.415  -0.020  10.070 -0.2432 -0.2867 -0.4927
  141SAPE   H6X15441   6.305  -0.019  10.050 -0.6291  3.8726  1.1415
  141SAPE   H6Y15442   6.434  -0.123  10.106 -1.3039 -0.1079  0.6395
  141SAPE   C3715443   6.488   0.007   9.934 -0.1751 -0.2936  0.5407
  141SAPE   H7X15444   6.593  -0.025   9.942 -0.0405 -0.1378 -0.5432
  141SAPE   H7Y15445   6.491   0.117   9.916  1.4571 -0.5566 -0.7674
  141SAPE   C3815446   6.427  -0.067   9.815 -0.4920 -0.2887  0.6309
  141SAPE   H8X15447   6.482  -0.037   9.723 -0.2829  0.3967  0.9746
  141SAPE   H8Y15448   6.321  -0.037   9.804  0.1908  1.2807 -1.9914
  141SAPE   C3915449   6.440  -0.216   9.844 -0.0471  0.3327  0.6197
  141SAPE   H9X15450   6.374  -0.234   9.931 -1.1543  0.5697 -0.1646
  141SAPE   H9Y15451   6.545  -0.240   9.870  0.1930  1.0816  0.3707
  141SAPE  C31015452   6.392  -0.295   9.724  0.7092  0.3447 -0.6146
  141SAPE  H10X15453   6.462  -0.274   9.640  1.2048 -1.2533 -0.6185
  141SAPE  H10Y15454   6.292  -0.257   9.693  0.0150  0.7852  2.0281
  141SAPE  C31115455   6.381  -0.452   9.739 -0.1983  0.4537  0.9631
  141SAPE  H11X15456   6.322  -0.491   9.653 -0.4057 -2.3210  2.3005
  141SAPE  H11Y15457   6.324  -0.491   9.826 -2.1849  0.6863 -0.2150
  141SAPE  C31215458   6.517  -0.522   9.717 -0.7252  0.0882  0.4092
  141SAPE  H12X15459   6.591  -0.501   9.797 -0.4647 -0.9631  0.4473
  141SAPE  H12Y15460   6.555  -0.478   9.622 -1.1663  2.5225  1.3240
  141SAPE  C31315461   6.498  -0.680   9.713  1.1488  0.0858 -0.5602
  141SAPE  H13X15462   6.419  -0.702   9.637 -0.6801  2.2514  0.6488
  141SAPE  H13Y15463   6.463  -0.702   9.816  1.0293  0.5529 -0.4964
  141SAPE  C31415464   6.627  -0.746   9.666 -0.0505 -0.3143 -0.0359
  141SAPE  H14X15465   6.634  -0.847   9.712  0.2076 -0.1617  0.2621
  141SAPE  H14Y15466   6.716  -0.693   9.706  0.2803  0.1618 -1.3762
  141SAPE  C31515467   6.637  -0.760   9.519 -0.5482 -0.2423  0.7104
  141SAPE  H15X15468   6.703  -0.682   9.477  0.4279 -1.8941 -0.9123
  141SAPE  H15Y15469   6.534  -0.747   9.479 -1.5501 -0.8889  2.9644
  141SAPE  C31615470   6.696  -0.897   9.480  0.4395  0.3808 -0.2126
  141SAPE  H16X15471   6.623  -0.976   9.510  0.4958  0.1796 -0.6002
  141SAPE  H16Y15472   6.792  -0.913   9.534 -0.0120 -1.5289  0.0519
  141SAPE  C31715473   6.723  -0.920   9.328 -0.1417 -1.3336 -0.2099
  141SAPE  H17X15474   6.770  -0.823   9.299 -0.7501 -0.3371  2.0163
  141SAPE  H17Y15475   6.622  -0.924   9.284 -0.3621 -2.2406  0.3829
  141SAPE  C31815476   6.811  -1.030   9.286 -0.2030 -0.4197 -0.1012
  141SAPE  H18X15477   6.777  -1.124   9.335  0.2980  0.9116  2.9232
  141SAPE  H18Y15478   6.908  -1.022   9.340 -0.0148  0.1997 -0.5167
  141SAPE  H18Z15479   6.830  -1.048   9.178  0.7271  0.1120 -0.0348
  142SAPE     N15480   0.612   6.555  11.008  0.1599 -0.0657 -0.1102
  142SAPE   HN115481   0.560   6.569  11.097 -1.3241 -0.1913 -0.9380
  142SAPE   HN215482   0.586   6.459  10.978  1.3136 -0.8239  1.2843
  142SAPE   HN315483   0.714   6.555  11.028  0.1611  0.2627 -0.1184
  142SAPE   C1215484   0.576   6.665  10.910  0.0277 -0.2919 -0.0058
  142SAPE  H12A15485   0.622   6.635  10.814  2.7486  3.1469  0.1331
  142SAPE  H12B15486   0.610   6.758  10.961  0.0502 -1.1301  1.5424
  142SAPE   C1115487   0.420   6.670  10.888  0.6880 -0.3246 -0.2808
  142SAPE  H11A15488   0.376   6.571  10.861  0.7980 -0.2493 -0.7361
  142SAPE  H11B15489   0.407   6.734  10.799 -0.1225  1.0712  0.8169
  142SAPE     P15490   0.231   6.711  11.059 -0.0813 -0.0932 -0.1598
  142SAPE   O1315491   0.212   6.580  11.123  0.0507 -0.5372  0.7997
  142SAPE   O1415492   0.202   6.828  11.142  0.9170 -0.1407 -0.7370
  142SAPE   O1215493   0.369   6.727  11.009 -0.0077  0.1999 -0.1142
  142SAPE   O1115494   0.153   6.725  10.924 -0.6959  0.1631  0.9028
  142SAPE    C115495   0.035   6.807  10.923  0.0933 -0.2148 -0.4159
  142SAPE    HA15496  -0.047   6.772  10.990  0.2072 -0.9444 -0.6511
  142SAPE    HB15497   0.047   6.912  10.958  0.8683 -0.3298 -0.3355
  142SAPE    C215498  -0.034   6.813  10.783  0.6318 -0.5283  0.4506
  142SAPE    HS15499  -0.103   6.899  10.776  1.4894 -0.0115 -2.2707
  142SAPE   O2115500  -0.088   6.680  10.748 -0.1116 -0.0464  0.0945
  142SAPE   C2115501  -0.220   6.672  10.767  0.5681  0.3335  0.3571
  142SAPE   O2215502  -0.298   6.759  10.803 -0.2325 -0.1370 -0.7549
  142SAPE   C2215503  -0.269   6.523  10.758  0.2091  0.5788 -0.1451
  142SAPE   H2R15504  -0.234   6.462  10.844 -0.4988 -1.0833 -1.0107
  142SAPE   H2S15505  -0.377   6.545  10.768  0.5301  1.1270  2.4775
  142SAPE    C315506   0.075   6.851  10.676  0.2856 -0.1107 -0.1638
  142SAPE    HX15507   0.157   6.777  10.686  1.8526  1.6837  0.6154
  142SAPE    HY15508   0.113   6.949  10.711 -0.1752 -0.1205  0.3611
  142SAPE   O3115509   0.017   6.854  10.540  0.2114  0.0850 -0.1853
  142SAPE   C3115510   0.096   6.913  10.449  0.8596  0.0755  0.3580
  142SAPE   O3215511   0.202   6.963  10.466 -0.2778  0.2807  0.0164
  142SAPE   C3215512   0.047   6.882  10.304 -0.5770 -0.3719  0.0879
  142SAPE   H2X15513  -0.056   6.920  10.292 -0.5672  0.0918  1.3544
  142SAPE   H2Y15514   0.061   6.774  10.281  0.4724 -0.1649 -0.3110
  142SAPE   C2315515  -0.261   6.447  10.619  0.0328 -0.0856  1.2137
  142SAPE   H3R15516  -0.264   6.523  10.538 -0.6497 -0.1775  1.1480
  142SAPE   H3S15517  -0.347   6.381  10.592 -0.7538  0.5751  2.0498
  142SAPE   C2415518  -0.127   6.377  10.601  0.0730  0.0500 -0.0526
  142SAPE   H4R15519  -0.128   6.299  10.680  2.3271 -0.0421 -0.0884
  142SAPE   H4S15520  -0.054   6.456  10.626  0.8267 -0.0085 -1.9829
  142SAPE   C2515521  -0.110   6.305  10.465  1.3688 -0.2775  0.2811
  142SAPE   H5R15522  -0.194   6.236  10.448 -0.3689  1.9532 -0.3616
  142SAPE   C2615523  -0.021   6.329  10.366 -0.2333 -0.1910 -0.7557
  142SAPE   H6R15524  -0.005   6.271  10.274 -1.0967  1.2802 -1.8479
  142SAPE   C2715525   0.086   6.437  10.378 -0.2032  0.0218  0.3964
  142SAPE   H7R15526   0.149   6.416  10.466 -1.8648 -0.1850  1.5604
  142SAPE   H7S15527   0.039   6.535  10.401  0.3150  0.4201 -0.2035
  142SAPE   C2815528   0.162   6.462  10.248 -0.1113  0.2887  0.2233
  142SAPE   H8R15529   0.108   6.507  10.164  1.2911  0.9448 -0.3347
  142SAPE   C2915530   0.301   6.447  10.231  0.1540  0.0364 -0.2915
  142SAPE   H9R15531   0.342   6.458  10.129 -0.4784 -2.3332 -0.8333
  142SAPE  C21015532   0.407   6.390  10.328  0.6306 -0.2596 -0.0906
  142SAPE  H10R15533   0.402   6.462  10.413  2.6028  0.9522 -0.9944
  142SAPE  H10S15534   0.509   6.407  10.289  0.6177 -1.8196 -0.8267
  142SAPE  C21115535   0.375   6.252  10.365  1.3533 -0.3399  0.1143
  142SAPE  H11R15536   0.330   6.244  10.465  2.3428  1.1001  0.6938
  142SAPE  C21215537   0.406   6.145  10.289  0.2290  0.0681 -0.4549
  142SAPE  H12R15538   0.376   6.046  10.325  0.2555 -0.2521 -1.2986
  142SAPE  C21315539   0.478   6.131  10.157  0.1287  0.0788 -0.4097
  142SAPE  H13R15540   0.469   6.226  10.100  1.1989 -0.2806 -1.1815
  142SAPE  H13S15541   0.425   6.055  10.095 -1.4611  0.5389  0.3553
  142SAPE  C21415542   0.623   6.099  10.160  0.0555  0.8400 -0.3327
  142SAPE  H14R15543   0.650   6.014  10.223  2.3669  0.8704 -1.2552
  142SAPE  C21515544   0.714   6.159  10.081 -0.1823 -0.3961  0.3547
  142SAPE  H15R15545   0.820   6.130  10.083 -0.5960 -2.1020 -0.8900
  142SAPE  C21615546   0.690   6.264   9.981 -0.9830 -1.0253  0.2415
  142SAPE  H16R15547   0.776   6.333   9.963 -1.3660 -0.3416  1.0189
  142SAPE  H16S15548   0.610   6.334  10.012 -0.5667  0.1529 -1.2506
  142SAPE  C21715549   0.661   6.217   9.838 -0.0416  0.1362 -0.7477
  142SAPE  H17R15550   0.622   6.310   9.792 -0.3438  1.1652  1.4864
  142SAPE  H17S15551   0.584   6.138   9.839  1.3646 -1.2569  0.2713
  142SAPE  C21815552   0.775   6.168   9.753  0.2422  0.4001  0.2555
  142SAPE  H18R15553   0.822   6.076   9.794 -0.2814 -0.6837 -1.5380
  142SAPE  H18S15554   0.853   6.247   9.749 -0.0921  0.6568 -1.4378
  142SAPE  C21915555   0.728   6.122   9.612 -0.4617  0.0379  0.6110
  142SAPE  H19R15556   0.631   6.067   9.611  0.4439 -1.5784  0.4972
  142SAPE  H19S15557   0.803   6.054   9.566 -1.7230 -1.4069  0.6484
  142SAPE  C22015558   0.725   6.241   9.508  0.4332 -0.1436  0.1151
  142SAPE  H20R15559   0.651   6.315   9.546  0.1086  0.1126 -0.9988
  142SAPE  H20S15560   0.700   6.195   9.410  0.0147 -0.9392  0.5901
  142SAPE  H20T15561   0.822   6.294   9.510  0.4921 -0.2711  0.6939
  142SAPE   C3315562   0.130   6.972  10.212  0.7960 -0.3330  0.5211
  142SAPE   H3X15563   0.239   6.958  10.229  0.1971 -4.4006  1.3599
  142SAPE   H3Y15564   0.097   7.078  10.216  2.6780  0.2316  1.8941
  142SAPE   C3415565   0.120   6.943  10.067 -0.6169 -0.5370 -0.2445
  142SAPE   H4X15566   0.204   6.996  10.017 -0.4413 -0.7359 -0.1654
  142SAPE   H4Y15567   0.021   6.983  10.038 -0.8728 -1.4761 -0.6966
  142SAPE   C3515568   0.110   6.795  10.020 -0.0866 -0.4561  0.4427
  142SAPE   H5X15569   0.016   6.745  10.052  0.6427 -1.5990  0.8317
  142SAPE   H5Y15570   0.193   6.743  10.072  1.1750  1.5074  0.4502
  142SAPE   C3615571   0.117   6.786   9.868 -0.8085 -0.0409  0.1067
  142SAPE   H6X15572   0.223   6.803   9.838 -0.5786  0.0658  0.9621
  142SAPE   H6Y15573   0.048   6.858   9.821 -1.8346 -1.3871 -0.4700
  142SAPE   C3715574   0.056   6.661   9.799  0.3130  0.1788 -0.2424
  142SAPE   H7X15575  -0.041   6.630   9.844 -0.1862 -0.9092 -2.0201
  142SAPE   H7Y15576   0.136   6.584   9.800  0.4234  0.2857 -1.2155
  142SAPE   C3815577   0.010   6.675   9.646 -0.8747  0.9573 -0.3532
  142SAPE   H8X15578   0.099   6.710   9.589  1.1521 -0.8320  1.6151
  142SAPE   H8Y15579  -0.067   6.755   9.642 -0.6241  1.2372  0.2841
  142SAPE   C3915580  -0.028   6.544   9.575  0.1362 -0.8100  0.3318
  142SAPE   H9X15581  -0.123   6.495   9.605 -1.0363 -0.0222 -2.0150
  142SAPE   H9Y15582   0.044   6.469   9.615 -1.3602 -1.2334  2.2905
  142SAPE  C31015583  -0.017   6.554   9.420  0.7640  0.2773 -0.1611
  142SAPE  H10X15584   0.088   6.566   9.387 -0.3244  2.9139 -2.8647
  142SAPE  H10Y15585  -0.070   6.645   9.386 -0.8963 -0.6426 -0.1333
  142SAPE  C31115586  -0.068   6.430   9.357 -0.1550  0.0792  0.4480
  142SAPE  H11X15587  -0.177   6.433   9.381 -0.3268  0.0121 -0.3090
  142SAPE  H11Y15588  -0.030   6.333   9.397 -1.0361 -0.9295 -1.1101
  142SAPE  C31215589  -0.052   6.412   9.209  0.8628 -0.2472 -0.1056
  142SAPE  H12X15590   0.015   6.495   9.178 -1.1443  1.7401  0.7425
  142SAPE  H12Y15591  -0.147   6.435   9.157 -0.2936 -2.0484  1.1441
  142SAPE  C31315592   0.014   6.282   9.160 -0.5689 -0.1151  0.6830
  142SAPE  H13X15593  -0.046   6.196   9.196 -0.4426 -0.7485 -0.5917
  142SAPE  H13Y15594   0.112   6.264   9.209  1.3585  2.2684 -2.1199
  142SAPE  C31415595   0.038   6.276   9.004 -0.3597 -0.3131  0.5081
  142SAPE  H14X15596   0.089   6.368   8.967 -1.1055 -0.0969  0.0062
  142SAPE  H14Y15597  -0.061   6.283   8.954  0.3183 -1.1483 -1.0061
  142SAPE  C31515598   0.119   6.155   8.949  0.3356 -0.3616  0.1951
  142SAPE  H15X15599   0.085   6.060   8.997 -0.0683 -0.7966 -0.9346
  142SAPE  H15Y15600   0.228   6.172   8.964  0.6550 -0.7433 -1.5860
  142SAPE  C31615601   0.099   6.120   8.800  0.1212  0.3073 -0.3501
  142SAPE  H16X15602   0.127   6.205   8.733 -1.1094  0.7137 -0.3593
  142SAPE  H16Y15603  -0.010   6.106   8.783 -0.1496  0.4862  1.1786
  142SAPE  C31715604   0.182   5.998   8.752  0.6634  0.0432 -0.2144
  142SAPE  H17X15605   0.174   5.915   8.825  1.6766 -0.4249 -0.6256
  142SAPE  H17Y15606   0.284   6.040   8.736  0.6222 -0.4548 -1.9523
  142SAPE  C31815607   0.138   5.945   8.617  0.2273  0.0278 -0.3483
  142SAPE  H18X15608   0.211   5.869   8.583 -1.2593 -0.6279 -2.1083
  142SAPE  H18Y15609   0.125   6.027   8.543  0.2256 -0.9817 -1.4576
  142SAPE  H18Z15610   0.039   5.895   8.625  0.3296 -0.2467 -0.8190
  143SAPE     N15611   1.314   0.103  10.775 -0.3109 -0.5933 -0.9106
  143SAPE   HN115612   1.267   0.037  10.709 -1.9177  0.1761 -0.5661
  143SAPE   HN215613   1.329   0.059  10.869  1.3656 -0.8291 -1.2798
  143SAPE   HN315614   1.254   0.188  10.778 -0.4290 -0.7273  2.3523
  143SAPE   C1215615   1.449   0.131  10.710  0.4124 -0.3906 -0.2088
  143SAPE  H12A15616   1.510   0.200  10.773  2.1249 -1.4605 -0.6503
  143SAPE  H12B15617   1.424   0.194  10.623  1.3951 -0.3569 -0.4759
  143SAPE   C1115618   1.520   0.002  10.672 -0.4560  0.8666  0.5824
  143SAPE  H11A15619   1.618   0.015  10.622 -1.0280  0.8387 -0.5538
  143SAPE  H11B15620   1.459  -0.057  10.600  3.2854 -0.5778 -1.5742
  143SAPE     P15621   1.669  -0.055  10.880 -0.1004  0.2697  0.0504
  143SAPE   O1315622   1.717   0.084  10.871  0.0657  0.2529 -0.6909
  143SAPE   O1415623   1.657  -0.131  11.010  0.9917  0.5656 -0.2235
  143SAPE   O1215624   1.540  -0.076  10.793  0.1075  0.6215 -0.0907
  143SAPE   O1115625   1.778  -0.131  10.786  0.2233 -0.6493  0.3514
  143SAPE    C115626   1.744  -0.260  10.739 -0.4734  0.2674 -0.7035
  143SAPE    HA15627   1.696  -0.320  10.820  1.4890 -0.8718 -0.3290
  143SAPE    HB15628   1.671  -0.256  10.656 -1.6860 -2.7527  0.1396
  143SAPE    C215629   1.877  -0.326  10.690 -0.1884 -0.6205  0.7736
  143SAPE    HS15630   1.945  -0.321  10.778 -0.1232 -2.1694  0.8254
  143SAPE   O2115631   1.916  -0.256  10.568  0.3165 -0.4761  0.0557
  143SAPE   C2115632   2.050  -0.268  10.550  0.1996 -0.5934 -0.1756
  143SAPE   O2215633   2.135  -0.294  10.633  0.3517  0.0381  0.2792
  143SAPE   C2215634   2.085  -0.242  10.402  0.3804 -0.1888 -0.1284
  143SAPE   H2R15635   2.179  -0.295  10.377  1.7465  2.6216 -1.1663
  143SAPE   H2S15636   2.007  -0.287  10.336 -1.4134  0.7171  1.3348
  143SAPE    C315637   1.839  -0.473  10.644  0.1057 -0.3577  0.7267
  143SAPE    HX15638   1.762  -0.464  10.565  1.1686 -0.3460 -0.3196
  143SAPE    HY15639   1.796  -0.517  10.737 -0.0674  0.6141  1.1099
  143SAPE   O3115640   1.951  -0.545  10.594 -0.1747 -0.2581  0.4851
  143SAPE   C3115641   2.039  -0.601  10.682 -0.1624 -0.0806  0.0614
  143SAPE   O3215642   2.018  -0.603  10.802 -0.2484 -0.3343 -0.6395
  143SAPE   C3215643   2.152  -0.670  10.603 -0.1547  0.7310  0.0397
  143SAPE   H2X15644   2.126  -0.777  10.587  0.3349  0.7861 -1.1222
  143SAPE   H2Y15645   2.242  -0.663  10.668  0.7080 -1.0250 -0.9076
  143SAPE   C2315646   2.105  -0.091  10.355  0.3749 -0.5431 -0.3858
  143SAPE   H3R15647   2.200  -0.053  10.399 -0.1519 -0.0719  0.3428
  143SAPE   H3S15648   2.024  -0.026  10.393  1.4320  0.2811  0.4968
  143SAPE   C2415649   2.123  -0.098  10.204  0.1547 -0.2153  0.0445
  143SAPE   H4R15650   2.128   0.006  10.166  0.1794 -0.5687 -0.9360
  143SAPE   H4S15651   2.039  -0.148  10.152  0.2719 -0.6141  0.2378
  143SAPE   C2515652   2.259  -0.156  10.171 -0.1971  0.6345 -0.3200
  143SAPE   H5R15653   2.342  -0.125  10.236 -1.8727 -1.2596  2.8158
  143SAPE   C2615654   2.285  -0.250  10.083 -0.1557 -0.1033  0.6617
  143SAPE   H6R15655   2.386  -0.284  10.059 -0.4499 -0.7376  0.3151
  143SAPE   C2715656   2.180  -0.299   9.988 -0.5218  0.9985 -0.0142
  143SAPE   H7R15657   2.088  -0.324  10.045  0.5041 -1.9215  0.4775
  143SAPE   H7S15658   2.233  -0.395   9.971 -2.4565 -0.3271  1.1545
  143SAPE   C2815659   2.151  -0.210   9.869 -0.3451  0.0373 -0.1858
  143SAPE   H8R15660   2.112  -0.110   9.893  0.6759  0.7424 -1.3504
  143SAPE   C2915661   2.158  -0.252   9.744 -0.1364  0.0059  0.3086
  143SAPE   H9R15662   2.127  -0.183   9.663  1.5130 -1.1160 -1.3191
  143SAPE  C21015663   2.203  -0.389   9.704  0.1029  0.0205  0.5770
  143SAPE  H10R15664   2.114  -0.452   9.722 -0.8156  0.9938 -0.5678
  143SAPE  H10S15665   2.287  -0.410   9.775  1.6735  0.3778 -1.1370
  143SAPE  C21115666   2.255  -0.419   9.570 -0.9286  0.4243 -0.4339
  143SAPE  H11R15667   2.328  -0.501   9.579 -1.3226  0.0549 -0.5699
  143SAPE  C21215668   2.237  -0.373   9.447 -0.2464 -0.3637  0.4094
  143SAPE  H12R15669   2.305  -0.409   9.369  0.9995  0.0596  1.2860
  143SAPE  C21315670   2.130  -0.276   9.399  0.8487 -0.7103  0.0606
  143SAPE  H13R15671   2.187  -0.190   9.356  0.8768 -0.7194  0.0809
  143SAPE  H13S15672   2.077  -0.233   9.487 -0.6740 -0.8377 -0.7850
  143SAPE  C21415673   2.022  -0.333   9.305  0.5985 -1.2348  1.1324
  143SAPE  H14R15674   2.016  -0.442   9.292 -0.2514 -1.0230 -0.4559
  143SAPE  C21515675   1.950  -0.260   9.219  0.6039 -0.0794  0.4942
  143SAPE  H15R15676   1.882  -0.314   9.151  1.0741 -2.2351  1.6986
  143SAPE  C21615677   1.945  -0.110   9.207  0.5870 -0.3284  0.0172
  143SAPE  H16R15678   1.978  -0.081   9.105  0.3058  2.6052  0.7095
  143SAPE  H16S15679   2.022  -0.061   9.272  1.0526  0.8679 -1.4083
  143SAPE  C21715680   1.811  -0.041   9.261 -0.2663  1.1042  0.1086
  143SAPE  H17R15681   1.726  -0.088   9.206  0.5336  0.6486 -0.7404
  143SAPE  H17S15682   1.815   0.065   9.228  2.2659  0.5445 -1.5446
  143SAPE  C21815683   1.787  -0.056   9.408  0.6447  0.0924 -0.3079
  143SAPE  H18R15684   1.881  -0.025   9.460  0.5068  0.9490 -0.5554
  143SAPE  H18S15685   1.762  -0.161   9.431  0.5313 -0.4629 -2.8585
  143SAPE  C21915686   1.678   0.031   9.457  0.2324  0.7178 -0.0138
  143SAPE  H19R15687   1.695   0.132   9.413 -0.5464  1.3507  1.1257
  143SAPE  H19S15688   1.674   0.048   9.567 -0.3789  0.2435  0.0410
  143SAPE  C22015689   1.536  -0.025   9.428  0.1507  0.8031  0.1411
  143SAPE  H20R15690   1.504  -0.022   9.321 -0.6379  0.2606  0.3589
  143SAPE  H20S15691   1.465   0.034   9.489  0.1148  2.2728 -1.2761
  143SAPE  H20T15692   1.525  -0.127   9.470  0.4792  0.6330 -0.1785
  143SAPE   C3315693   2.185  -0.598  10.470 -0.1284 -0.4055 -0.0818
  143SAPE   H3X15694   2.224  -0.495  10.486  0.9973 -0.8960  0.3874
  143SAPE   H3Y15695   2.095  -0.582  10.406 -2.0289 -0.7814  2.4478
  143SAPE   C3415696   2.298  -0.683  10.405 -0.3592  0.1161  0.7440
  143SAPE   H4X15697   2.357  -0.739  10.481  4.9745  2.1747 -1.6089
  143SAPE   H4Y15698   2.364  -0.609  10.356  0.1878 -0.9947 -0.2279
  143SAPE   C3515699   2.245  -0.775  10.299  0.2948  0.4422  0.3100
  143SAPE   H5X15700   2.175  -0.717  10.234  0.9348 -0.5493 -1.2948
  143SAPE   H5Y15701   2.183  -0.847  10.357  0.7709  2.4145  3.3915
  143SAPE   C3615702   2.354  -0.826  10.204 -0.0876  0.1859 -0.0979
  143SAPE   H6X15703   2.393  -0.917  10.254  0.7759  1.4780  1.6323
  143SAPE   H6Y15704   2.437  -0.755  10.183 -0.3783 -0.0266 -2.1167
  143SAPE   C3715705   2.294  -0.851  10.070 -0.5980 -0.2847  0.3963
  143SAPE   H7X15706   2.195  -0.901  10.084 -1.3127  0.8272 -0.5811
  143SAPE   H7Y15707   2.354  -0.917  10.004 -3.0037 -1.6847 -0.4723
  143SAPE   C3815708   2.268  -0.732   9.977  0.1260  0.1998 -0.0296
  143SAPE   H8X15709   2.363  -0.677   9.959  0.2541 -0.9631 -3.1049
  143SAPE   H8Y15710   2.198  -0.657  10.020  0.7562  1.6383 -1.4656
  143SAPE   C3915711   2.225  -0.769   9.830 -0.0641 -0.3699 -0.1690
  143SAPE   H9X15712   2.248  -0.684   9.761  2.0319 -2.4127 -2.0616
  143SAPE   H9Y15713   2.117  -0.789   9.817 -0.0268 -1.2236  0.8172
  143SAPE  C31015714   2.304  -0.885   9.765  0.8216 -0.7731 -0.0340
  143SAPE  H10X15715   2.270  -0.976   9.820  0.9285 -0.7454  0.0810
  143SAPE  H10Y15716   2.411  -0.857   9.782  0.6914 -0.3610  0.1101
  143SAPE  C31115717   2.270  -0.907   9.618 -0.7860  0.0311 -0.0219
  143SAPE  H11X15718   2.164  -0.932   9.601 -0.5770  0.3349 -1.8823
  143SAPE  H11Y15719   2.330  -0.999   9.601  0.0293  0.3861  0.8557
  143SAPE  C31215720   2.301  -0.800   9.515  0.6482  0.2640  0.0353
  143SAPE  H12X15721   2.389  -0.743   9.549  0.0420  0.9833  0.4173
  143SAPE  H12Y15722   2.211  -0.735   9.510 -0.2027 -0.9662 -0.8886
  143SAPE  C31315723   2.326  -0.863   9.374  0.0691 -0.1349  0.1871
  143SAPE  H13X15724   2.240  -0.920   9.332 -2.2855  3.4193 -0.0790
  143SAPE  H13Y15725   2.423  -0.916   9.384  1.2741  1.5503 -2.0435
  143SAPE  C31415726   2.371  -0.757   9.266  0.1401  0.3666  0.5698
  143SAPE  H14X15727   2.429  -0.809   9.186 -3.2743  0.7131 -2.2829
  143SAPE  H14Y15728   2.436  -0.688   9.324  1.5718  1.0860 -1.8244
  143SAPE  C31515729   2.251  -0.687   9.203  0.0354  1.1083 -0.2126
  143SAPE  H15X15730   2.195  -0.634   9.283 -0.6897 -1.5133  1.0980
  143SAPE  H15Y15731   2.188  -0.766   9.156  0.4139 -0.0896  1.2676
  143SAPE  C31615732   2.300  -0.599   9.098 -0.3598 -0.5555  0.4740
  143SAPE  H16X15733   2.372  -0.654   9.035  1.5168 -0.0650  2.1134
  143SAPE  H16Y15734   2.364  -0.514   9.132 -0.4586 -0.3897  0.2455
  143SAPE  C31715735   2.182  -0.559   9.012 -0.2211 -0.4112 -0.5083
  143SAPE  H17X15736   2.118  -0.491   9.071 -1.6346 -2.1513  0.0119
  143SAPE  H17Y15737   2.123  -0.650   8.991 -1.1591  0.3012 -0.9743
  143SAPE  C31815738   2.227  -0.485   8.886 -0.1157 -0.0107 -0.0507
  143SAPE  H18X15739   2.141  -0.455   8.823  0.6948 -1.7538 -2.0484
  143SAPE  H18Y15740   2.300  -0.547   8.830  2.3781  0.5188  2.4736
  143SAPE  H18Z15741   2.286  -0.398   8.923 -0.1749 -0.1407  0.3534
  144SAPE     N15742   5.314   4.804  10.706 -0.2342  0.2845 -0.2452
  144SAPE   HN115743   5.312   4.864  10.621 -0.3166  1.8270  0.8134
  144SAPE   HN215744   5.301   4.869  10.786  1.0528  1.7040 -1.1579
  144SAPE   HN315745   5.410   4.764  10.702 -0.6840 -0.9920  1.4737
  144SAPE   C1215746   5.211   4.703  10.705  0.5584 -0.3010 -0.4464
  144SAPE  H12A15747   5.244   4.611  10.652  0.5228 -0.6755  0.1695
  144SAPE  H12B15748   5.128   4.746  10.645 -0.3106  1.0639  1.6820
  144SAPE   C1115749   5.163   4.668  10.850 -0.5660 -0.2352 -0.3700
  144SAPE  H11A15750   5.256   4.658  10.909 -1.1526  0.5627  0.6987
  144SAPE  H11B15751   5.103   4.575  10.859 -1.4043  0.3301 -0.0327
  144SAPE     P15752   4.935   4.804  10.856 -0.5469  0.0537  0.3631
  144SAPE   O1315753   4.853   4.811  10.977 -0.0809 -0.3969  0.1196
  144SAPE   O1415754   4.941   4.925  10.782 -0.1973 -0.6717  0.0376
  144SAPE   O1215755   5.081   4.772  10.903 -0.1302  0.3189 -0.0045
  144SAPE   O1115756   4.900   4.689  10.760  1.0481  0.1918  0.8973
  144SAPE    C115757   4.761   4.653  10.746  0.7249  0.1496  0.1888
  144SAPE    HA15758   4.712   4.609  10.836  2.8906  0.4105  1.5239
  144SAPE    HB15759   4.698   4.744  10.729 -0.1250 -0.6701 -1.1032
  144SAPE    C215760   4.740   4.553  10.627 -0.8118 -0.5799 -0.1037
  144SAPE    HS15761   4.768   4.450  10.657 -0.4071 -0.4714 -0.1057
  144SAPE   O2115762   4.822   4.585  10.510  0.2396  0.4953  0.2425
  144SAPE   C2115763   4.808   4.705  10.457 -0.4740 -0.0591  0.1560
  144SAPE   O2215764   4.719   4.783  10.477  0.8516 -0.3356 -0.1330
  144SAPE   C2215765   4.924   4.728  10.366 -0.6768  0.0821  1.2080
  144SAPE   H2R15766   4.916   4.831  10.327  2.8133 -0.1491 -0.2977
  144SAPE   H2S15767   5.016   4.728  10.429 -0.5094 -0.8927  0.9819
  144SAPE    C315768   4.595   4.527  10.590 -0.6233 -0.7234  0.5249
  144SAPE    HX15769   4.555   4.627  10.563  1.3821 -0.5098 -1.8689
  144SAPE    HY15770   4.549   4.477  10.678 -0.0257 -1.5644  0.3751
  144SAPE   O3115771   4.583   4.450  10.474 -0.0057  0.1384 -0.2882
  144SAPE   C3115772   4.617   4.317  10.466  0.1311  0.3917 -0.1904
  144SAPE   O3215773   4.674   4.258  10.555 -0.4008 -0.6452  0.1232
  144SAPE   C3215774   4.585   4.256  10.328 -0.0802  0.2732 -0.4443
  144SAPE   H2X15775   4.639   4.314  10.249  0.1547  0.8968  0.1776
  144SAPE   H2Y15776   4.477   4.269  10.304 -0.0222  0.6896 -0.4864
  144SAPE   C2315777   4.949   4.618  10.256 -0.1801  0.3310  0.0442
  144SAPE   H3R15778   4.977   4.520  10.300  0.0058  0.8181  1.0194
  144SAPE   H3S15779   5.034   4.653  10.194 -0.5164 -0.9942 -1.1952
  144SAPE   C2415780   4.827   4.601  10.164  0.6565 -0.4846 -0.1431
  144SAPE   H4R15781   4.802   4.701  10.123 -0.9012 -0.6733  0.3217
  144SAPE   H4S15782   4.743   4.576  10.233 -0.1949 -0.7124 -1.2546
  144SAPE   C2515783   4.848   4.499  10.057  0.0570 -0.7102 -0.7464
  144SAPE   H5R15784   4.835   4.394  10.086  0.8348 -0.8525 -0.8839
  144SAPE   C2615785   4.864   4.525   9.928  0.5671  0.0077  0.6479
  144SAPE   H6R15786   4.877   4.437   9.864 -0.4831 -0.6641  1.3490
  144SAPE   C2715787   4.869   4.659   9.856  0.6704  0.6356  0.1803
  144SAPE   H7R15788   4.912   4.632   9.757 -1.4827 -1.1369 -0.2995
  144SAPE   H7S15789   4.930   4.738   9.905 -0.0874  1.3830 -0.0826
  144SAPE   C2815790   4.735   4.727   9.834 -0.7952 -0.5860  0.3756
  144SAPE   H8R15791   4.652   4.678   9.886 -1.3674  0.9636  0.9495
  144SAPE   C2915792   4.715   4.831   9.754 -0.1350 -0.3561  0.0783
  144SAPE   H9R15793   4.617   4.877   9.736  1.7235  3.6207 -0.5004
  144SAPE  C21015794   4.825   4.890   9.675 -0.1695 -0.6575 -0.7581
  144SAPE  H10R15795   4.894   4.810   9.641  0.9360 -0.0424 -0.0252
  144SAPE  H10S15796   4.894   4.944   9.745 -0.7648 -1.4171  0.4329
  144SAPE  C21115797   4.782   4.992   9.572  0.1432 -0.2774  0.1737
  144SAPE  H11R15798   4.738   5.087   9.608  0.4702 -0.1158  0.1500
  144SAPE  C21215799   4.803   4.978   9.444  0.3993 -0.2570 -0.6214
  144SAPE  H12R15800   4.770   5.052   9.369 -2.6162  0.0411  0.9024
  144SAPE  C21315801   4.857   4.861   9.364  0.4039 -0.3019  0.1290
  144SAPE  H13R15802   4.762   4.816   9.328  0.4208  0.0795 -0.3852
  144SAPE  H13S15803   4.906   4.786   9.431  1.5661 -1.5376 -2.0500
  144SAPE  C21415804   4.946   4.878   9.245 -0.5694  0.2955  0.2955
  144SAPE  H14R15805   5.051   4.846   9.252 -0.2206  0.4713 -3.3099
  144SAPE  C21515806   4.908   4.936   9.131 -0.0101 -0.4451 -0.0187
  144SAPE  H15R15807   4.980   4.947   9.048  0.1950  0.1319  0.2330
  144SAPE  C21615808   4.774   4.994   9.105 -0.4121  0.0379  0.0187
  144SAPE  H16R15809   4.763   5.094   9.153 -0.7185 -0.4799  1.0679
  144SAPE  H16S15810   4.696   4.930   9.153  1.4713 -2.6166 -0.3838
  144SAPE  C21715811   4.743   5.002   8.955  0.0298 -0.0833  0.7996
  144SAPE  H17R15812   4.746   4.894   8.929 -0.6029  0.3452 -1.1569
  144SAPE  H17S15813   4.814   5.072   8.907  1.3205 -0.4588  2.1285
  144SAPE  C21815814   4.598   5.056   8.931 -0.4463  0.2099 -0.2882
  144SAPE  H18R15815   4.593   5.158   8.976 -0.1860 -1.6949  4.4096
  144SAPE  H18S15816   4.532   4.980   8.977 -0.0809 -0.5999 -1.1012
  144SAPE  C21915817   4.564   5.094   8.785 -0.6844 -0.4772  0.1565
  144SAPE  H19R15818   4.601   5.006   8.729 -0.5205  0.9140 -1.9914
  144SAPE  H19S15819   4.621   5.186   8.760 -1.3340 -0.2246 -0.4053
  144SAPE  C22015820   4.417   5.118   8.760 -0.5773  0.3153 -0.4911
  144SAPE  H20R15821   4.393   5.209   8.819 -0.0515 -0.8808  1.5985
  144SAPE  H20S15822   4.345   5.046   8.805 -1.5023  1.9836  0.7685
  144SAPE  H20T15823   4.402   5.140   8.652 -4.3055  1.6518  0.1864
  144SAPE   C3315824   4.626   4.105  10.327 -0.0610 -0.2374 -0.3829
  144SAPE   H3X15825   4.545   4.043  10.372  0.3880 -0.8604 -0.4395
  144SAPE   H3Y15826   4.718   4.096  10.388  0.4077  1.1729 -0.8599
  144SAPE   C3415827   4.660   4.044  10.185  0.3658  0.3303 -0.6386
  144SAPE   H4X15828   4.696   3.940  10.202  0.6447  0.6698  0.9210
  144SAPE   H4Y15829   4.749   4.096  10.143  1.4524 -1.2037 -0.2673
  144SAPE   C3515830   4.542   4.044  10.080 -1.0711 -0.5443 -0.1406
  144SAPE   H5X15831   4.493   4.143  10.078 -0.1989 -0.1128 -1.0585
  144SAPE   H5Y15832   4.465   3.969  10.108 -1.0278 -0.2964  0.6276
  144SAPE   C3615833   4.589   4.027   9.935 -0.7689 -0.1663  0.2113
  144SAPE   H6X15834   4.515   4.003   9.856  0.3190  1.3397 -1.3068
  144SAPE   H6Y15835   4.667   3.947   9.934  1.2520  1.6983  2.5136
  144SAPE   C3715836   4.652   4.152   9.883  0.5917 -0.7987 -0.4077
  144SAPE   H7X15837   4.746   4.165   9.942  0.0413  0.7884  0.1577
  144SAPE   H7Y15838   4.595   4.246   9.900 -0.6109 -1.1496 -2.4170
  144SAPE   C3815839   4.697   4.155   9.733 -0.3191  0.1006 -0.0518
  144SAPE   H8X15840   4.607   4.128   9.674 -1.1526  1.1488  0.7292
  144SAPE   H8Y15841   4.764   4.068   9.714  0.8390  0.5266  1.9475
  144SAPE   C3915842   4.778   4.272   9.695 -0.5023 -0.5388  0.2947
  144SAPE   H9X15843   4.884   4.259   9.726 -0.3509 -0.7170 -0.2797
  144SAPE   H9Y15844   4.733   4.352   9.756  2.0387  0.4528  0.9280
  144SAPE  C31015845   4.776   4.321   9.547 -0.5642  0.2618  0.7876
  144SAPE  H10X15846   4.678   4.367   9.521 -0.4541  0.3155  0.4677
  144SAPE  H10Y15847   4.802   4.229   9.491 -1.2678  0.9637 -0.7323
  144SAPE  C31115848   4.886   4.424   9.513  0.5443 -0.5065 -0.0988
  144SAPE  H11X15849   4.985   4.373   9.510  1.4662  1.3023 -2.6998
  144SAPE  H11Y15850   4.901   4.506   9.588  1.9703  0.9210 -1.9028
  144SAPE  C31215851   4.872   4.503   9.379 -0.1541  0.3025  0.1826
  144SAPE  H12X15852   4.956   4.575   9.370 -1.1671  1.5276  0.3444
  144SAPE  H12Y15853   4.778   4.562   9.369 -0.1905  0.0277 -1.2916
  144SAPE  C31315854   4.888   4.420   9.251 -0.1415 -0.1146 -0.4407
  144SAPE  H13X15855   4.784   4.385   9.233 -0.0265 -0.6083 -0.1720
  144SAPE  H13Y15856   4.955   4.335   9.277  0.5036  1.1582  2.2279
  144SAPE  C31415857   4.945   4.499   9.137  0.5613  0.2673 -0.1120
  144SAPE  H14X15858   5.046   4.543   9.155  0.8056 -0.3289 -0.0089
  144SAPE  H14Y15859   4.876   4.585   9.133 -1.3143 -1.1478  0.9103
  144SAPE  C31515860   4.952   4.427   9.009 -0.7253  0.7573  0.6221
  144SAPE  H15X15861   4.933   4.495   8.923  1.0403  0.9681  0.3830
  144SAPE  H15Y15862   4.878   4.345   8.995 -0.7804  0.8291  0.4958
  144SAPE  C31615863   5.090   4.369   8.978 -0.5979  0.2546  0.0974
  144SAPE  H16X15864   5.109   4.292   9.056  0.1447 -0.6570 -0.9658
  144SAPE  H16Y15865   5.171   4.444   8.986 -0.8290  0.5415 -0.2843
  144SAPE  C31715866   5.113   4.309   8.835  0.5062 -0.5500  0.6937
  144SAPE  H17X15867   5.063   4.375   8.761 -0.9805 -0.8869  1.3862
  144SAPE  H17Y15868   5.053   4.217   8.822  0.7976 -0.3230 -2.4847
  144SAPE  C31815869   5.253   4.269   8.787  0.2920 -0.0289  0.2768
  144SAPE  H18X15870   5.313   4.361   8.765 -2.5550  1.5215 -1.3019
  144SAPE  H18Y15871   5.247   4.216   8.689 -4.3339 -0.7261  0.8391
  144SAPE  H18Z15872   5.314   4.216   8.863 -0.2489 -0.5806  0.3225
  145SAPE     N15873   2.075   6.356  11.108  0.0469  0.5968 -0.2082
  145SAPE   HN115874   1.988   6.411  11.097 -1.3288 -1.6296 -0.8822
  145SAPE   HN215875   2.137   6.386  11.186  1.6439 -0.9952 -0.8362
  145SAPE   HN315876   2.129   6.384  11.024 -0.9118  0.4505 -0.8801
  145SAPE   C1215877   2.049   6.205  11.106 -0.2979 -0.5646  0.5907
  145SAPE  H12A15878   2.137   6.146  11.071 -0.0149  0.5647 -0.6326
  145SAPE  H12B15879   1.963   6.186  11.038  1.6161 -0.4812 -1.9293
  145SAPE   C1115880   2.000   6.152  11.237  0.0730  0.1420 -0.0800
  145SAPE  H11A15881   1.907   6.202  11.274 -0.2824 -1.0503  0.6539
  145SAPE  H11B15882   2.083   6.154  11.311 -0.4173  2.6690  0.4485
  145SAPE     P15883   1.842   5.942  11.190 -0.1626 -0.3104 -0.0813
  145SAPE   O1315884   1.862   5.798  11.225  0.1739 -0.0220  0.2740
  145SAPE   O1415885   1.724   6.010  11.247  0.7160  0.0175  0.2611
  145SAPE   O1215886   1.973   6.013  11.226  0.8324  0.1999  0.4398
  145SAPE   O1115887   1.828   5.957  11.032  0.5083  0.2224 -0.1354
  145SAPE    C115888   1.930   5.910  10.944 -0.4344 -0.0976 -0.0690
  145SAPE    HA15889   1.975   5.992  10.884 -1.1383 -0.8361 -1.6333
  145SAPE    HB15890   2.019   5.866  10.994  0.4637 -2.0323 -3.1961
  145SAPE    C215891   1.881   5.789  10.856  0.0497 -0.0251  0.2509
  145SAPE    HS15892   1.966   5.745  10.800  1.0943  0.7174  1.2326
  145SAPE   O2115893   1.788   5.844  10.763  0.3049  0.6500  0.4699
  145SAPE   C2115894   1.834   5.892  10.649 -0.6467 -0.4748  0.3204
  145SAPE   O2215895   1.950   5.902  10.612 -0.0429 -0.2623 -0.5629
  145SAPE   C2215896   1.714   5.943  10.573 -0.3673  0.8897 -0.5772
  145SAPE   H2R15897   1.615   5.904  10.605 -0.0409  0.5220 -0.0201
  145SAPE   H2S15898   1.725   6.051  10.596 -0.2996  0.8843 -0.5823
  145SAPE    C315899   1.815   5.667  10.931 -0.5648 -0.2009 -0.5191
  145SAPE    HX15900   1.722   5.704  10.978 -0.3251  1.3486 -1.2035
  145SAPE    HY15901   1.883   5.629  11.010  1.2948  1.0603 -1.4502
  145SAPE   O3115902   1.773   5.571  10.832 -0.0880  0.0085  0.2644
  145SAPE   C3115903   1.859   5.481  10.798 -0.1240  0.0821 -0.4584
  145SAPE   O3215904   1.969   5.466  10.853  0.9260  0.0005  0.3518
  145SAPE   C3215905   1.793   5.385  10.698  0.1185 -0.5883 -0.0083
  145SAPE   H2X15906   1.705   5.334  10.743 -0.1205 -0.4088 -0.2698
  145SAPE   H2Y15907   1.873   5.309  10.684  2.1475  1.5640 -0.4509
  145SAPE   C2315908   1.726   5.920  10.419  0.0770  0.5928  0.7171
  145SAPE   H3R15909   1.622   5.932  10.380  0.1948 -1.3228 -0.2439
  145SAPE   H3S15910   1.752   5.814  10.402  0.7335  0.9101 -0.3052
  145SAPE   C2415911   1.825   6.008  10.344  0.3949  0.1963  0.2938
  145SAPE   H4R15912   1.927   6.006  10.387 -0.8421 -0.4231  3.3473
  145SAPE   H4S15913   1.783   6.110  10.356  0.9419  0.6565 -1.5712
  145SAPE   C2515914   1.834   5.982  10.192 -0.0202 -0.4558  0.5673
  145SAPE   H5R15915   1.887   5.888  10.172 -1.6119 -0.9705 -1.3339
  145SAPE   C2615916   1.815   6.064  10.089  0.2469  0.0360  0.0840
  145SAPE   H6R15917   1.826   6.028   9.986 -0.3346  0.8548 -0.2630
  145SAPE   C2715918   1.779   6.211  10.110 -0.2553 -0.0308  0.2759
  145SAPE   H7R15919   1.802   6.264  10.016  1.4779 -0.7122  0.3093
  145SAPE   H7S15920   1.842   6.256  10.189 -2.0145  1.8509  0.6414
  145SAPE   C2815921   1.630   6.220  10.141  0.2671 -0.2392  0.1046
  145SAPE   H8R15922   1.604   6.178  10.239  0.0571  1.8663  0.9839
  145SAPE   C2915923   1.533   6.244  10.050  0.4173 -0.3540 -0.2439
  145SAPE   H9R15924   1.428   6.224  10.078  0.5764 -1.4367 -0.4090
  145SAPE  C21015925   1.556   6.274   9.898  0.3117 -0.6387 -0.2193
  145SAPE  H10R15926   1.560   6.177   9.844  2.7100 -0.3688 -0.5493
  145SAPE  H10S15927   1.644   6.340   9.891  1.0699 -1.6873 -0.6755
  145SAPE  C21115928   1.450   6.354   9.830 -0.2660 -0.2827  0.1101
  145SAPE  H11R15929   1.361   6.376   9.891  0.8040 -0.3690  1.7522
  145SAPE  C21215930   1.453   6.385   9.698 -0.2091  0.2535  1.1264
  145SAPE  H12R15931   1.372   6.440   9.649  0.9052  0.0262 -1.0089
  145SAPE  C21315932   1.559   6.339   9.603 -0.0130 -0.9203 -0.2843
  145SAPE  H13R15933   1.513   6.341   9.502 -1.1957 -0.2216  0.2470
  145SAPE  H13S15934   1.586   6.232   9.616  0.8282 -1.0014 -2.4444
  145SAPE  C21415935   1.683   6.422   9.601  0.3453 -0.9192  0.3538
  145SAPE  H14R15936   1.667   6.528   9.579 -2.5633 -1.0805  1.4960
  145SAPE  C21515937   1.810   6.377   9.624  0.4244  0.0408 -0.2237
  145SAPE  H15R15938   1.885   6.458   9.627 -1.5818  2.0108 -2.0373
  145SAPE  C21615939   1.848   6.236   9.664 -0.4664  0.7256  0.2336
  145SAPE  H16R15940   1.757   6.190   9.709 -0.2698  0.8945  0.7961
  145SAPE  H16S15941   1.917   6.232   9.750  0.4854  0.5910 -0.5348
  145SAPE  C21715942   1.905   6.138   9.561  1.4645  0.6312  0.6637
  145SAPE  H17R15943   1.908   6.042   9.617  1.4549  0.7739  0.9082
  145SAPE  H17S15944   2.012   6.160   9.539  1.5594  0.3737  0.8513
  145SAPE  C21815945   1.833   6.126   9.424 -0.5157  0.0935 -0.1266
  145SAPE  H18R15946   1.825   6.228   9.380 -0.5054 -0.4547 -1.4036
  145SAPE  H18S15947   1.728   6.092   9.438 -0.8306  0.8841 -0.5286
  145SAPE  C21915948   1.913   6.037   9.325  0.1238 -0.3922 -0.0329
  145SAPE  H19R15949   1.939   5.937   9.363  0.3750 -0.0441  0.7143
  145SAPE  H19S15950   2.009   6.081   9.290  0.6051 -1.9695 -0.7260
  145SAPE  C22015951   1.820   6.006   9.205  0.0572  0.0534  0.3132
  145SAPE  H20R15952   1.829   6.101   9.148  0.6764  0.4215  1.0119
  145SAPE  H20S15953   1.714   5.993   9.234 -0.0178  0.7935  0.3897
  145SAPE  H20T15954   1.844   5.925   9.132 -0.5863 -0.7497  0.9832
  145SAPE   C3315955   1.774   5.443  10.558  0.2642 -0.0484 -0.0739
  145SAPE   H3X15956   1.707   5.532  10.553  0.2038 -0.0145  1.0874
  145SAPE   H3Y15957   1.721   5.361  10.505  0.8115 -1.6504  1.7987
  145SAPE   C3415958   1.903   5.479  10.487 -0.1780 -0.4222  0.3644
  145SAPE   H4X15959   1.973   5.393  10.489  1.8736  1.2128  1.5235
  145SAPE   H4Y15960   1.939   5.573  10.535 -1.7705  0.9885 -1.1006
  145SAPE   C3515961   1.875   5.514  10.336 -0.0577  0.4771 -0.0346
  145SAPE   H5X15962   1.792   5.588  10.344  1.4838  2.5609 -2.3541
  145SAPE   H5Y15963   1.858   5.427  10.269 -2.0473  0.0142  1.0335
  145SAPE   C3615964   1.996   5.585  10.277 -0.1505  0.3939  0.2488
  145SAPE   H6X15965   2.078   5.512  10.291  0.1349  0.9556  1.6365
  145SAPE   H6Y15966   2.019   5.672  10.342  1.6092 -0.5420  0.9169
  145SAPE   C3715967   1.994   5.627  10.132  0.0158  0.0917 -0.0305
  145SAPE   H7X15968   2.072   5.704  10.112 -2.0428  1.3196 -3.7672
  145SAPE   H7Y15969   1.893   5.660  10.098 -0.5090 -0.7819  0.6568
  145SAPE   C3815970   2.024   5.503  10.048  0.1314  0.2539 -0.3790
  145SAPE   H8X15971   1.955   5.420  10.076 -1.6921  1.4010 -1.3925
  145SAPE   H8Y15972   2.128   5.466  10.061  0.1303  1.0184  2.0746
  145SAPE   C3915973   2.002   5.541   9.903  0.0892 -0.3145 -0.0216
  145SAPE   H9X15974   2.049   5.640   9.883  3.5801 -2.1569 -1.2887
  145SAPE   H9Y15975   1.891   5.544   9.896 -0.0057  1.8328  1.6292
  145SAPE  C31015976   2.069   5.437   9.808  0.4657 -0.1474 -0.4967
  145SAPE  H10X15977   2.064   5.333   9.847 -2.0131 -0.0125 -0.3168
  145SAPE  H10Y15978   2.177   5.461   9.801  0.6161 -0.8212 -0.5532
  145SAPE  C31115979   1.996   5.431   9.672  0.6345  0.4372  0.2477
  145SAPE  H11X15980   1.991   5.533   9.627 -1.3556  0.5175  0.5740
  145SAPE  H11Y15981   1.891   5.406   9.697  0.3011  1.4604 -0.0710
  145SAPE  C31215982   2.058   5.321   9.583 -0.2943 -0.3296  0.6943
  145SAPE  H12X15983   2.039   5.218   9.620 -3.6436 -1.2131 -3.0549
  145SAPE  H12Y15984   2.166   5.347   9.585 -0.1370 -1.1075  3.1762
  145SAPE  C31315985   2.019   5.325   9.431  0.0697  0.2580  0.5055
  145SAPE  H13X15986   1.910   5.350   9.428 -0.3653 -1.5563  0.6926
  145SAPE  H13Y15987   2.016   5.221   9.392  0.6298 -0.5095  2.4478
  145SAPE  C31415988   2.099   5.436   9.358  0.1887  0.1858  0.1711
  145SAPE  H14X15989   2.207   5.409   9.357  0.6875  1.9086  3.1795
  145SAPE  H14Y15990   2.089   5.537   9.404 -1.5157  0.2082 -0.2295
  145SAPE  C31515991   2.039   5.465   9.217 -0.4256 -0.7277  0.2851
  145SAPE  H15X15992   1.930   5.486   9.223 -0.3086  1.1149 -2.6185
  145SAPE  H15Y15993   2.039   5.377   9.150 -1.6217 -1.3219  1.0555
  145SAPE  C31615994   2.109   5.576   9.144  0.1245  0.5654 -0.5624
  145SAPE  H16X15995   2.210   5.543   9.113  0.0997 -1.6575  1.5872
  145SAPE  H16Y15996   2.131   5.661   9.212  1.3762  0.4909 -0.8775
  145SAPE  C31715997   2.054   5.625   9.009  0.3096 -0.3556 -0.1662
  145SAPE  H17X15998   1.977   5.702   9.029 -0.4593 -1.1564 -0.0085
  145SAPE  H17Y15999   1.998   5.541   8.962 -0.6094  0.3033 -0.2583
  145SAPE  C31816000   2.155   5.674   8.913  0.0831 -0.6400  0.3130
  145SAPE  H18X16001   2.100   5.696   8.819  2.1905  0.5362 -0.6874
  145SAPE  H18Y16002   2.218   5.584   8.894  0.9870  0.1005 -0.2360
  145SAPE  H18Z16003   2.211   5.764   8.945  0.6074 -1.1124  0.7348
  146SAPE     N16004   6.607   4.437  11.254 -0.4906  0.0842 -0.5502
  146SAPE   HN116005   6.564   4.521  11.297 -1.0809 -0.5324  0.0595
  146SAPE   HN216006   6.543   4.356  11.246 -1.0991  0.3624  1.4093
  146SAPE   HN316007   6.682   4.420  11.324 -0.6727  1.4678 -0.0043
  146SAPE   C1216008   6.664   4.481  11.119  0.6393 -0.0544 -0.9431
  146SAPE  H12A16009   6.724   4.398  11.077  0.3524  0.8059 -3.1303
  146SAPE  H12B16010   6.746   4.555  11.132  1.2466 -0.9653  0.5692
  146SAPE   C1116011   6.565   4.535  11.018  0.0129 -1.0087  0.1572
  146SAPE  H11A16012   6.624   4.556  10.927  0.0572 -0.8414  0.2242
  146SAPE  H11B16013   6.513   4.624  11.059  0.0663 -1.1500  0.5319
  146SAPE     P16014   6.349   4.489  10.891 -0.1528  0.1839  0.1316
  146SAPE   O1316015   6.268   4.366  10.865  0.1507  0.1212 -0.4105
  146SAPE   O1416016   6.281   4.597  10.970 -0.2172 -0.0818  0.2629
  146SAPE   O1216017   6.476   4.431  10.980 -0.0792 -0.2634 -0.5040
  146SAPE   O1116018   6.408   4.536  10.752 -0.1856 -0.6093  0.3225
  146SAPE    C116019   6.493   4.442  10.686 -0.5869 -0.0442  0.6281
  146SAPE    HA16020   6.587   4.435  10.746 -1.1206  0.6759  1.5832
  146SAPE    HB16021   6.436   4.347  10.680 -1.0680  0.3201 -0.7303
  146SAPE    C216022   6.523   4.487  10.541 -0.1085 -0.1389  0.0968
  146SAPE    HS16023   6.566   4.406  10.478 -1.5371 -1.9000  1.3274
  146SAPE   O2116024   6.630   4.583  10.556 -0.7452  0.0349 -0.1875
  146SAPE   C2116025   6.702   4.604  10.443  0.0952  1.1806  0.4053
  146SAPE   O2216026   6.694   4.531  10.346 -0.5926  0.1546 -0.2969
  146SAPE   C2216027   6.811   4.720  10.462 -0.8108  0.3210 -0.6715
  146SAPE   H2R16028   6.743   4.808  10.472 -1.6123 -0.0864 -2.3543
  146SAPE   H2S16029   6.856   4.708  10.563 -0.3722  1.2474 -0.7572
  146SAPE    C316030   6.400   4.541  10.470 -0.3535 -0.5550  0.4289
  146SAPE    HX16031   6.370   4.628  10.532  1.6017  1.1716 -0.9843
  146SAPE    HY16032   6.317   4.470  10.492 -0.4683 -0.2343  1.0404
  146SAPE   O3116033   6.419   4.586  10.333 -0.6092  0.2231  0.2906
  146SAPE   C3116034   6.420   4.485  10.251 -0.1849 -0.7208  0.0910
  146SAPE   O3216035   6.400   4.371  10.285  0.2630  0.2050 -0.2905
  146SAPE   C3216036   6.458   4.534  10.110  0.0127 -0.0754  0.0010
  146SAPE   H2X16037   6.569   4.524  10.108  0.0011 -0.2300  0.1645
  146SAPE   H2Y16038   6.428   4.639  10.091  2.6488  0.5892 -0.7547
  146SAPE   C2316039   6.926   4.731  10.357 -0.6918  0.9967 -0.4839
  146SAPE   H3R16040   6.984   4.823  10.381  1.0854  0.1961 -1.5948
  146SAPE   H3S16041   6.894   4.745  10.252  3.3639  0.0131 -1.9472
  146SAPE   C2416042   7.018   4.613  10.363 -0.5135  0.1218 -0.2762
  146SAPE   H4R16043   6.961   4.518  10.356 -3.1644  1.7893 -2.2046
  146SAPE   H4S16044   7.068   4.617  10.462  1.1985 -2.1338 -0.9954
  146SAPE   C2516045   7.120   4.623  10.251  0.7647  0.3231  0.2006
  146SAPE   H5R16046   7.211   4.673  10.286  1.4178 -0.7218  0.0119
  146SAPE   C2616047   7.105   4.589  10.127 -0.1553 -0.4973  0.4368
  146SAPE   H6R16048   7.188   4.606  10.056  0.3441 -1.1956  0.8441
  146SAPE   C2716049   6.976   4.530  10.069 -0.3261  0.1794 -0.1751
  146SAPE   H7R16050   6.894   4.544  10.142 -0.2234 -1.1898  0.2139
  146SAPE   H7S16051   6.987   4.420  10.064  1.3385  0.3555 -0.8799
  146SAPE   C2816052   6.933   4.595   9.942  0.4138  0.4789  0.1405
  146SAPE   H8R16053   6.882   4.692   9.948 -1.4164 -0.4110 -0.5345
  146SAPE   C2916054   6.941   4.550   9.812  0.1584  0.1138 -0.8436
  146SAPE   H9R16055   6.892   4.611   9.735 -0.5382 -0.0165 -0.5054
  146SAPE  C21016056   7.000   4.421   9.772  0.0919  0.2485  0.5455
  146SAPE  H10R16057   6.920   4.347   9.752 -0.9570  1.8915 -1.6092
  146SAPE  H10S16058   7.058   4.370   9.850 -0.8021  1.5658  2.1098
  146SAPE  C21116059   7.096   4.443   9.662  0.0856 -0.7751 -0.1588
  146SAPE  H11R16060   7.198   4.452   9.702  0.1693 -0.2782 -0.4855
  146SAPE  C21216061   7.070   4.448   9.529  0.4936  0.2203 -0.0345
  146SAPE  H12R16062   7.156   4.458   9.461 -0.2157 -2.5039 -1.3777
  146SAPE  C21316063   6.932   4.421   9.467 -0.2427  0.1667 -0.5213
  146SAPE  H13R16064   6.857   4.377   9.536  1.2001  0.3895  1.2248
  146SAPE  H13S16065   6.953   4.345   9.390 -1.0993 -1.3693  0.7353
  146SAPE  C21416066   6.895   4.555   9.410  0.0226  0.1604 -0.7414
  146SAPE  H14R16067   6.888   4.636   9.484 -0.8501 -2.7505  2.5227
  146SAPE  C21516068   6.860   4.590   9.285 -1.0358  0.4633  0.1876
  146SAPE  H15R16069   6.869   4.695   9.255 -0.9320  0.3087 -0.3480
  146SAPE  C21616070   6.873   4.503   9.164 -0.2023 -0.4545  0.1295
  146SAPE  H16R16071   6.776   4.456   9.141 -0.6304  0.0113  0.9873
  146SAPE  H16S16072   6.949   4.422   9.175  1.4771  0.9240 -0.8864
  146SAPE  C21716073   6.903   4.584   9.039  0.1611  0.0971 -0.5867
  146SAPE  H17R16074   7.001   4.636   9.034  0.3643  0.1937  2.8166
  146SAPE  H17S16075   6.824   4.661   9.022  0.2176  0.3999  0.4572
  146SAPE  C21816076   6.916   4.486   8.919  0.4712 -0.0958 -0.6623
  146SAPE  H18R16077   6.816   4.465   8.875  0.4413  1.8444 -1.5705
  146SAPE  H18S16078   6.960   4.394   8.964  0.2819 -0.0865 -0.4561
  146SAPE  C21916079   7.006   4.532   8.806 -0.0174 -0.2694 -0.3635
  146SAPE  H19R16080   7.027   4.447   8.739 -1.2556 -0.1995 -0.8493
  146SAPE  H19S16081   7.096   4.573   8.857 -0.8667  0.2678  0.7454
  146SAPE  C22016082   6.937   4.635   8.718  0.2428 -0.7929 -0.4031
  146SAPE  H20R16083   6.942   4.737   8.762 -0.7166 -0.3612 -1.2740
  146SAPE  H20S16084   6.832   4.610   8.693  0.5123 -2.4287  0.0605
  146SAPE  H20T16085   6.988   4.632   8.620  0.8778 -1.5835 -0.0553
  146SAPE   C3316086   6.389   4.450  10.005 -0.7110  0.6303 -0.4585
  146SAPE   H3X16087   6.278   4.444  10.010 -0.5689 -2.6579 -0.2287
  146SAPE   H3Y16088   6.430   4.347  10.012  4.2511  2.5378  0.8338
  146SAPE   C3416089   6.420   4.481   9.854  0.3706  0.1492  0.4705
  146SAPE   H4X16090   6.390   4.585   9.828 -0.3985 -0.9427 -3.3749
  146SAPE   H4Y16091   6.355   4.421   9.786 -0.4366  1.0711  0.4221
  146SAPE   C3516092   6.564   4.446   9.798 -0.6602  0.4105 -0.5077
  146SAPE   H5X16093   6.570   4.336   9.783  1.5944  0.3316  0.6447
  146SAPE   H5Y16094   6.650   4.467   9.865  0.0758 -1.0645 -0.9487
  146SAPE   C3616095   6.578   4.508   9.661  0.7871  0.2120  0.1065
  146SAPE   H6X16096   6.684   4.500   9.629  0.7423 -1.2864  0.2791
  146SAPE   H6Y16097   6.547   4.614   9.666  0.3652  0.0133  2.5362
  146SAPE   C3716098   6.488   4.446   9.551 -0.5307 -0.1151 -0.2085
  146SAPE   H7X16099   6.386   4.475   9.582 -0.6811 -0.5052 -0.3407
  146SAPE   H7Y16100   6.500   4.335   9.551 -0.0018 -0.1333  3.9239
  146SAPE   C3816101   6.509   4.512   9.408  0.6800 -0.2535 -0.3585
  146SAPE   H8X16102   6.612   4.493   9.370  1.1091  1.6703 -0.2025
  146SAPE   H8Y16103   6.480   4.620   9.410  1.7267  0.1008 -2.6893
  146SAPE   C3916104   6.415   4.452   9.304 -0.3189  0.1731 -0.6921
  146SAPE   H9X16105   6.310   4.480   9.327 -1.0657  1.8166 -5.5413
  146SAPE   H9Y16106   6.421   4.341   9.298 -0.8763  0.0348  1.0237
  146SAPE  C31016107   6.448   4.507   9.162 -0.1144  0.0022 -0.0119
  146SAPE  H10X16108   6.556   4.532   9.159  0.2095 -1.4766 -1.1850
  146SAPE  H10Y16109   6.398   4.606   9.171  2.6505  1.3468  1.4484
  146SAPE  C31116110   6.408   4.413   9.053  0.5254  0.0568 -0.0101
  146SAPE  H11X16111   6.303   4.383   9.073  0.7501 -0.0784  1.0003
  146SAPE  H11Y16112   6.460   4.315   9.049  1.6487  0.4410  3.4525
  146SAPE  C31216113   6.417   4.474   8.907 -0.4507  0.7573 -0.2361
  146SAPE  H12X16114   6.524   4.505   8.903  0.2496 -1.5442 -0.5334
  146SAPE  H12Y16115   6.350   4.562   8.898  1.2291  1.9398 -1.4538
  146SAPE  C31316116   6.390   4.368   8.795  0.0056 -0.3457 -0.8132
  146SAPE  H13X16117   6.280   4.351   8.802 -0.4388  1.4878 -2.7399
  146SAPE  H13Y16118   6.442   4.279   8.836  3.2468  1.7468 -0.1988
  146SAPE  C31416119   6.440   4.402   8.657 -0.7001 -0.2780  0.1448
  146SAPE  H14X16120   6.401   4.501   8.624  2.2237  1.5106  1.9163
  146SAPE  H14Y16121   6.392   4.324   8.594 -0.2849  0.3932 -1.0148
  146SAPE  C31516122   6.587   4.428   8.632 -0.1466  0.0032 -0.5959
  146SAPE  H15X16123   6.641   4.335   8.661 -0.7759 -1.0400 -2.6709
  146SAPE  H15Y16124   6.624   4.500   8.708 -1.2985  0.5891 -0.5791
  146SAPE  C31616125   6.625   4.457   8.482 -0.5701 -0.4766 -0.4413
  146SAPE  H16X16126   6.592   4.378   8.411  2.3603 -1.6259 -0.5764
  146SAPE  H16Y16127   6.735   4.447   8.474 -0.6075 -0.8774 -0.4427
  146SAPE  C31716128   6.587   4.600   8.434  0.2190  0.1873 -0.3093
  146SAPE  H17X16129   6.595   4.674   8.517 -2.3847 -1.8605  1.8748
  146SAPE  H17Y16130   6.477   4.607   8.421  0.0335  0.5359  1.2634
  146SAPE  C31816131   6.655   4.661   8.313 -0.4422 -0.4119 -0.1519
  146SAPE  H18X16132   6.637   4.592   8.227 -1.3304 -1.2652  0.7027
  146SAPE  H18Y16133   6.763   4.675   8.334 -0.6758  0.5249  0.4473
  146SAPE  H18Z16134   6.604   4.757   8.290  3.5180  1.9692  0.5994
  147SAPE     N16135   3.241   4.117   6.416 -0.3713  0.5536  0.4110
  147SAPE   HN116136   3.301   4.141   6.497  1.2318  0.6338 -0.7759
  147SAPE   HN216137   3.311   4.122   6.339  1.0230 -3.1550  1.3259
  147SAPE   HN316138   3.167   4.190   6.410 -0.9966 -0.0472  0.7146
  147SAPE   C1216139   3.195   3.975   6.406  0.4603 -0.1145  0.7139
  147SAPE  H12A16140   3.099   3.970   6.350  0.2943  0.0242  0.9845
  147SAPE  H12B16141   3.179   3.936   6.509  1.2969 -0.5982  0.6699
  147SAPE   C1116142   3.304   3.887   6.351 -0.2705  0.3165  0.0423
  147SAPE  H11A16143   3.332   3.904   6.245  1.3369 -0.4739  0.3256
  147SAPE  H11B16144   3.271   3.782   6.341  0.7339 -0.0313  0.2912
  147SAPE     P16145   3.535   3.785   6.425 -0.0529 -0.0156 -0.1278
  147SAPE   O1316146   3.594   3.788   6.293  0.1024  0.3621  0.2145
  147SAPE   O1416147   3.636   3.797   6.536  0.1582  0.0712  0.1246
  147SAPE   O1216148   3.420   3.899   6.439 -0.4219  1.1493 -0.0780
  147SAPE   O1116149   3.454   3.650   6.432 -0.3561  0.7247  0.2587
  147SAPE    C116150   3.364   3.627   6.539  0.4292 -0.3038 -0.2645
  147SAPE    HA16151   3.296   3.713   6.554 -0.3039 -0.9733  0.2681
  147SAPE    HB16152   3.297   3.542   6.514  0.3844 -0.4602  0.3798
  147SAPE    C216153   3.434   3.592   6.675  0.2151  0.3693  0.1281
  147SAPE    HS16154   3.496   3.678   6.710 -0.3384  1.7560 -2.1852
  147SAPE   O2116155   3.524   3.480   6.661  1.0161 -0.0840  0.1815
  147SAPE   C2116156   3.639   3.488   6.727  0.3543  0.1171 -0.0431
  147SAPE   O2216157   3.681   3.575   6.805  0.2436  0.6018 -0.0325
  147SAPE   C2216158   3.717   3.361   6.703  0.4617 -0.4364 -0.7667
  147SAPE   H2R16159   3.640   3.282   6.716  0.1131  0.2873  1.8724
  147SAPE   H2S16160   3.777   3.368   6.610  1.8497 -1.3897  0.0260
  147SAPE    C316161   3.324   3.569   6.781 -0.0580  0.3058  0.1837
  147SAPE    HX16162   3.286   3.465   6.770  0.9301  0.1088 -1.4904
  147SAPE    HY16163   3.240   3.638   6.759  0.1273  0.7146  0.7149
  147SAPE   O3116164   3.374   3.585   6.917  0.0948  0.1889 -0.4313
  147SAPE   C3116165   3.407   3.713   6.951  0.7412 -0.9381  1.4527
  147SAPE   O3216166   3.377   3.808   6.886 -0.1434  0.0790  0.3274
  147SAPE   C3216167   3.504   3.711   7.072  0.3737 -0.2380 -0.9844
  147SAPE   H2X16168   3.559   3.807   7.070 -0.2047  0.1576  0.7822
  147SAPE   H2Y16169   3.572   3.623   7.067 -1.9683 -2.2889  1.6652
  147SAPE   C2316170   3.819   3.341   6.810  0.2430 -0.0367  0.3162
  147SAPE   H3R16171   3.892   3.425   6.806  3.1929 -2.5428 -0.6844
  147SAPE   H3S16172   3.888   3.258   6.785  1.2102  0.9209 -0.2436
  147SAPE   C2416173   3.754   3.296   6.949 -1.0831  0.4102  0.0931
  147SAPE   H4R16174   3.810   3.204   6.977  1.3405  2.2625  1.4722
  147SAPE   H4S16175   3.650   3.266   6.923 -0.7996  1.1225 -1.9126
  147SAPE   C2516176   3.757   3.401   7.053 -0.6055 -0.8787 -0.2389
  147SAPE   H5R16177   3.777   3.503   7.018  0.4569 -1.0543 -0.1859
  147SAPE   C2616178   3.745   3.382   7.183  0.5659 -0.1834 -0.5534
  147SAPE   H6R16179   3.763   3.463   7.256  1.7008 -0.5072 -0.4555
  147SAPE   C2716180   3.727   3.246   7.249 -0.5108 -0.0868  0.6856
  147SAPE   H7R16181   3.825   3.195   7.264 -0.2516 -0.3773 -1.8251
  147SAPE   H7S16182   3.670   3.180   7.181 -0.9141 -0.5277  1.4453
  147SAPE   C2816183   3.657   3.257   7.380 -0.4617  0.3157 -0.2364
  147SAPE   H8R16184   3.559   3.208   7.385 -1.0428  1.3965 -1.0895
  147SAPE   C2916185   3.701   3.307   7.499  0.0391  1.1603  0.3254
  147SAPE   H9R16186   3.623   3.328   7.574  0.6638  0.9147  1.0552
  147SAPE  C21016187   3.836   3.370   7.532 -0.3911 -0.2448 -0.0733
  147SAPE  H10R16188   3.819   3.468   7.581 -0.2522 -0.8198  1.1423
  147SAPE  H10S16189   3.906   3.396   7.450 -0.0786  0.4201  0.4020
  147SAPE  C21116190   3.917   3.278   7.626 -0.4544  0.4219 -0.1009
  147SAPE  H11R16191   3.944   3.185   7.573  1.4341  0.1320  1.3372
  147SAPE  C21216192   3.948   3.285   7.758  0.0192 -0.4791 -0.2958
  147SAPE  H12R16193   4.008   3.203   7.800 -0.2205  0.0092  1.0157
  147SAPE  C21316194   3.906   3.398   7.851 -0.3071  0.3491 -0.3987
  147SAPE  H13R16195   3.845   3.477   7.802 -0.6278  0.9310  0.9111
  147SAPE  H13S16196   3.997   3.453   7.882 -0.7665 -0.2332  2.0672
  147SAPE  C21416197   3.830   3.357   7.973 -0.3457  0.1370  0.3835
  147SAPE  H14R16198   3.721   3.348   7.960 -0.0294 -2.5330 -0.7931
  147SAPE  C21516199   3.884   3.338   8.095  0.5242  0.4788  0.2247
  147SAPE  H15R16200   3.808   3.311   8.171 -1.1572  2.1139 -0.8246
  147SAPE  C21616201   4.027   3.351   8.130 -0.2972  0.1512 -0.7990
  147SAPE  H16R16202   4.075   3.444   8.095 -1.0942  0.6970 -0.4642
  147SAPE  H16S16203   4.086   3.267   8.087 -2.1018 -1.1400 -0.8046
  147SAPE  C21716204   4.055   3.343   8.280  0.5352  0.1104  0.4997
  147SAPE  H17R16205   4.038   3.237   8.311  0.5892  0.0201  0.2201
  147SAPE  H17S16206   3.974   3.397   8.333  0.0258 -1.2174  1.0941
  147SAPE  C21816207   4.194   3.395   8.317 -0.5501 -0.8176  0.8637
  147SAPE  H18R16208   4.191   3.501   8.283  2.7404 -1.3567 -1.3213
  147SAPE  H18S16209   4.263   3.328   8.262 -1.7096 -1.6134  0.3472
  147SAPE  C21916210   4.218   3.380   8.472  0.6303  0.2706 -0.1374
  147SAPE  H19R16211   4.216   3.272   8.497 -0.5524  0.3125 -0.0484
  147SAPE  H19S16212   4.133   3.429   8.524  1.0014  0.0370  0.6996
  147SAPE  C22016213   4.348   3.431   8.527 -0.0009 -0.1240 -0.0862
  147SAPE  H20R16214   4.371   3.531   8.484  2.5486  0.9297  3.4448
  147SAPE  H20S16215   4.432   3.361   8.510 -1.1012 -0.9437 -2.2986
  147SAPE  H20T16216   4.348   3.426   8.638 -1.4959 -0.2369 -0.0775
  147SAPE   C3316217   3.423   3.680   7.206 -0.1503  0.4940  0.1443
  147SAPE   H3X16218   3.365   3.586   7.203  0.2810  0.2607 -1.2941
  147SAPE   H3Y16219   3.357   3.768   7.224  0.1414  0.6213  0.5921
  147SAPE   C3416220   3.521   3.667   7.325 -0.4617  0.1008  0.6629
  147SAPE   H4X16221   3.564   3.763   7.360 -1.2921  0.4805  0.6363
  147SAPE   H4Y16222   3.599   3.588   7.318  0.7257  1.1703  1.5068
  147SAPE   C3516223   3.458   3.642   7.466  0.0711 -0.1835 -0.4069
  147SAPE   H5X16224   3.422   3.537   7.462  2.8992 -1.3689  2.8328
  147SAPE   H5Y16225   3.378   3.715   7.491  0.5526 -0.4496  2.0785
  147SAPE   C3616226   3.565   3.664   7.579  0.0946 -0.1372  0.1461
  147SAPE   H6X16227   3.603   3.768   7.578 -2.0625  0.6816  0.6902
  147SAPE   H6Y16228   3.647   3.590   7.561 -0.8319 -0.7682 -1.5639
  147SAPE   C3716229   3.499   3.635   7.716 -0.4506  0.2998 -0.1121
  147SAPE   H7X16230   3.466   3.530   7.699  1.5108 -0.3494  0.0375
  147SAPE   H7Y16231   3.402   3.689   7.718 -1.4063 -1.4044  0.0415
  147SAPE   C3816232   3.592   3.664   7.835 -0.2534 -0.4013  0.5599
  147SAPE   H8X16233   3.696   3.670   7.797 -0.1950 -1.4530  0.5453
  147SAPE   H8Y16234   3.597   3.573   7.898 -2.3967 -3.5773 -3.6456
  147SAPE   C3916235   3.561   3.796   7.901  0.5755  0.2017  0.4355
  147SAPE   H9X16236   3.456   3.830   7.909  0.1750 -0.3596 -2.1135
  147SAPE   H9Y16237   3.617   3.869   7.839 -0.0002  0.8874  0.7212
  147SAPE  C31016238   3.630   3.806   8.041 -0.7558  0.2241  0.0656
  147SAPE  H10X16239   3.620   3.913   8.068  0.8448  0.2085  0.7748
  147SAPE  H10Y16240   3.736   3.777   8.023 -2.0061 -3.8318 -1.3497
  147SAPE  C31116241   3.570   3.709   8.149  0.2004 -0.5985 -0.1144
  147SAPE  H11X16242   3.618   3.609   8.138  3.5137  1.0131 -1.0424
  147SAPE  H11Y16243   3.461   3.700   8.134  0.2366 -0.5142 -0.4385
  147SAPE  C31216244   3.601   3.749   8.294  0.2549 -0.5213  0.4508
  147SAPE  H12X16245   3.527   3.698   8.359 -2.2764  1.9004 -0.4072
  147SAPE  H12Y16246   3.593   3.859   8.306  1.5659 -0.4826  1.0517
  147SAPE  C31316247   3.747   3.731   8.336  0.9733 -1.1467 -0.1306
  147SAPE  H13X16248   3.816   3.783   8.266 -2.0399  1.1596 -1.4972
  147SAPE  H13Y16249   3.767   3.622   8.343  0.3543 -1.3627 -1.4700
  147SAPE  C31416250   3.789   3.779   8.476  0.6037 -0.2828  0.3296
  147SAPE  H14X16251   3.800   3.889   8.471  1.1240 -0.3816 -0.8593
  147SAPE  H14Y16252   3.889   3.738   8.499  0.5568 -0.0819  0.8875
  147SAPE  C31516253   3.682   3.743   8.589 -0.5321  1.1930 -0.2737
  147SAPE  H15X16254   3.619   3.652   8.581 -1.4152  1.5944  1.7401
  147SAPE  H15Y16255   3.606   3.822   8.570 -2.5024 -0.1622  1.6633
  147SAPE  C31616256   3.736   3.753   8.735  0.2451 -0.0221 -0.2643
  147SAPE  H16X16257   3.806   3.667   8.740  0.2886  0.1527  2.4920
  147SAPE  H16Y16258   3.659   3.741   8.814 -0.4110 -0.3077 -0.9382
  147SAPE  C31716259   3.810   3.890   8.768 -0.0252  0.4149 -0.1822
  147SAPE  H17X16260   3.904   3.888   8.710  0.9070 -1.6952  1.3247
  147SAPE  H17Y16261   3.840   3.914   8.873 -1.3298  1.4041 -0.0253
  147SAPE  C31816262   3.731   4.011   8.717  0.7839  0.3598 -0.1629
  147SAPE  H18X16263   3.714   4.005   8.607  1.7887  1.0675 -0.3650
  147SAPE  H18Y16264   3.773   4.106   8.756 -0.1330  0.1890  1.2561
  147SAPE  H18Z16265   3.634   4.022   8.769  0.9899  0.2775  0.2435
  148SAPE     N16266   3.472   1.384   6.725  0.7388  0.0415 -0.7810
  148SAPE   HN116267   3.551   1.387   6.792  1.2329  3.3036 -1.4463
  148SAPE   HN216268   3.487   1.308   6.655  0.8847 -1.1736  0.5350
  148SAPE   HN316269   3.468   1.476   6.677 -1.0054  0.4727  0.1728
  148SAPE   C1216270   3.339   1.354   6.796 -0.7219  0.1330 -1.0646
  148SAPE  H12A16271   3.325   1.447   6.854  4.1817  0.6895 -0.5449
  148SAPE  H12B16272   3.355   1.286   6.882  0.7929  0.7072 -0.8732
  148SAPE   C1116273   3.225   1.328   6.698  0.0158  0.0501  0.4293
  148SAPE  H11A16274   3.127   1.332   6.750 -1.1227 -1.6393 -1.4657
  148SAPE  H11B16275   3.222   1.225   6.656 -1.9981  1.3910 -2.9431
  148SAPE     P16276   3.155   1.560   6.598 -0.2907 -0.0320  0.0500
  148SAPE   O1316277   3.223   1.638   6.703  0.4168 -0.8198 -0.2096
  148SAPE   O1416278   3.154   1.612   6.456 -0.2021 -0.3532 -0.1686
  148SAPE   O1216279   3.231   1.418   6.590  0.1875 -0.1787 -0.6254
  148SAPE   O1116280   3.008   1.520   6.647  0.0016 -0.4020  0.4536
  148SAPE    C116281   2.906   1.619   6.612  0.5785  0.6116 -0.0493
  148SAPE    HA16282   2.908   1.654   6.507 -2.3338 -1.6855 -0.9381
  148SAPE    HB16283   2.806   1.572   6.622  0.8881  0.1967  1.1996
  148SAPE    C216284   2.907   1.740   6.712  0.1746  0.3992  0.2072
  148SAPE    HS16285   3.011   1.778   6.703  0.7415 -0.9026  1.0543
  148SAPE   O2116286   2.871   1.683   6.839 -0.3925  0.0359  0.2620
  148SAPE   C2116287   2.940   1.729   6.942  0.0404  0.3030  0.0937
  148SAPE   O2216288   3.035   1.800   6.937  0.1803 -0.1933  0.0553
  148SAPE   C2216289   2.869   1.678   7.070 -0.3726  0.7182 -0.6364
  148SAPE   H2R16290   2.894   1.745   7.155 -0.7859  1.9508 -1.4827
  148SAPE   H2S16291   2.762   1.700   7.054 -1.2580 -1.2372  2.1369
  148SAPE    C316292   2.815   1.842   6.659  0.1167 -0.3026  0.1034
  148SAPE    HX16293   2.710   1.807   6.660 -0.0960  0.3774  1.7237
  148SAPE    HY16294   2.840   1.864   6.553  0.8476 -0.4604  0.2395
  148SAPE   O3116295   2.838   1.958   6.738  0.1384  0.6654  0.1931
  148SAPE   C3116296   2.749   1.980   6.839  0.2700 -0.2403 -0.2270
  148SAPE   O3216297   2.660   1.909   6.875 -0.1020 -0.2769 -0.2216
  148SAPE   C3216298   2.774   2.120   6.902 -0.2082 -0.3036 -0.7805
  148SAPE   H2X16299   2.729   2.192   6.831 -0.1176 -0.5470 -1.0847
  148SAPE   H2Y16300   2.884   2.139   6.905 -0.1332 -0.4451 -2.1686
  148SAPE   C2316301   2.912   1.539   7.103  0.0953  0.1703 -0.1536
  148SAPE   H3R16302   2.859   1.461   7.043 -0.5979 -0.9276  1.8530
  148SAPE   H3S16303   2.868   1.522   7.203 -0.3977  2.9043  0.1200
  148SAPE   C2416304   3.052   1.508   7.117 -0.1862 -0.0205 -0.3712
  148SAPE   H4R16305   3.114   1.591   7.158  0.6000 -0.2739 -1.0403
  148SAPE   H4S16306   3.095   1.504   7.015  0.9096 -0.2688  0.0967
  148SAPE   C2516307   3.094   1.376   7.182  0.0861 -0.4976  0.0421
  148SAPE   H5R16308   3.084   1.277   7.135 -0.1512 -0.1647 -0.6067
  148SAPE   C2616309   3.117   1.378   7.315  0.0626 -0.4899  0.0962
  148SAPE   H6R16310   3.134   1.278   7.356  0.3026  0.0827  1.4049
  148SAPE   C2716311   3.118   1.492   7.410  0.2883 -0.1265 -0.5571
  148SAPE   H7R16312   3.018   1.512   7.454  0.1056 -0.8795 -0.6105
  148SAPE   H7S16313   3.155   1.586   7.364 -3.3728  2.8279  2.1883
  148SAPE   C2816314   3.217   1.464   7.513 -0.1562  0.0876 -0.5040
  148SAPE   H8R16315   3.316   1.451   7.467 -0.0005  1.6890 -0.6208
  148SAPE   C2916316   3.198   1.465   7.647 -0.1884 -0.8199  0.2237
  148SAPE   H9R16317   3.279   1.437   7.716  1.0526  2.2733  0.1283
  148SAPE  C21016318   3.070   1.492   7.720  0.3492  0.2000  0.5706
  148SAPE  H10R16319   3.001   1.564   7.671  1.7445  0.2512 -1.3742
  148SAPE  H10S16320   3.083   1.548   7.815 -0.6987  2.5524 -0.6309
  148SAPE  C21116321   2.982   1.373   7.760  0.2957 -0.0569 -0.0967
  148SAPE  H11R16322   2.908   1.350   7.682  0.8490  0.2743 -0.7225
  148SAPE  C21216323   2.992   1.298   7.876 -0.1796  0.3225  0.8657
  148SAPE  H12R16324   2.919   1.217   7.887 -0.9451  1.0582  1.3066
  148SAPE  C21316325   3.087   1.326   7.988 -0.7792 -0.4827 -0.0988
  148SAPE  H13R16326   3.178   1.384   7.962  1.5168 -2.8016  2.4378
  148SAPE  H13S16327   3.124   1.233   8.037  0.4352 -0.3369 -0.7332
  148SAPE  C21416328   3.007   1.418   8.076  0.6167 -0.3092  0.2748
  148SAPE  H14R16329   2.955   1.496   8.019 -2.1407 -0.0129  3.0718
  148SAPE  C21516330   2.993   1.414   8.210  0.4211 -1.0787 -0.1004
  148SAPE  H15R16331   2.934   1.494   8.256  0.6456  1.5622 -4.1713
  148SAPE  C21616332   3.049   1.312   8.311 -0.0823 -0.3924 -0.5509
  148SAPE  H16R16333   3.108   1.356   8.393  1.1346 -0.2968 -1.4640
  148SAPE  H16S16334   3.112   1.234   8.263 -0.2049 -0.2003 -1.0355
  148SAPE  C21716335   2.938   1.224   8.374  0.4211  0.1994 -0.1335
  148SAPE  H17R16336   2.870   1.287   8.435  0.1705  2.0136 -2.2387
  148SAPE  H17S16337   2.988   1.167   8.455  0.5709 -1.9810 -1.7408
  148SAPE  C21816338   2.855   1.136   8.273 -0.5262 -0.3605 -0.7844
  148SAPE  H18R16339   2.852   1.191   8.177 -2.6532  1.6784  0.4003
  148SAPE  H18S16340   2.752   1.143   8.312 -0.9488  0.6895 -2.0512
  148SAPE  C21916341   2.909   1.000   8.231  0.3258 -0.0708 -0.3886
  148SAPE  H19R16342   2.888   0.917   8.302 -0.4348  2.1773  2.0904
  148SAPE  H19S16343   3.018   0.993   8.215  0.2978 -0.2690 -0.4980
  148SAPE  C22016344   2.848   0.964   8.094  0.2757 -0.2037 -0.5391
  148SAPE  H20R16345   2.899   0.873   8.055 -1.6299 -1.7081  0.3737
  148SAPE  H20S16346   2.853   1.048   8.022  0.1852  0.7133  0.4982
  148SAPE  H20T16347   2.738   0.950   8.089 -0.1330  2.3299  0.7840
  148SAPE   C3316348   2.711   2.142   7.046  0.3485 -1.1692 -0.5704
  148SAPE   H3X16349   2.614   2.089   7.053  0.1342 -0.7047  0.0491
  148SAPE   H3Y16350   2.703   2.249   7.078 -1.1836 -1.4456 -0.0008
  148SAPE   C3416351   2.791   2.062   7.154 -0.1430 -0.1034  0.8830
  148SAPE   H4X16352   2.783   1.953   7.132 -0.3454  0.0832  0.0138
  148SAPE   H4Y16353   2.741   2.078   7.252 -0.6581 -2.1570  0.9920
  148SAPE   C3516354   2.944   2.108   7.162 -0.0883  0.0948 -0.4469
  148SAPE   H5X16355   2.942   2.218   7.179  1.0801  0.0668 -0.1026
  148SAPE   H5Y16356   2.994   2.085   7.066  0.1923 -0.9405 -0.0585
  148SAPE   C3616357   3.031   2.042   7.268  0.3542 -0.3311  0.4992
  148SAPE   H6X16358   3.134   2.057   7.230 -0.3337 -1.0113 -1.6945
  148SAPE   H6Y16359   3.013   1.933   7.260 -0.4860 -0.0556 -1.5850
  148SAPE   C3716360   3.023   2.090   7.418  0.7582  0.4944  0.0273
  148SAPE   H7X16361   3.083   2.019   7.478  3.4605  0.3676 -2.6822
  148SAPE   H7Y16362   2.913   2.091   7.433  0.7997  1.4727  0.2823
  148SAPE   C3816363   3.086   2.227   7.438  0.3195 -0.1003 -0.3506
  148SAPE   H8X16364   3.019   2.304   7.395  0.2729  0.0531  0.0041
  148SAPE   H8Y16365   3.176   2.233   7.372  0.8543  1.2599  0.4877
  148SAPE   C3916366   3.123   2.259   7.586 -0.3273  0.4309 -0.2802
  148SAPE   H9X16367   3.166   2.361   7.598 -1.6235  0.6684  2.7370
  148SAPE   H9Y16368   3.204   2.195   7.628  0.2346  0.7183 -0.9078
  148SAPE  C31016369   3.010   2.253   7.685 -0.1418 -0.4782  0.5843
  148SAPE  H10X16370   2.979   2.147   7.694 -4.1237  0.5380 -0.3181
  148SAPE  H10Y16371   2.916   2.305   7.656 -0.7572 -2.3622 -0.9300
  148SAPE  C31116372   3.052   2.302   7.832  0.1390  0.1457 -1.0609
  148SAPE  H11X16373   3.085   2.407   7.823 -2.0996  0.7445 -2.7269
  148SAPE  H11Y16374   3.134   2.242   7.877 -1.3027  0.0847  1.5819
  148SAPE  C31216375   2.931   2.276   7.925 -0.0742  0.2636  0.3163
  148SAPE  H12X16376   2.915   2.166   7.925 -2.2467  0.5335  2.1105
  148SAPE  H12Y16377   2.844   2.328   7.880 -0.0028 -0.2465 -0.4207
  148SAPE  C31316378   2.954   2.316   8.070 -0.0363  0.0622  0.2486
  148SAPE  H13X16379   3.003   2.415   8.075  1.4830 -0.7225  1.2560
  148SAPE  H13Y16380   3.036   2.254   8.112  0.5505  1.0935  0.6478
  148SAPE  C31416381   2.826   2.286   8.145 -0.4594 -0.1987 -0.2832
  148SAPE  H14X16382   2.806   2.177   8.143 -1.4857 -0.0432  1.2160
  148SAPE  H14Y16383   2.741   2.345   8.103 -1.6085 -0.7348  1.2722
  148SAPE  C31516384   2.819   2.326   8.292 -0.1932  0.0635 -0.3031
  148SAPE  H15X16385   2.886   2.269   8.360  1.7517  1.3025 -1.1416
  148SAPE  H15Y16386   2.711   2.314   8.318 -0.5227 -0.0849 -1.7168
  148SAPE  C31616387   2.860   2.467   8.329 -0.2434 -0.4529 -0.3481
  148SAPE  H16X16388   2.801   2.547   8.278  1.0948  1.2102  0.6700
  148SAPE  H16Y16389   2.964   2.474   8.291 -1.0094  0.5819 -2.3639
  148SAPE  C31716390   2.860   2.489   8.478  0.3709  0.3974 -1.0906
  148SAPE  H17X16391   2.931   2.412   8.514  0.0880  0.6735  0.1000
  148SAPE  H17Y16392   2.758   2.483   8.521  0.0018 -1.1422 -2.1463
  148SAPE  C31816393   2.933   2.616   8.528 -0.2755  0.2737 -0.6014
  148SAPE  H18X16394   2.882   2.712   8.552 -2.0930 -1.5632  3.2750
  148SAPE  H18Y16395   3.015   2.645   8.458 -0.4537  1.0622 -0.4816
  148SAPE  H18Z16396   2.987   2.588   8.621 -1.5212  0.4577  0.1823
  149SAPE     N16397   2.731   2.403   6.256  0.3599 -0.4676 -0.1760
  149SAPE   HN116398   2.807   2.404   6.184  0.1727 -4.4864 -0.5212
  149SAPE   HN216399   2.692   2.307   6.253  3.5054 -1.8099 -0.3536
  149SAPE   HN316400   2.659   2.477   6.244 -0.7562 -1.2153  1.7402
  149SAPE   C1216401   2.801   2.404   6.383 -0.1077 -0.1326 -0.7494
  149SAPE  H12A16402   2.813   2.507   6.422  0.3269 -0.6215  0.4558
  149SAPE  H12B16403   2.905   2.372   6.361 -0.8351 -0.0304 -4.6464
  149SAPE   C1116404   2.730   2.314   6.493  0.0679 -0.8174 -0.1689
  149SAPE  H11A16405   2.631   2.356   6.521  0.4878 -1.5309  2.5281
  149SAPE  H11B16406   2.797   2.332   6.579 -0.2383  2.2206 -0.5288
  149SAPE     P16407   2.615   2.106   6.391  0.4492 -0.0038  0.0938
  149SAPE   O1316408   2.618   2.173   6.257  0.5219 -0.1608 -0.7095
  149SAPE   O1416409   2.639   1.958   6.392 -0.3375  0.2713  0.0007
  149SAPE   O1216410   2.727   2.176   6.458 -0.7015  0.6690  0.3926
  149SAPE   O1116411   2.490   2.147   6.472 -0.2867  0.2748  0.2483
  149SAPE    C116412   2.460   2.089   6.603 -0.3598  0.1810  0.1533
  149SAPE    HA16413   2.411   1.991   6.584  1.6197 -0.7856 -0.0800
  149SAPE    HB16414   2.550   2.065   6.663  1.2548  1.1661 -1.8477
  149SAPE    C216415   2.382   2.168   6.710  0.2258  0.3127 -0.3592
  149SAPE    HS16416   2.286   2.197   6.662 -0.8210 -0.4314  1.2390
  149SAPE   O2116417   2.451   2.286   6.745 -0.0257 -0.1812  0.3264
  149SAPE   C2116418   2.372   2.382   6.787  0.3661 -0.0703 -0.2428
  149SAPE   O2216419   2.249   2.372   6.789  0.5507 -0.1188  0.2212
  149SAPE   C2216420   2.453   2.496   6.842 -0.6593 -0.3215 -0.1892
  149SAPE   H2R16421   2.561   2.471   6.842 -0.2543  1.1593  2.8707
  149SAPE   H2S16422   2.439   2.581   6.772  2.2659 -1.5500 -2.3214
  149SAPE    C316423   2.362   2.074   6.840 -0.1069 -0.5016  0.7521
  149SAPE    HX16424   2.459   2.065   6.893 -0.1707 -1.4159  0.7199
  149SAPE    HY16425   2.333   1.968   6.824  0.2720 -0.2188 -2.0060
  149SAPE   O3116426   2.261   2.136   6.921 -0.0415 -0.4194 -0.2933
  149SAPE   C3116427   2.132   2.127   6.895  0.5257 -0.6145  0.1146
  149SAPE   O3216428   2.085   2.065   6.802 -0.1984 -0.1678 -0.3670
  149SAPE   C3216429   2.045   2.206   6.996 -0.4472  0.7307 -0.9126
  149SAPE   H2X16430   2.025   2.306   6.952  1.1496  1.1924 -0.6256
  149SAPE   H2Y16431   2.115   2.222   7.081 -1.2884 -1.9730  0.3620
  149SAPE   C2316432   2.405   2.534   6.981 -0.1809  0.3072 -0.0073
  149SAPE   H3R16433   2.295   2.527   6.991 -0.1016  0.1052  0.7532
  149SAPE   H3S16434   2.433   2.640   6.998  0.9880  0.1313 -0.8054
  149SAPE   C2416435   2.476   2.466   7.099 -0.6390  0.4260  0.1940
  149SAPE   H4R16436   2.577   2.510   7.111 -0.4674 -0.1431  0.8547
  149SAPE   H4S16437   2.480   2.358   7.076  1.3897  0.3762  0.7548
  149SAPE   C2516438   2.402   2.490   7.229  0.5751  0.2127  0.0273
  149SAPE   H5R16439   2.356   2.590   7.237  0.4145  0.1187  0.2986
  149SAPE   C2616440   2.407   2.410   7.333 -0.5381 -0.6781  0.2908
  149SAPE   H6R16441   2.351   2.436   7.424 -2.4222  0.7571 -1.2291
  149SAPE   C2716442   2.486   2.286   7.332  0.5082 -0.4294  0.3106
  149SAPE   H7R16443   2.567   2.279   7.257  2.7667  2.2335  2.3728
  149SAPE   H7S16444   2.422   2.206   7.288  1.1564  0.4949 -2.4184
  149SAPE   C2816445   2.538   2.228   7.458  0.0436 -0.2185 -0.3631
  149SAPE   H8R16446   2.504   2.127   7.486  0.5887 -0.5969 -1.0507
  149SAPE   C2916447   2.633   2.291   7.527 -0.2433  0.6975 -0.1029
  149SAPE   H9R16448   2.660   2.242   7.622 -1.2837  0.1011 -0.1011
  149SAPE  C21016449   2.694   2.420   7.481 -0.1716 -1.0169 -0.1262
  149SAPE  H10R16450   2.680   2.436   7.372  1.5379 -0.7265 -0.3188
  149SAPE  H10S16451   2.804   2.405   7.492 -0.2667 -0.0183  2.7697
  149SAPE  C21116452   2.657   2.546   7.560 -0.2020 -0.3386  0.5804
  149SAPE  H11R16453   2.611   2.526   7.658 -3.3586 -1.2243 -1.0090
  149SAPE  C21216454   2.692   2.671   7.517 -0.0026  0.2492 -0.0467
  149SAPE  H12R16455   2.647   2.749   7.581 -0.6925  0.1466 -0.3950
  149SAPE  C21316456   2.759   2.719   7.390 -0.1003  0.1281  0.7000
  149SAPE  H13R16457   2.817   2.632   7.354  1.6913  0.8040  1.9090
  149SAPE  H13S16458   2.836   2.792   7.421  1.2040 -0.3236 -1.4362
  149SAPE  C21416459   2.662   2.753   7.281 -1.1006  0.4890  0.3240
  149SAPE  H14R16460   2.556   2.733   7.303 -0.7786  1.2901  2.8414
  149SAPE  C21516461   2.690   2.800   7.159 -0.1821 -0.1397  0.5901
  149SAPE  H15R16462   2.611   2.819   7.085  0.1059 -2.7881 -0.4735
  149SAPE  C21616463   2.833   2.831   7.110  0.6794  0.2271  0.3392
  149SAPE  H16R16464   2.895   2.851   7.199  0.3877  2.3297  0.0947
  149SAPE  H16S16465   2.828   2.913   7.036 -3.6457 -2.7942 -3.0054
  149SAPE  C21716466   2.904   2.715   7.027  1.1195  0.2121 -0.0475
  149SAPE  H17R16467   2.941   2.630   7.088 -0.0306  0.3299  0.8198
  149SAPE  H17S16468   2.996   2.758   6.980  1.6666 -1.2826 -0.3896
  149SAPE  C21816469   2.819   2.657   6.912  0.1330  0.0986 -0.0219
  149SAPE  H18R16470   2.783   2.740   6.848  0.3020 -0.7962 -1.3055
  149SAPE  H18S16471   2.739   2.594   6.956 -0.0298  0.5393  0.3174
  149SAPE  C21916472   2.893   2.574   6.799 -0.3146 -1.0070 -0.4383
  149SAPE  H19R16473   2.978   2.630   6.755 -1.6378  0.8495 -0.7332
  149SAPE  H19S16474   2.816   2.559   6.720 -0.2516 -0.3232 -0.6329
  149SAPE  C22016475   2.947   2.440   6.843  0.6600 -0.4134  0.2300
  149SAPE  H20R16476   3.035   2.463   6.907  0.8180 -0.3075 -0.0217
  149SAPE  H20S16477   2.971   2.378   6.754  0.0579  1.2644 -1.1124
  149SAPE  H20T16478   2.874   2.387   6.907  0.7985 -2.2213 -1.0853
  149SAPE   C3316479   1.910   2.138   7.026  0.1834  0.5022 -0.5742
  149SAPE   H3X16480   1.861   2.111   6.931  1.8724 -1.9903 -0.7833
  149SAPE   H3Y16481   1.840   2.201   7.085 -1.0013  0.4046 -1.8488
  149SAPE   C3416482   1.938   2.012   7.118 -0.3876  0.5520  0.0828
  149SAPE   H4X16483   2.039   1.969   7.096  0.3217  2.1919  0.0331
  149SAPE   H4Y16484   1.865   1.942   7.074  0.1235 -0.9551  1.5894
  149SAPE   C3516485   1.921   2.033   7.261  0.0331  0.5146  0.8255
  149SAPE   H5X16486   1.934   1.942   7.324 -0.0006  1.0028  1.5535
  149SAPE   H5Y16487   1.819   2.069   7.287 -0.4662  0.0735 -0.5144
  149SAPE   C3616488   2.011   2.140   7.330 -0.6279  0.6657 -1.1341
  149SAPE   H6X16489   1.969   2.240   7.307  2.5051  2.0087 -1.1793
  149SAPE   H6Y16490   2.112   2.116   7.291 -0.0914 -1.4043  1.3945
  149SAPE   C3716491   2.038   2.130   7.485 -0.1508  0.3800  0.2332
  149SAPE   H7X16492   2.065   2.024   7.506 -0.5665  0.6363  2.1693
  149SAPE   H7Y16493   1.950   2.156   7.548 -0.9939  0.9054 -1.1558
  149SAPE   C3816494   2.153   2.227   7.519 -0.2549 -0.3803  0.7678
  149SAPE   H8X16495   2.140   2.329   7.478  0.7727 -0.4610  0.2166
  149SAPE   H8Y16496   2.249   2.189   7.479  1.1708  1.7104  2.1029
  149SAPE   C3916497   2.178   2.243   7.662  0.1249 -0.6988  0.4154
  149SAPE   H9X16498   2.092   2.288   7.716  0.6434  1.3810 -0.4132
  149SAPE   H9Y16499   2.255   2.324   7.664 -1.1510  0.5181  1.0658
  149SAPE  C31016500   2.222   2.121   7.737 -0.0010 -0.2945  0.4119
  149SAPE  H10X16501   2.329   2.108   7.711 -0.5004 -2.9431 -0.5544
  149SAPE  H10Y16502   2.171   2.034   7.690  1.9242 -1.4256  0.3739
  149SAPE  C31116503   2.219   2.124   7.890  0.1181  0.2019 -0.0208
  149SAPE  H11X16504   2.230   2.018   7.924 -0.3426 -0.2097 -1.1645
  149SAPE  H11Y16505   2.120   2.150   7.933 -0.0230 -2.2684  1.2834
  149SAPE  C31216506   2.327   2.216   7.948 -0.2941 -0.0242 -0.6314
  149SAPE  H12X16507   2.407   2.224   7.872 -2.5800 -0.7960 -3.2242
  149SAPE  H12Y16508   2.379   2.175   8.036 -1.1545  0.2268  0.0035
  149SAPE  C31316509   2.279   2.356   7.990  0.6273 -1.0413  0.0042
  149SAPE  H13X16510   2.205   2.358   8.073  0.4011  1.0104 -0.2025
  149SAPE  H13Y16511   2.233   2.397   7.898  0.6994  2.3891  1.4081
  149SAPE  C31416512   2.395   2.442   8.045  0.2994 -0.3198  0.0058
  149SAPE  H14X16513   2.440   2.399   8.137  2.1028  0.4084 -0.5094
  149SAPE  H14Y16514   2.348   2.536   8.079  1.5334  0.0743  0.6732
  149SAPE  C31516515   2.506   2.488   7.939  0.3789  0.1630  0.1713
  149SAPE  H15X16516   2.465   2.500   7.837  1.2467 -1.3785 -0.3718
  149SAPE  H15Y16517   2.568   2.396   7.930 -0.5895 -0.5065  0.3057
  149SAPE  C31616518   2.596   2.600   7.986  0.2599 -0.0360  0.4846
  149SAPE  H16X16519   2.649   2.582   8.082  0.0675 -0.5507  0.5007
  149SAPE  H16Y16520   2.525   2.682   8.010 -0.2153 -0.5244  0.7820
  149SAPE  C31716521   2.693   2.653   7.878  0.7331  0.8397 -0.0885
  149SAPE  H17X16522   2.644   2.714   7.799  2.1293  0.4955 -1.2482
  149SAPE  H17Y16523   2.735   2.571   7.816 -1.2170  0.8140 -1.4235
  149SAPE  C31816524   2.810   2.732   7.947  0.5152  0.2079 -0.1601
  149SAPE  H18X16525   2.775   2.834   7.975  1.1860  0.0482  1.3134
  149SAPE  H18Y16526   2.897   2.739   7.878 -0.3898  0.1049 -1.3225
  149SAPE  H18Z16527   2.837   2.684   8.043  0.0535  0.8992  0.3263
  150SAPE     N16528   1.314   3.815   6.483  0.3308  0.4804 -0.4655
  150SAPE   HN116529   1.306   3.844   6.582  0.4058  0.5646 -0.4849
  150SAPE   HN216530   1.314   3.902   6.426  0.0166  1.7506  1.4481
  150SAPE   HN316531   1.231   3.754   6.466  0.2236  1.2648 -2.9711
  150SAPE   C1216532   1.436   3.728   6.471 -0.0329  0.2146  0.4928
  150SAPE  H12A16533   1.447   3.688   6.574  1.5838  0.9771  0.6291
  150SAPE  H12B16534   1.525   3.788   6.443  0.5042 -1.4040 -1.4093
  150SAPE   C1116535   1.424   3.607   6.376  0.1114 -0.5048 -0.2537
  150SAPE  H11A16536   1.518   3.552   6.395  0.2977 -0.8003 -1.9146
  150SAPE  H11B16537   1.440   3.636   6.269 -1.5359  2.2935  0.2075
  150SAPE     P16538   1.316   3.398   6.490 -0.0253  0.2159 -0.0525
  150SAPE   O1316539   1.182   3.336   6.489 -0.2227 -0.1228  0.0452
  150SAPE   O1416540   1.426   3.312   6.446 -0.2644  0.0804  0.2452
  150SAPE   O1216541   1.312   3.525   6.394  0.2223  0.7792  0.1438
  150SAPE   O1116542   1.336   3.460   6.635  0.0860  0.4204 -0.6237
  150SAPE    C116543   1.296   3.389   6.753  0.0919  0.6844 -0.0497
  150SAPE    HA16544   1.249   3.465   6.819  1.1047 -0.1196  1.6617
  150SAPE    HB16545   1.220   3.308   6.741 -2.6738  3.0023  1.3536
  150SAPE    C216546   1.416   3.332   6.837  0.6667  0.4481  0.4531
  150SAPE    HS16547   1.376   3.295   6.933 -0.9043  0.5171 -0.1615
  150SAPE   O2116548   1.513   3.440   6.853  0.4703  0.1102  0.0143
  150SAPE   C2116549   1.474   3.528   6.952  0.0305 -0.2441  1.0172
  150SAPE   O2216550   1.366   3.529   7.007 -0.6187 -0.1304 -0.1472
  150SAPE   C2216551   1.598   3.611   6.991  0.1757 -0.0247  0.2936
  150SAPE   H2R16552   1.652   3.537   7.053  2.5784 -0.6431 -2.4166
  150SAPE   H2S16553   1.647   3.619   6.891  0.8486 -0.6544  0.5718
  150SAPE    C316554   1.486   3.207   6.773  0.0932  0.7443  0.1808
  150SAPE    HX16555   1.520   3.244   6.674  1.4857  1.8961  1.0821
  150SAPE    HY16556   1.418   3.120   6.758  0.8768  0.0242  0.6950
  150SAPE   O3116557   1.599   3.169   6.858  0.4847 -0.1180  0.3587
  150SAPE   C3116558   1.714   3.222   6.830  0.3551  0.4392 -0.1451
  150SAPE   O3216559   1.744   3.298   6.742  0.1266 -0.1123  0.0523
  150SAPE   C3216560   1.813   3.168   6.942  0.5874 -0.5463  0.2021
  150SAPE   H2X16561   1.904   3.134   6.888  0.1459 -0.2519 -0.7469
  150SAPE   H2Y16562   1.765   3.085   6.999  2.9031 -1.3235  1.1105
  150SAPE   C2316563   1.567   3.748   7.054  0.5095  0.5085 -0.0113
  150SAPE   H3R16564   1.487   3.805   7.001  0.6157  0.7560  0.0972
  150SAPE   H3S16565   1.663   3.801   7.038 -0.2621  2.3887  1.4024
  150SAPE   C2416566   1.543   3.752   7.206  0.0694 -0.4961 -0.3426
  150SAPE   H4R16567   1.557   3.859   7.234  0.6110 -0.6632  0.0206
  150SAPE   H4S16568   1.626   3.704   7.261 -0.4672 -0.5709  0.4139
  150SAPE   C2516569   1.410   3.703   7.250  0.1862 -0.1271 -0.1153
  150SAPE   H5R16570   1.388   3.603   7.212 -2.3931 -0.7304  2.7575
  150SAPE   C2616571   1.309   3.758   7.318  0.1415  1.0037  0.0905
  150SAPE   H6R16572   1.216   3.702   7.334 -0.1987  1.1669 -1.2142
  150SAPE   C2716573   1.306   3.897   7.377 -0.6786  0.3251  0.5905
  150SAPE   H7R16574   1.412   3.929   7.391 -0.2565 -0.2991 -1.0711
  150SAPE   H7S16575   1.260   3.890   7.477 -0.3479  0.9422  0.7910
  150SAPE   C2816576   1.241   4.004   7.297  0.5017  0.4087 -0.1050
  150SAPE   H8R16577   1.273   3.989   7.192  2.3472  1.1189  0.3338
  150SAPE   C2916578   1.164   4.103   7.338 -0.4368 -0.2953  0.1619
  150SAPE   H9R16579   1.127   4.173   7.261 -0.4289 -2.7646 -2.1779
  150SAPE  C21016580   1.120   4.125   7.487  0.3873 -0.4279 -0.1177
  150SAPE  H10R16581   1.208   4.155   7.548  1.5862 -1.8842 -1.0656
  150SAPE  H10S16582   1.083   4.031   7.533  2.1900 -0.8909  0.4634
  150SAPE  C21116583   1.023   4.241   7.500  0.7898 -0.1711  0.6439
  150SAPE  H11R16584   1.015   4.303   7.410  1.2191  0.7609  1.2485
  150SAPE  C21216585   0.943   4.266   7.607 -1.7453  0.0954  0.0294
  150SAPE  H12R16586   0.874   4.351   7.600  0.4819  1.9335 -0.0981
  150SAPE  C21316587   0.926   4.182   7.732  0.0521  0.0928  0.8074
  150SAPE  H13R16588   1.028   4.139   7.740  0.4321  0.6337 -1.0288
  150SAPE  H13S16589   0.864   4.091   7.714  1.0118 -0.5345  0.6426
  150SAPE  C21416590   0.888   4.245   7.859  0.1534  0.6442 -0.2780
  150SAPE  H14R16591   0.791   4.295   7.846  0.1908  1.5488  2.7070
  150SAPE  C21516592   0.934   4.216   7.981 -0.4025  0.2965  0.9611
  150SAPE  H15R16593   0.879   4.262   8.064 -1.6419  1.4253 -0.4344
  150SAPE  C21616594   1.057   4.141   8.023 -0.0218 -0.4351 -0.1804
  150SAPE  H16R16595   1.121   4.211   8.080 -1.1202  0.0312  0.5071
  150SAPE  H16S16596   1.113   4.113   7.931 -1.0712 -1.4040 -0.5441
  150SAPE  C21716597   1.034   4.016   8.108  0.4128  0.0126  0.0601
  150SAPE  H17R16598   1.127   3.956   8.122 -0.0362 -0.4121  1.3137
  150SAPE  H17S16599   0.957   3.953   8.058  0.4594 -1.5940  1.9239
  150SAPE  C21816600   0.975   4.036   8.253 -0.6722 -0.2580 -0.4827
  150SAPE  H18R16601   0.937   3.935   8.279  3.6899 -1.8576  0.0480
  150SAPE  H18S16602   0.888   4.104   8.244  1.9702  3.1916 -1.1931
  150SAPE  C21916603   1.083   4.061   8.350 -0.2429 -0.2081  0.2228
  150SAPE  H19R16604   1.133   4.159   8.340 -0.3799 -0.1447  0.1531
  150SAPE  H19S16605   1.152   3.976   8.335  0.0082  0.1222 -0.5031
  150SAPE  C22016606   1.036   4.050   8.496 -0.1584 -0.7213 -0.2295
  150SAPE  H20R16607   0.965   4.132   8.522  1.4775  1.3015 -1.9136
  150SAPE  H20S16608   1.125   4.066   8.559 -1.3180 -1.8963  1.7477
  150SAPE  H20T16609   0.987   3.952   8.513  2.5565 -1.7939  1.7531
  150SAPE   C3316610   1.851   3.265   7.057 -0.4033  0.1620  0.0162
  150SAPE   H3X16611   1.877   3.361   7.007 -1.2307  0.1045 -0.5224
  150SAPE   H3Y16612   1.933   3.220   7.118 -0.8805  1.0885  1.3635
  150SAPE   C3416613   1.748   3.297   7.168  0.5672 -0.2148  0.2453
  150SAPE   H4X16614   1.720   3.200   7.216 -1.2212 -0.6067 -1.5009
  150SAPE   H4Y16615   1.652   3.336   7.127  0.7867 -1.5450 -1.6198
  150SAPE   C3516616   1.797   3.393   7.284  0.1848 -0.3928  0.1804
  150SAPE   H5X16617   1.820   3.490   7.235  1.4212 -0.2693  0.9804
  150SAPE   H5Y16618   1.885   3.346   7.333  1.3645  1.3032 -0.2347
  150SAPE   C3616619   1.678   3.426   7.370  0.0601 -0.3919 -0.0606
  150SAPE   H6X16620   1.617   3.339   7.405  0.1253 -0.4728 -0.1463
  150SAPE   H6Y16621   1.606   3.490   7.315 -1.3285  0.5199  2.7245
  150SAPE   C3716622   1.720   3.498   7.507  0.3233  0.1825  0.0905
  150SAPE   H7X16623   1.753   3.600   7.479  1.1817 -1.0117 -3.5060
  150SAPE   H7Y16624   1.801   3.438   7.553  0.0388 -0.6217 -0.4376
  150SAPE   C3816625   1.598   3.516   7.600  0.1215  0.5023  0.1668
  150SAPE   H8X16626   1.574   3.417   7.644 -0.5051  1.1773  1.3659
  150SAPE   H8Y16627   1.510   3.561   7.549 -1.1739 -1.8982  0.2388
  150SAPE   C3916628   1.641   3.603   7.717 -0.0404 -0.3246  0.0452
  150SAPE   H9X16629   1.643   3.710   7.687 -0.0898 -0.4559 -0.4295
  150SAPE   H9Y16630   1.744   3.577   7.748  0.7849  3.0540  0.2555
  150SAPE  C31016631   1.548   3.589   7.835 -0.7287 -0.1476  0.2319
  150SAPE  H10X16632   1.547   3.480   7.858 -0.7951 -0.3278 -0.6207
  150SAPE  H10Y16633   1.446   3.618   7.803  0.4059  0.0261 -3.4164
  150SAPE  C31116634   1.580   3.674   7.958 -0.4244  0.0466  0.2403
  150SAPE  H11X16635   1.602   3.781   7.938 -0.8183  0.0551 -0.1713
  150SAPE  H11Y16636   1.670   3.629   8.006  3.8573  4.4339 -3.2048
  150SAPE  C31216637   1.463   3.679   8.058  0.7823  0.0010  0.1558
  150SAPE  H12X16638   1.441   3.571   8.073 -1.1309  0.4346  0.5301
  150SAPE  H12Y16639   1.369   3.727   8.024  2.1059  1.6643 -1.2308
  150SAPE  C31316640   1.502   3.732   8.195  0.0758 -0.0821  0.4155
  150SAPE  H13X16641   1.538   3.837   8.185  0.6278 -0.1991  1.1698
  150SAPE  H13Y16642   1.585   3.674   8.240  0.6613  0.2731 -0.1830
  150SAPE  C31416643   1.391   3.717   8.301  0.0795 -0.0645  0.4108
  150SAPE  H14X16644   1.366   3.611   8.322  0.6239 -0.3964 -0.6259
  150SAPE  H14Y16645   1.294   3.746   8.254 -1.3369 -2.2066  1.8837
  150SAPE  C31516646   1.429   3.795   8.431 -0.5190  0.2648 -0.1651
  150SAPE  H15X16647   1.346   3.814   8.502  0.0442 -0.0212  0.5789
  150SAPE  H15Y16648   1.480   3.887   8.394 -0.9137 -0.1526 -1.8265
  150SAPE  C31616649   1.534   3.716   8.514 -0.5563  0.0597  0.7102
  150SAPE  H16X16650   1.639   3.728   8.482 -0.6203  0.1055  0.5149
  150SAPE  H16Y16651   1.507   3.610   8.495 -0.5331  0.3216 -0.8626
  150SAPE  C31716652   1.528   3.730   8.666  0.0624  0.3046  0.1008
  150SAPE  H17X16653   1.602   3.654   8.697  0.4909  1.3278  1.6689
  150SAPE  H17Y16654   1.430   3.702   8.711  1.1097  0.2614  2.4763
  150SAPE  C31816655   1.566   3.864   8.721 -0.3555  0.0085  0.7600
  150SAPE  H18X16656   1.491   3.938   8.686 -2.7922 -2.1108  1.3128
  150SAPE  H18Y16657   1.666   3.884   8.678 -0.6473 -0.9848 -0.4219
  150SAPE  H18Z16658   1.573   3.855   8.831 -0.3267 -1.0087  0.6784
  151SAPE     N16659   3.663   0.660   6.546  0.8311  0.2593  0.2030
  151SAPE   HN116660   3.586   0.592   6.560  0.0868  0.8749 -0.8342
  151SAPE   HN216661   3.743   0.660   6.613  1.0995 -1.3820 -0.0868
  151SAPE   HN316662   3.624   0.757   6.548  1.1252  0.3835 -0.1195
  151SAPE   C1216663   3.711   0.641   6.406 -0.5133  0.0409 -0.0573
  151SAPE  H12A16664   3.621   0.632   6.341 -0.7201  1.7653 -0.0370
  151SAPE  H12B16665   3.771   0.547   6.399 -0.1406  0.2604  0.1703
  151SAPE   C1116666   3.813   0.749   6.355 -0.4081 -0.9584 -0.2185
  151SAPE  H11A16667   3.767   0.848   6.370 -1.4798 -1.5685  0.5698
  151SAPE  H11B16668   3.826   0.741   6.245  1.1411  2.7896 -0.3639
  151SAPE     P16669   4.056   0.652   6.410  0.7256  0.3281 -0.0958
  151SAPE   O1316670   4.094   0.601   6.545 -0.3036 -1.0260  0.1901
  151SAPE   O1416671   4.030   0.550   6.306  0.5964 -0.2811  0.0417
  151SAPE   O1216672   3.938   0.754   6.428  0.2639  0.1857  0.1186
  151SAPE   O1116673   4.171   0.753   6.357 -0.3232  0.4116  0.5473
  151SAPE    C116674   4.166   0.893   6.337 -0.1483  0.2021  0.5308
  151SAPE    HA16675   4.207   0.931   6.241 -1.9651  2.0475  0.4623
  151SAPE    HB16676   4.063   0.931   6.355 -0.5997 -0.8586  0.2410
  151SAPE    C216677   4.239   0.963   6.453 -0.9530  0.7276  0.0594
  151SAPE    HS16678   4.347   0.949   6.433 -0.6435  1.0749  1.4015
  151SAPE   O2116679   4.196   0.909   6.582  0.4942  0.0836 -0.6626
  151SAPE   C2116680   4.299   0.839   6.643 -0.0293 -0.7842  0.2480
  151SAPE   O2216681   4.415   0.837   6.607  0.3691  0.8687 -1.0649
  151SAPE   C2216682   4.244   0.790   6.777  0.1373  0.2860  0.2078
  151SAPE   H2R16683   4.158   0.854   6.804 -2.0756 -1.3050 -2.7947
  151SAPE   H2S16684   4.204   0.689   6.752 -2.3846  1.5832 -1.1563
  151SAPE    C316685   4.214   1.114   6.444  0.1639 -0.2146 -0.4380
  151SAPE    HX16686   4.110   1.147   6.467  0.0045 -1.2232  0.3101
  151SAPE    HY16687   4.228   1.148   6.339 -0.3648 -2.3456 -1.2117
  151SAPE   O3116688   4.323   1.172   6.527 -0.5041  0.4167 -1.1108
  151SAPE   C3116689   4.285   1.272   6.602  0.9449 -0.0170  0.3938
  151SAPE   O3216690   4.171   1.322   6.600  0.3719  0.0195 -0.1725
  151SAPE   C3216691   4.391   1.318   6.695 -0.4065  0.1469 -0.7100
  151SAPE   H2X16692   4.459   1.390   6.645  0.1674 -0.2701 -0.5359
  151SAPE   H2Y16693   4.453   1.227   6.713  1.7924  1.9504  1.2609
  151SAPE   C2316694   4.351   0.791   6.885 -0.3973  0.2548  0.3373
  151SAPE   H3R16695   4.377   0.898   6.901 -0.2894  0.2431  0.2324
  151SAPE   H3S16696   4.445   0.739   6.855 -1.3937 -0.5096 -1.5147
  151SAPE   C2416697   4.299   0.732   7.017  0.7299 -0.2907  0.1298
  151SAPE   H4R16698   4.294   0.621   7.014  2.7332 -0.3619 -1.6962
  151SAPE   H4S16699   4.196   0.774   7.021  1.4847  1.5773  0.8696
  151SAPE   C2516700   4.390   0.768   7.132 -0.2645  0.4910 -0.0554
  151SAPE   H5R16701   4.484   0.811   7.094  0.4548  0.8260  2.0354
  151SAPE   C2616702   4.349   0.763   7.263 -0.1175  0.0931 -0.0785
  151SAPE   H6R16703   4.426   0.778   7.340  0.3816 -0.9268 -0.3712
  151SAPE   C2716704   4.218   0.713   7.311 -0.1073 -0.4666  1.1318
  151SAPE   H7R16705   4.140   0.690   7.236  1.2007 -0.8450 -0.1253
  151SAPE   H7S16706   4.169   0.799   7.362 -1.2763  1.1453 -2.5287
  151SAPE   C2816707   4.238   0.595   7.399  0.0813 -0.3003  0.2478
  151SAPE   H8R16708   4.280   0.510   7.343  2.1845 -0.4538  1.9477
  151SAPE   C2916709   4.241   0.582   7.535 -0.1674  0.3757 -0.4103
  151SAPE   H9R16710   4.284   0.489   7.573 -1.0352  0.8051  1.7309
  151SAPE  C21016711   4.211   0.694   7.630 -0.3924 -0.2356  0.3202
  151SAPE  H10R16712   4.119   0.748   7.597 -0.7752 -2.0502 -1.7192
  151SAPE  H10S16713   4.289   0.773   7.626 -0.3451 -0.2115  1.6839
  151SAPE  C21116714   4.187   0.643   7.773 -0.2762 -0.2068  0.4631
  151SAPE  H11R16715   4.085   0.602   7.781 -0.6039  0.1710 -1.5551
  151SAPE  C21216716   4.274   0.642   7.880  0.5729  0.9892  0.0286
  151SAPE  H12R16717   4.235   0.593   7.969  0.1564 -0.7307 -1.0877
  151SAPE  C21316718   4.421   0.681   7.891  0.8658  0.0701  0.0547
  151SAPE  H13R16719   4.435   0.760   7.967  0.8804 -2.3358  2.6251
  151SAPE  H13S16720   4.446   0.727   7.793  0.2099 -0.5530 -0.4116
  151SAPE  C21416721   4.508   0.558   7.913 -0.4395 -0.0076  0.4728
  151SAPE  H14R16722   4.580   0.530   7.836  2.9981  1.5461  2.9779
  151SAPE  C21516723   4.511   0.491   8.030  0.2386 -0.3095 -0.1964
  151SAPE  H15R16724   4.578   0.406   8.048  1.1135  0.5594  0.6829
  151SAPE  C21616725   4.427   0.526   8.148 -0.4740 -0.3019 -0.4155
  151SAPE  H16R16726   4.345   0.452   8.162  0.1932 -1.0707 -0.5054
  151SAPE  H16S16727   4.388   0.629   8.138 -1.5829 -0.5284  1.2594
  151SAPE  C21716728   4.529   0.531   8.258 -0.3420  1.1913 -0.4454
  151SAPE  H17R16729   4.605   0.612   8.246  0.9631  0.1945  0.8665
  151SAPE  H17S16730   4.583   0.434   8.263 -0.1932  1.3014  0.1505
  151SAPE  C21816731   4.465   0.542   8.399 -1.2410  0.1599 -0.1162
  151SAPE  H18R16732   4.433   0.439   8.424 -0.7914 -0.6407 -2.6789
  151SAPE  H18S16733   4.374   0.606   8.390 -1.2237  0.1256 -0.5361
  151SAPE  C21916734   4.556   0.602   8.505  0.1835 -0.1487  0.4889
  151SAPE  H19R16735   4.510   0.646   8.596  0.8202 -1.9518  1.6878
  151SAPE  H19S16736   4.618   0.673   8.446 -1.4110  0.9859  0.1528
  151SAPE  C22016737   4.665   0.496   8.549  0.7631 -0.3809 -0.0160
  151SAPE  H20R16738   4.717   0.447   8.465  3.2721 -0.7104  1.6637
  151SAPE  H20S16739   4.741   0.546   8.613 -1.2146 -0.0452  2.1467
  151SAPE  H20T16740   4.612   0.416   8.606  0.0701  0.5836  0.7228
  151SAPE   C3316741   4.343   1.373   6.833  0.5286  1.0011 -0.2919
  151SAPE   H3X16742   4.279   1.463   6.824 -1.7404 -0.3706  1.4898
  151SAPE   H3Y16743   4.428   1.417   6.888 -1.0826  1.9467  1.5174
  151SAPE   C3416744   4.292   1.261   6.922  0.3908  0.5308 -0.6530
  151SAPE   H4X16745   4.378   1.193   6.935  0.4789  0.6869 -0.4230
  151SAPE   H4Y16746   4.211   1.200   6.877  1.6697  0.9052 -3.6169
  151SAPE   C3516747   4.246   1.304   7.053  0.0038 -0.1439 -0.1276
  151SAPE   H5X16748   4.155   1.362   7.027 -0.4266 -0.5698  0.4272
  151SAPE   H5Y16749   4.314   1.372   7.109 -0.0065  0.2772 -0.6318
  151SAPE   C3616750   4.213   1.183   7.146 -0.3938  0.5326  0.3104
  151SAPE   H6X16751   4.309   1.140   7.181 -0.3105  0.3163 -0.1824
  151SAPE   H6Y16752   4.151   1.106   7.095 -1.7929  1.6195  0.3316
  151SAPE   C3716753   4.131   1.220   7.269 -0.6063  0.2572  0.3304
  151SAPE   H7X16754   4.031   1.259   7.241 -0.5764  1.4979  1.8741
  151SAPE   H7Y16755   4.190   1.296   7.324  0.1203  0.3919 -0.6274
  151SAPE   C3816756   4.103   1.095   7.359 -0.5644  0.0904 -1.1629
  151SAPE   H8X16757   4.202   1.065   7.401 -1.1344  0.5957  0.6076
  151SAPE   H8Y16758   4.066   1.010   7.298 -1.6795  0.6983 -1.3454
  151SAPE   C3916759   4.008   1.137   7.473 -0.1252  0.4355 -0.2613
  151SAPE   H9X16760   3.917   1.189   7.438  1.0414  3.1333  0.5359
  151SAPE   H9Y16761   4.067   1.205   7.539 -0.4537 -0.0585  0.5390
  151SAPE  C31016762   3.991   1.023   7.564  0.4461  0.0428 -0.4156
  151SAPE  H10X16763   4.083   0.962   7.572 -0.1341 -0.7862  0.0702
  151SAPE  H10Y16764   3.910   0.955   7.527 -2.2897  1.3118  3.0077
  151SAPE  C31116765   3.952   1.055   7.706 -0.0837 -0.0655 -0.2099
  151SAPE  H11X16766   3.844   1.082   7.707  0.0508  0.5161 -0.9943
  151SAPE  H11Y16767   4.006   1.143   7.746  0.2197 -0.1661 -0.3926
  151SAPE  C31216768   3.976   0.936   7.795 -0.1983 -0.2418 -0.3114
  151SAPE  H12X16769   4.080   0.900   7.781 -0.2370 -1.2992  1.9113
  151SAPE  H12Y16770   3.904   0.856   7.769 -0.9527  0.6098 -0.8621
  151SAPE  C31316771   3.973   0.964   7.946 -0.5682  0.1638 -0.5455
  151SAPE  H13X16772   4.049   1.041   7.970 -0.0957 -0.4261 -0.1341
  151SAPE  H13Y16773   4.007   0.871   7.997  0.5205  1.4205  1.0623
  151SAPE  C31416774   3.841   1.018   8.007 -0.1375  0.2183  0.1791
  151SAPE  H14X16775   3.759   0.943   8.004 -1.2901  1.5206 -2.4970
  151SAPE  H14Y16776   3.806   1.108   7.953  0.5980  0.2407 -0.2678
  151SAPE  C31516777   3.846   1.050   8.160 -0.5790 -0.0009  0.7444
  151SAPE  H15X16778   3.753   1.097   8.198 -0.6469  0.5706 -0.0970
  151SAPE  H15Y16779   3.934   1.112   8.186  0.6552 -1.5599  0.3119
  151SAPE  C31616780   3.856   0.929   8.255 -0.2684  0.2356 -0.2889
  151SAPE  H16X16781   3.957   0.883   8.251  0.5606  2.1113 -1.8218
  151SAPE  H16Y16782   3.777   0.857   8.224 -3.5196  3.3225  0.5223
  151SAPE  C31716783   3.835   0.986   8.407 -0.6466  0.4010  1.1802
  151SAPE  H17X16784   3.726   1.004   8.415 -0.6028  1.0744  0.3691
  151SAPE  H17Y16785   3.895   1.078   8.426  0.2034  0.2298 -0.5766
  151SAPE  C31816786   3.852   0.878   8.511 -0.0447  0.5614  0.6384
  151SAPE  H18X16787   3.806   0.907   8.608 -2.5884 -2.4876  0.4127
  151SAPE  H18Y16788   3.960   0.859   8.526  0.3724  1.9029 -0.5148
  151SAPE  H18Z16789   3.788   0.793   8.479 -1.7150  0.2790  4.4378
  152SAPE     N16790   2.061   4.705   6.097 -0.5139 -0.3828  0.1652
  152SAPE   HN116791   2.160   4.719   6.069 -1.3059  4.4840 -0.6874
  152SAPE   HN216792   1.992   4.678   6.024 -0.1457 -1.2334  0.1239
  152SAPE   HN316793   2.043   4.794   6.148 -0.6308 -0.3422  0.0517
  152SAPE   C1216794   2.051   4.601   6.210  0.4451  0.3463  0.6816
  152SAPE  H12A16795   2.067   4.664   6.300  2.4001  1.8280 -0.6616
  152SAPE  H12B16796   2.130   4.524   6.195  0.6716  0.7066  0.0094
  152SAPE   C1116797   1.897   4.556   6.231 -0.6875  0.5170  0.2240
  152SAPE  H11A16798   1.907   4.491   6.320  0.1309  0.3702  0.0295
  152SAPE  H11B16799   1.852   4.493   6.150  1.7179 -1.5736  0.4560
  152SAPE     P16800   1.666   4.652   6.309  0.2359 -0.1748 -0.0095
  152SAPE   O1316801   1.633   4.781   6.374  0.2091 -0.2239 -0.4012
  152SAPE   O1416802   1.579   4.614   6.199 -1.0368 -0.0862  0.2136
  152SAPE   O1216803   1.814   4.668   6.258  0.6932  0.7542 -0.0198
  152SAPE   O1116804   1.684   4.541   6.420  0.1642 -0.0628  0.1783
  152SAPE    C116805   1.608   4.428   6.452 -0.2532  0.5646  0.6683
  152SAPE    HA16806   1.557   4.394   6.359  2.3595  2.2536 -1.4377
  152SAPE    HB16807   1.666   4.336   6.478 -0.2970  0.1686 -0.5890
  152SAPE    C216808   1.509   4.470   6.564  0.2762  0.5906 -0.4067
  152SAPE    HS16809   1.458   4.558   6.521  2.0937  1.1288 -1.4955
  152SAPE   O2116810   1.577   4.521   6.682  0.2217 -0.1966 -0.0639
  152SAPE   C2116811   1.514   4.611   6.753 -0.2169  0.9514  0.2867
  152SAPE   O2216812   1.414   4.669   6.723  0.5831 -0.1572  0.6988
  152SAPE   C2216813   1.612   4.636   6.875 -0.4660 -0.3474 -0.4123
  152SAPE   H2R16814   1.687   4.554   6.880  2.0192  1.8312 -0.5544
  152SAPE   H2S16815   1.672   4.722   6.837 -1.2386  1.0058  1.3760
  152SAPE    C316816   1.409   4.357   6.593  0.3956  0.5288  0.2613
  152SAPE    HX16817   1.483   4.276   6.608  0.7653  0.5049 -1.5238
  152SAPE    HY16818   1.352   4.333   6.501 -0.5129  3.1189  0.0996
  152SAPE   O3116819   1.321   4.383   6.700  0.4393  0.8123  0.4487
  152SAPE   C3116820   1.357   4.313   6.817 -0.1836  0.0637  0.8781
  152SAPE   O3216821   1.450   4.237   6.823 -0.4436 -0.4388 -0.3353
  152SAPE   C3216822   1.260   4.352   6.926 -0.1670  0.2282  0.1861
  152SAPE   H2X16823   1.164   4.300   6.909 -0.9180  1.4767  0.5968
  152SAPE   H2Y16824   1.249   4.463   6.920 -2.1032 -0.0491 -1.9887
  152SAPE   C2316825   1.544   4.680   7.003  0.2951 -0.1654  0.7576
  152SAPE   H3R16826   1.469   4.603   7.032 -0.2527  0.1393  0.1740
  152SAPE   H3S16827   1.490   4.776   6.985 -1.2622 -0.7447  2.2711
  152SAPE   C2416828   1.645   4.698   7.116  0.0542  0.3968 -0.7545
  152SAPE   H4R16829   1.721   4.777   7.095  0.0771  0.6515  0.2489
  152SAPE   H4S16830   1.702   4.606   7.138  0.7800  0.8896 -0.5469
  152SAPE   C2516831   1.560   4.745   7.233 -0.3258  0.0794 -0.2623
  152SAPE   H5R16832   1.466   4.689   7.241 -1.2452  1.3660 -1.7374
  152SAPE   C2616833   1.598   4.830   7.341  0.2490 -0.1039  0.6506
  152SAPE   H6R16834   1.522   4.848   7.418  0.6008  0.2902  0.9068
  152SAPE   C2716835   1.734   4.900   7.356 -0.5889  0.1893 -0.6297
  152SAPE   H7R16836   1.758   4.938   7.255 -1.4124 -1.1987 -1.3687
  152SAPE   H7S16837   1.802   4.817   7.386  0.0351  1.0061  0.2284
  152SAPE   C2816838   1.732   5.017   7.457  0.5556  0.1518 -0.9071
  152SAPE   H8R16839   1.713   5.119   7.420  2.3846  1.2131  0.9905
  152SAPE   C2916840   1.772   5.014   7.586 -0.8056  0.1201 -0.0380
  152SAPE   H9R16841   1.775   5.107   7.645 -0.7722 -1.1528  2.0228
  152SAPE  C21016842   1.814   4.885   7.660 -0.0051 -0.1669 -0.1897
  152SAPE  H10R16843   1.801   4.795   7.597 -0.0714  0.5394 -1.1980
  152SAPE  H10S16844   1.753   4.873   7.752  0.3135 -1.3977 -0.1366
  152SAPE  C21116845   1.958   4.915   7.697  0.8456  0.9009  0.0104
  152SAPE  H11R16846   2.017   4.941   7.608  3.7547  4.1423  2.7063
  152SAPE  C21216847   2.010   4.908   7.827  0.2968 -0.0292 -0.3713
  152SAPE  H12R16848   2.119   4.906   7.842  0.3507  1.0402 -0.5558
  152SAPE  C21316849   1.941   4.872   7.954  0.0978 -0.4649 -0.7547
  152SAPE  H13R16850   1.842   4.918   7.977  0.1263 -0.6378 -0.2725
  152SAPE  H13S16851   1.999   4.914   8.039 -0.4252 -0.5619 -0.3459
  152SAPE  C21416852   1.933   4.722   7.974 -0.1588  0.0306  0.3299
  152SAPE  H14R16853   1.962   4.665   7.884  0.0192 -1.2859  1.2090
  152SAPE  C21516854   1.887   4.663   8.086  0.4991 -0.4041 -0.7675
  152SAPE  H15R16855   1.890   4.554   8.095 -1.0898 -0.7658 -3.7059
  152SAPE  C21616856   1.823   4.714   8.209 -0.2294 -0.6297  0.3218
  152SAPE  H16R16857   1.733   4.650   8.219 -1.7826  1.1224 -2.1005
  152SAPE  H16S16858   1.804   4.821   8.191  1.7416 -0.5807 -1.7714
  152SAPE  C21716859   1.912   4.704   8.338 -0.3097 -0.1345  0.0343
  152SAPE  H17R16860   1.981   4.790   8.347  1.3657 -1.3827 -0.5448
  152SAPE  H17S16861   1.975   4.613   8.324  0.6948  0.5188  0.2930
  152SAPE  C21816862   1.841   4.678   8.465 -0.1895 -0.7411 -1.0351
  152SAPE  H18R16863   1.767   4.599   8.441 -1.4253  0.3882 -0.9908
  152SAPE  H18S16864   1.784   4.768   8.497 -0.1618 -1.1903  0.2851
  152SAPE  C21916865   1.931   4.631   8.578  0.3229 -0.2822 -0.6754
  152SAPE  H19R16866   1.986   4.723   8.607  1.2443 -1.5123  1.5662
  152SAPE  H19S16867   1.998   4.549   8.545 -0.0117 -0.9064  0.1912
  152SAPE  C22016868   1.860   4.598   8.718  0.2479 -0.3217  0.1086
  152SAPE  H20R16869   1.928   4.572   8.802  2.4291 -0.7063 -1.7388
  152SAPE  H20S16870   1.776   4.525   8.712 -0.1214  0.1846 -0.9870
  152SAPE  H20T16871   1.807   4.686   8.759 -3.1606 -1.2768 -2.0759
  152SAPE   C3316872   1.316   4.338   7.073 -0.5072  0.3580 -0.2512
  152SAPE   H3X16873   1.425   4.359   7.074 -0.6704  1.1735  0.6940
  152SAPE   H3Y16874   1.312   4.232   7.108  0.8123  1.3026  2.9013
  152SAPE   C3416875   1.268   4.435   7.173  0.5717  0.3229  0.0895
  152SAPE   H4X16876   1.163   4.413   7.202  0.5874 -1.0356 -0.8556
  152SAPE   H4Y16877   1.261   4.537   7.128 -0.8589 -0.8249 -2.3757
  152SAPE   C3516878   1.338   4.439   7.307 -0.2875 -0.2185 -0.5009
  152SAPE   H5X16879   1.446   4.458   7.292 -0.2731  0.1155  0.0246
  152SAPE   H5Y16880   1.321   4.341   7.357  1.4175 -1.7738 -2.8122
  152SAPE   C3616881   1.275   4.537   7.404 -0.2962  0.5917  0.3135
  152SAPE   H6X16882   1.169   4.503   7.411  0.2448 -1.6494 -1.6587
  152SAPE   H6Y16883   1.280   4.635   7.352  2.7023  1.1662  1.6323
  152SAPE   C3716884   1.343   4.550   7.544 -0.1707  0.3536  0.4380
  152SAPE   H7X16885   1.448   4.587   7.544 -0.3917  1.0081  0.9505
  152SAPE   H7Y16886   1.327   4.453   7.595 -0.1985 -1.4148 -2.8123
  152SAPE   C3816887   1.264   4.653   7.629 -0.0947  0.2432  0.1082
  152SAPE   H8X16888   1.166   4.602   7.645 -0.7048  0.9892 -1.1516
  152SAPE   H8Y16889   1.264   4.740   7.560 -0.1913  0.0956 -0.0785
  152SAPE   C3916890   1.330   4.682   7.767  0.4781  0.6023  0.1103
  152SAPE   H9X16891   1.290   4.779   7.804 -0.6830  0.3284 -0.4241
  152SAPE   H9Y16892   1.439   4.703   7.770  0.3504  1.0691  2.8971
  152SAPE  C31016893   1.301   4.573   7.870 -0.1000 -0.5004 -0.1987
  152SAPE  H10X16894   1.368   4.586   7.958 -1.9426 -0.0128  1.1626
  152SAPE  H10Y16895   1.341   4.476   7.832  1.5092  0.8749 -2.1202
  152SAPE  C31116896   1.158   4.583   7.922 -0.5379 -0.0143 -0.7419
  152SAPE  H11X16897   1.079   4.544   7.854 -0.8810 -0.6042  0.0026
  152SAPE  H11Y16898   1.131   4.687   7.953  1.3005  0.4766 -0.6987
  152SAPE  C31216899   1.143   4.519   8.064  0.6309  0.4231  0.5916
  152SAPE  H12X16900   1.228   4.563   8.120  0.3077  1.8091  0.0105
  152SAPE  H12Y16901   1.155   4.408   8.062  0.3349  0.3955  0.2515
  152SAPE  C31316902   1.004   4.549   8.127  0.3519  0.3002 -0.0814
  152SAPE  H13X16903   0.929   4.517   8.052 -4.0863  3.7384  2.6291
  152SAPE  H13Y16904   1.002   4.656   8.156  2.2820 -0.1950  2.0836
  152SAPE  C31416905   0.968   4.468   8.252 -0.2105 -0.1934  0.3083
  152SAPE  H14X16906   1.051   4.467   8.325  1.4868  3.5073 -1.4567
  152SAPE  H14Y16907   0.942   4.361   8.238  0.0584 -0.3654  1.0933
  152SAPE  C31516908   0.855   4.545   8.325 -0.6411 -0.5154  0.3835
  152SAPE  H15X16909   0.771   4.549   8.252  0.1273 -0.0777 -0.5018
  152SAPE  H15Y16910   0.881   4.652   8.335 -1.7551  0.3007 -4.2552
  152SAPE  C31616911   0.800   4.481   8.460  0.3507 -0.2415 -0.1421
  152SAPE  H16X16912   0.886   4.458   8.528 -2.2312 -1.3660  2.8880
  152SAPE  H16Y16913   0.762   4.378   8.444 -0.3153 -0.0434  0.1757
  152SAPE  C31716914   0.689   4.564   8.522 -0.3341  0.2710 -0.2990
  152SAPE  H17X16915   0.618   4.588   8.440 -2.0489 -0.1556  1.0424
  152SAPE  H17Y16916   0.711   4.669   8.551 -2.7724  0.0760  2.4641
  152SAPE  C31816917   0.609   4.501   8.631 -0.0013 -0.5141  0.3279
  152SAPE  H18X16918   0.666   4.483   8.725  1.1088 -3.9502 -0.8992
  152SAPE  H18Y16919   0.566   4.409   8.586  0.9702  0.3049 -2.3397
  152SAPE  H18Z16920   0.530   4.573   8.660  0.6038  0.9233 -1.4981
  153SAPE     N16921   4.858   5.247   6.139  0.5553 -0.2746  0.4567
  153SAPE   HN116922   4.789   5.170   6.128 -0.2081  0.2462  1.4841
  153SAPE   HN216923   4.800   5.329   6.114  1.2120 -0.4237 -1.6193
  153SAPE   HN316924   4.927   5.234   6.062  1.1054  1.2522  0.6814
  153SAPE   C1216925   4.931   5.263   6.264 -0.5922 -0.4078 -0.6502
  153SAPE  H12A16926   4.983   5.359   6.280 -0.3045 -0.9237  1.5627
  153SAPE  H12B16927   5.010   5.185   6.256 -0.1854  0.0356 -1.0115
  153SAPE   C1116928   4.846   5.234   6.390 -1.0357 -0.1924 -0.6494
  153SAPE  H11A16929   4.921   5.227   6.472 -0.0338  0.3920 -1.4979
  153SAPE  H11B16930   4.797   5.134   6.390 -2.0987  0.3165  0.9621
  153SAPE     P16931   4.786   5.477   6.475 -0.3884  0.2759  0.4731
  153SAPE   O1316932   4.898   5.528   6.389 -0.0445 -0.1221  0.1620
  153SAPE   O1416933   4.662   5.561   6.478 -0.4152  0.4582 -0.3153
  153SAPE   O1216934   4.752   5.333   6.423 -0.0835  0.0077 -0.3062
  153SAPE   O1116935   4.847   5.450   6.620  0.4664  0.5938 -0.2403
  153SAPE    C116936   4.791   5.341   6.695 -0.0810 -0.3496 -0.7317
  153SAPE    HA16937   4.737   5.260   6.642 -0.5594  0.1079 -0.9346
  153SAPE    HB16938   4.883   5.289   6.729 -0.1198  0.1111  0.0887
  153SAPE    C216939   4.709   5.390   6.815 -0.2652  0.4968  0.3782
  153SAPE    HS16940   4.772   5.466   6.866  0.6910  1.3025 -1.9398
  153SAPE   O2116941   4.684   5.276   6.905 -0.3630  0.5360 -0.0585
  153SAPE   C2116942   4.781   5.242   6.995  0.0180  0.0602  0.1718
  153SAPE   O2216943   4.895   5.276   6.982 -0.9786  0.1345 -0.1951
  153SAPE   C2216944   4.736   5.145   7.104  0.5562  0.8668 -0.1511
  153SAPE   H2R16945   4.625   5.156   7.107  0.7803  3.0855  1.0616
  153SAPE   H2S16946   4.752   5.042   7.066  2.1291  1.3170 -0.7017
  153SAPE    C316947   4.574   5.464   6.776  0.9465  0.1586  0.2025
  153SAPE    HX16948   4.522   5.403   6.699  0.3726  1.2268 -0.2651
  153SAPE    HY16949   4.616   5.552   6.722  0.7676 -0.3228 -0.7223
  153SAPE   O3116950   4.490   5.497   6.890  0.4765 -0.1535  0.1275
  153SAPE   C3116951   4.415   5.400   6.942  0.0112  0.0105 -0.4019
  153SAPE   O3216952   4.398   5.290   6.891  0.0984 -0.3295  0.4051
  153SAPE   C3216953   4.364   5.458   7.074  0.6217 -0.5257  0.2592
  153SAPE   H2X16954   4.326   5.560   7.051  0.1688 -0.5536  0.8586
  153SAPE   H2Y16955   4.448   5.464   7.147  0.2032 -0.0272  0.7093
  153SAPE   C2316956   4.797   5.172   7.242 -0.1590 -0.3947  0.3962
  153SAPE   H3R16957   4.771   5.274   7.276  0.8456 -0.8127  2.5044
  153SAPE   H3S16958   4.908   5.167   7.241 -0.1243  0.1331  1.0411
  153SAPE   C2416959   4.739   5.079   7.344  0.1484  0.7908 -0.1159
  153SAPE   H4R16960   4.770   4.974   7.326 -1.2508  0.2481  0.5992
  153SAPE   H4S16961   4.628   5.082   7.340  0.0997  1.1735  1.4132
  153SAPE   C2516962   4.783   5.125   7.480  0.0774  0.1809  0.0862
  153SAPE   H5R16963   4.870   5.191   7.478 -0.6958  1.2445  1.0863
  153SAPE   C2616964   4.713   5.113   7.598 -0.0942 -0.0784  0.3045
  153SAPE   H6R16965   4.759   5.148   7.691  2.4437  0.1881 -1.0320
  153SAPE   C2716966   4.574   5.043   7.606  0.7091 -0.4531  0.5125
  153SAPE   H7R16967   4.576   4.964   7.528  1.6671  1.1349 -1.1192
  153SAPE   H7S16968   4.497   5.121   7.587  1.7391  0.7665  1.2767
  153SAPE   C2816969   4.536   4.981   7.735 -0.5915 -0.0699  0.3741
  153SAPE   H8R16970   4.571   4.878   7.753  2.1094  0.8525  0.7511
  153SAPE   C2916971   4.466   5.043   7.833  0.2808  0.3852  0.7277
  153SAPE   H9R16972   4.454   4.989   7.928 -1.6012  1.4040  1.1060
  153SAPE  C21016973   4.412   5.183   7.834 -0.8246 -0.4703 -0.3772
  153SAPE  H10R16974   4.484   5.254   7.788  0.0380  0.6510  2.5690
  153SAPE  H10S16975   4.403   5.212   7.941  1.3414 -1.2838  0.0562
  153SAPE  C21116976   4.274   5.178   7.774 -0.4273 -0.5407  0.5397
  153SAPE  H11R16977   4.227   5.081   7.753  0.7208 -1.0842  0.4937
  153SAPE  C21216978   4.208   5.293   7.750 -0.8960  0.2233 -0.1338
  153SAPE  H12R16979   4.115   5.283   7.692 -0.8966  1.5637 -0.3885
  153SAPE  C21316980   4.255   5.425   7.787  0.1058  0.1839 -0.0146
  153SAPE  H13R16981   4.318   5.482   7.714 -0.7246  0.1561 -0.7624
  153SAPE  H13S16982   4.314   5.423   7.881 -1.7033 -0.1958  1.1353
  153SAPE  C21416983   4.142   5.526   7.823  0.5380  0.0219  0.3789
  153SAPE  H14R16984   4.112   5.599   7.747 -0.4187 -1.3328 -0.5739
  153SAPE  C21516985   4.072   5.521   7.937 -0.2731  0.5791 -0.6934
  153SAPE  H15R16986   3.986   5.587   7.951 -0.3727  0.5404 -1.1150
  153SAPE  C21616987   4.103   5.427   8.053 -0.6649  0.2229 -0.5109
  153SAPE  H16R16988   4.150   5.332   8.022  1.9486  2.0730 -2.4073
  153SAPE  H16S16989   4.004   5.394   8.092 -0.5397  0.6562  0.2007
  153SAPE  C21716990   4.185   5.490   8.173 -0.2760 -0.0138 -0.1061
  153SAPE  H17R16991   4.127   5.573   8.217 -0.1456  0.0071  0.0257
  153SAPE  H17S16992   4.287   5.525   8.147 -0.6670  0.6275 -0.7998
  153SAPE  C21816993   4.205   5.390   8.285  0.0612  0.0408 -1.0213
  153SAPE  H18R16994   4.110   5.332   8.279 -0.3896  0.7481 -0.8526
  153SAPE  H18S16995   4.218   5.445   8.380  3.8984 -1.7171 -0.4642
  153SAPE  C21916996   4.322   5.291   8.285  0.4675  0.1500 -0.1143
  153SAPE  H19R16997   4.419   5.344   8.285 -0.0916  1.1940 -1.5772
  153SAPE  H19S16998   4.327   5.248   8.183  0.9677 -1.7402  0.6803
  153SAPE  C22016999   4.320   5.176   8.382  0.2343  0.7413 -0.4525
  153SAPE  H20R17000   4.419   5.125   8.387 -1.0195 -1.9434 -1.4680
  153SAPE  H20S17001   4.249   5.101   8.340 -1.8556  2.8370 -0.7520
  153SAPE  H20T17002   4.281   5.204   8.481  2.5826 -0.3647  0.8280
  153SAPE   C3317003   4.251   5.373   7.144  0.4074  0.3685  0.4580
  153SAPE   H3X17004   4.300   5.281   7.182 -0.9281  0.5439  2.6848
  153SAPE   H3Y17005   4.168   5.342   7.077 -0.2718 -0.7512  1.7978
  153SAPE   C3417006   4.189   5.446   7.265 -0.1740  0.5925 -0.3323
  153SAPE   H4X17007   4.152   5.549   7.247 -0.6818  0.6382  0.8916
  153SAPE   H4Y17008   4.259   5.451   7.351 -3.1644 -1.2306  2.2939
  153SAPE   C3517009   4.077   5.356   7.322  0.0253  0.5424  0.2296
  153SAPE   H5X17010   4.127   5.264   7.359 -2.1806 -1.6942 -2.0679
  153SAPE   H5Y17011   4.015   5.324   7.235 -1.2994 -0.0403  1.3662
  153SAPE   C3617012   3.995   5.430   7.422  0.5020 -0.7072 -0.4492
  153SAPE   H6X17013   3.943   5.512   7.368  3.2522  1.7030  0.4104
  153SAPE   H6Y17014   4.066   5.481   7.492 -0.7690 -1.1050  1.1700
  153SAPE   C3717015   3.901   5.347   7.507  0.5258 -0.4228  0.2236
  153SAPE   H7X17016   3.952   5.259   7.551 -2.6035 -1.3775  2.1370
  153SAPE   H7Y17017   3.824   5.307   7.437  1.1281 -0.9664 -0.1289
  153SAPE   C3817018   3.827   5.431   7.619 -0.0409  0.7420 -0.0026
  153SAPE   H8X17019   3.767   5.512   7.572  1.1359  1.6445  0.0155
  153SAPE   H8Y17020   3.898   5.479   7.690  1.7958 -0.4737 -0.9845
  153SAPE   C3917021   3.737   5.340   7.701 -0.5242 -0.1034 -0.1995
  153SAPE   H9X17022   3.680   5.273   7.633  0.6167  0.5085 -1.7753
  153SAPE   H9Y17023   3.658   5.405   7.745 -1.5611 -1.6057  0.2202
  153SAPE  C31017024   3.832   5.269   7.802  0.5635  0.4304 -0.5723
  153SAPE  H10X17025   3.880   5.339   7.873  0.4475  1.2170 -1.2587
  153SAPE  H10Y17026   3.905   5.208   7.746  2.1645  2.0066 -0.2441
  153SAPE  C31117027   3.744   5.185   7.896  0.8491  0.8519 -0.7183
  153SAPE  H11X17028   3.688   5.111   7.834 -0.8525  1.3453  0.2145
  153SAPE  H11Y17029   3.668   5.247   7.947  1.9162  1.1518  0.5241
  153SAPE  C31217030   3.820   5.114   8.009 -0.0773 -0.9585 -0.3343
  153SAPE  H12X17031   3.864   5.182   8.084 -2.3924 -1.6353  1.6946
  153SAPE  H12Y17032   3.896   5.042   7.972  0.6366 -1.9481  2.9442
  153SAPE  C31317033   3.702   5.032   8.087  0.0513 -0.6356  0.1809
  153SAPE  H13X17034   3.631   4.997   8.009  1.1947  0.5975 -1.4344
  153SAPE  H13Y17035   3.636   5.086   8.158  0.9479 -0.4773  0.9032
  153SAPE  C31417036   3.761   4.915   8.165  0.3347 -0.1246 -0.0221
  153SAPE  H14X17037   3.821   4.845   8.103 -0.4437 -0.5656 -0.2920
  153SAPE  H14Y17038   3.674   4.863   8.212  1.3129 -1.9976 -0.2368
  153SAPE  C31517039   3.826   4.967   8.292 -0.0426  0.0276 -0.1602
  153SAPE  H15X17040   3.765   5.044   8.344  0.3070 -0.3146  0.7609
  153SAPE  H15Y17041   3.917   5.022   8.260 -1.2884  1.6515 -1.0290
  153SAPE  C31617042   3.864   4.867   8.396  0.1334 -0.1077 -0.7268
  153SAPE  H16X17043   3.775   4.812   8.434 -0.8542  0.5037 -2.0970
  153SAPE  H16Y17044   3.912   4.922   8.480 -0.8443  0.4198 -0.4928
  153SAPE  C31717045   3.963   4.764   8.338  0.1557  0.3811 -0.4403
  153SAPE  H17X17046   4.047   4.828   8.302  0.4186  0.3510  0.1059
  153SAPE  H17Y17047   3.924   4.719   8.244  1.2206  1.3890 -1.3879
  153SAPE  C31817048   4.014   4.663   8.439 -0.0111 -0.7009 -0.8443
  153SAPE  H18X17049   4.047   4.722   8.528 -1.2484  2.8161 -2.6198
  153SAPE  H18Y17050   4.104   4.618   8.392  1.3205  1.8717 -0.9004
  153SAPE  H18Z17051   3.931   4.594   8.464  0.6215 -0.4561  2.2614
  154SAPE     N17052   2.278   3.332   5.984  0.7282  0.0842  0.7089
  154SAPE   HN117053   2.243   3.344   6.081 -2.3869  3.1948 -0.6523
  154SAPE   HN217054   2.200   3.362   5.921  0.6928  0.4174  0.9087
  154SAPE   HN317055   2.298   3.233   5.961 -2.0502 -0.4062  0.1815
  154SAPE   C1217056   2.405   3.409   5.977 -0.6644  0.3717 -0.8005
  154SAPE  H12A17057   2.465   3.372   5.891  1.2341  0.5042  0.4392
  154SAPE  H12B17058   2.471   3.393   6.065  1.0680  1.0762 -1.9312
  154SAPE   C1117059   2.394   3.561   5.976  1.1219 -0.3794 -0.1620
  154SAPE  H11A17060   2.339   3.592   5.885  1.3992  3.5620  0.9196
  154SAPE  H11B17061   2.488   3.618   5.964 -0.0642  1.3703 -1.3189
  154SAPE     P17062   2.334   3.746   6.142  0.4378 -0.2588  0.3226
  154SAPE   O1317063   2.481   3.755   6.179 -0.3413  0.0133 -0.0886
  154SAPE   O1417064   2.287   3.849   6.052 -0.1515 -0.3040 -0.0619
  154SAPE   O1217065   2.307   3.607   6.083 -0.0147 -0.0493 -0.0184
  154SAPE   O1117066   2.243   3.746   6.271 -0.3676  0.0982 -0.0760
  154SAPE    C117067   2.184   3.861   6.329 -0.6596 -0.6870 -0.0343
  154SAPE    HA17068   2.200   3.956   6.275  0.7120  0.5428  2.4481
  154SAPE    HB17069   2.076   3.837   6.326 -0.6566 -0.5399 -1.6471
  154SAPE    C217070   2.219   3.888   6.479 -0.5353 -0.3694 -0.3625
  154SAPE    HS17071   2.179   3.986   6.512  1.4420  0.7902 -1.2944
  154SAPE   O2117072   2.355   3.896   6.504 -0.5986 -0.4458  0.2097
  154SAPE   C2117073   2.404   4.010   6.460 -0.4866  0.1985 -1.4701
  154SAPE   O2217074   2.348   4.100   6.407  0.3083 -0.2534 -1.0922
  154SAPE   C2217075   2.556   3.993   6.478  0.2940  0.9868 -0.2799
  154SAPE   H2R17076   2.568   3.914   6.556 -2.7237  0.5186 -0.2108
  154SAPE   H2S17077   2.600   3.952   6.384  0.1442  0.6844 -0.2182
  154SAPE    C317078   2.170   3.768   6.569 -0.7050 -0.6290  0.3127
  154SAPE    HX17079   2.239   3.682   6.557  0.1490  0.3138 -1.8543
  154SAPE    HY17080   2.074   3.738   6.522 -1.7249  1.5275  0.9488
  154SAPE   O3117081   2.173   3.801   6.711  0.8900  0.0371  0.0986
  154SAPE   C3117082   2.060   3.811   6.767 -0.3030 -0.6161  0.0541
  154SAPE   O3217083   1.950   3.809   6.714  0.5471 -0.1753  0.5743
  154SAPE   C3217084   2.091   3.820   6.911  0.3242 -0.3177 -0.3317
  154SAPE   H2X17085   2.154   3.908   6.934  1.0344 -0.9364  0.1295
  154SAPE   H2Y17086   2.140   3.728   6.949  3.7856  1.0945 -1.1604
  154SAPE   C2317087   2.630   4.123   6.517  0.3096  0.2721  0.1270
  154SAPE   H3R17088   2.572   4.191   6.583  0.7973  2.0025 -1.1812
  154SAPE   H3S17089   2.646   4.176   6.421 -0.4951  0.6574  0.2047
  154SAPE   C2417090   2.761   4.095   6.590  0.1682 -0.5910 -0.0851
  154SAPE   H4R17091   2.807   4.197   6.595 -1.0069 -0.0696  0.1731
  154SAPE   H4S17092   2.814   4.031   6.517 -0.3945  0.0805 -1.0994
  154SAPE   C2517093   2.734   4.031   6.725 -0.6749  0.4267 -0.3113
  154SAPE   H5R17094   2.663   4.090   6.785 -1.5636  0.2325 -1.1603
  154SAPE   C2617095   2.785   3.915   6.770 -0.7107  0.2960 -0.0822
  154SAPE   H6R17096   2.762   3.882   6.872  0.2239 -1.8626 -0.5236
  154SAPE   C2717097   2.884   3.830   6.684  0.3425 -0.5596  0.8594
  154SAPE   H7R17098   2.980   3.862   6.729  0.1561  0.1457  0.7646
  154SAPE   H7S17099   2.889   3.868   6.580  3.5263 -0.1290  1.1304
  154SAPE   C2817100   2.890   3.682   6.692 -0.2814  0.5062 -0.8310
  154SAPE   H8R17101   2.876   3.623   6.600 -2.8111 -0.4264  0.1077
  154SAPE   C2917102   2.909   3.605   6.801 -0.0288  0.5600 -0.0611
  154SAPE   H9R17103   2.922   3.497   6.785  2.2719  0.5647  1.4342
  154SAPE  C21017104   2.941   3.654   6.939  0.2202 -0.4074  0.1499
  154SAPE  H10R17105   2.847   3.663   6.997  0.0279 -0.6756 -0.1124
  154SAPE  H10S17106   2.971   3.760   6.937 -1.2464  0.0145 -0.7695
  154SAPE  C21117107   3.047   3.572   7.011  0.4673 -0.4330  0.0098
  154SAPE  H11R17108   3.118   3.516   6.949  1.9829  0.9324  0.4901
  154SAPE  C21217109   3.063   3.567   7.143 -0.8749  0.2841 -0.9301
  154SAPE  H12R17110   3.146   3.507   7.184 -2.0187  0.7621  2.2261
  154SAPE  C21317111   2.981   3.642   7.242  0.2984  0.7970 -0.0338
  154SAPE  H13R17112   2.898   3.575   7.272  0.6271  0.6023  0.4586
  154SAPE  H13S17113   2.925   3.727   7.197 -0.5670  0.6691  0.7845
  154SAPE  C21417114   3.047   3.705   7.355 -0.1687 -0.9665  0.3552
  154SAPE  H14R17115   3.117   3.784   7.325  2.7658 -3.7460 -0.4483
  154SAPE  C21517116   3.046   3.690   7.492  0.2004 -0.0983  0.5410
  154SAPE  H15R17117   3.097   3.764   7.555 -1.3924  0.6377  1.0065
  154SAPE  C21617118   2.966   3.584   7.563 -0.1780 -0.5510 -0.1722
  154SAPE  H16R17119   2.961   3.486   7.512  1.4792  0.3355 -2.1276
  154SAPE  H16S17120   2.858   3.610   7.571  0.1035  0.1468  1.4557
  154SAPE  C21717121   3.015   3.566   7.707 -0.4874  0.0752  0.2444
  154SAPE  H17R17122   3.122   3.535   7.708 -0.4488  0.1447 -1.0016
  154SAPE  H17S17123   2.960   3.482   7.754  0.8198  0.4589  2.5116
  154SAPE  C21817124   3.010   3.701   7.788 -0.7893 -0.2005  0.4833
  154SAPE  H18R17125   2.942   3.776   7.742  2.5144  2.4921 -0.1724
  154SAPE  H18S17126   3.110   3.747   7.780 -0.6002 -0.7391 -0.2317
  154SAPE  C21917127   2.968   3.667   7.936  0.2943 -0.7404  0.0287
  154SAPE  H19R17128   2.859   3.648   7.944  0.8190 -3.2654  2.1523
  154SAPE  H19S17129   2.975   3.757   8.000  0.4095 -0.8398  0.1581
  154SAPE  C22017130   3.049   3.553   8.008 -0.4011 -0.0213  0.0890
  154SAPE  H20R17131   3.023   3.546   8.116 -0.7175  1.4506  0.1159
  154SAPE  H20S17132   3.156   3.585   8.006 -0.4856  0.3284  0.7956
  154SAPE  H20T17133   3.033   3.459   7.952  0.1965 -0.5278  0.7471
  154SAPE   C3317134   1.967   3.847   7.001  0.1063 -0.7638  0.0291
  154SAPE   H3X17135   1.891   3.771   6.974  1.7039 -1.4054 -2.8646
  154SAPE   H3Y17136   1.927   3.949   6.986  0.1906 -0.7390 -0.0256
  154SAPE   C3417137   2.000   3.844   7.154 -0.3368 -0.5778  0.0310
  154SAPE   H4X17138   1.902   3.875   7.196 -0.3342 -0.1899 -0.2458
  154SAPE   H4Y17139   2.065   3.931   7.175 -0.6468  0.0825 -1.6207
  154SAPE   C3517140   2.025   3.707   7.216  0.4509  0.0262  0.4171
  154SAPE   H5X17141   2.132   3.691   7.190  0.6764 -0.3316  1.5259
  154SAPE   H5Y17142   1.964   3.635   7.158 -1.2236  0.5077  1.5486
  154SAPE   C3617143   2.012   3.699   7.367 -0.1978 -0.3280  1.0769
  154SAPE   H6X17144   2.029   3.595   7.401  0.8712 -0.8046 -0.8621
  154SAPE   H6Y17145   1.913   3.736   7.401 -0.6068 -0.7396  0.3418
  154SAPE   C3717146   2.125   3.766   7.447 -0.7592  0.3375 -0.1275
  154SAPE   H7X17147   2.112   3.873   7.423  1.3476  0.8776  1.0717
  154SAPE   H7Y17148   2.212   3.728   7.389 -2.5780 -1.0729 -2.0493
  154SAPE   C3817149   2.121   3.736   7.597 -0.7194  0.4944  0.3689
  154SAPE   H8X17150   2.224   3.754   7.633 -1.5401  0.8313  2.6000
  154SAPE   H8Y17151   2.097   3.627   7.603  0.1146  0.3044  0.3061
  154SAPE   C3917152   2.018   3.818   7.664 -0.2639  0.2856  0.0441
  154SAPE   H9X17153   1.920   3.799   7.616 -1.0613  2.1721  0.8948
  154SAPE   H9Y17154   2.043   3.926   7.668 -1.3753  0.6063 -1.3556
  154SAPE  C31017155   1.980   3.774   7.809  0.3053  0.0998  0.2990
  154SAPE  H10X17156   1.910   3.688   7.801  0.2859  0.0926  0.5246
  154SAPE  H10Y17157   1.928   3.850   7.872 -0.3165 -0.8321  0.9165
  154SAPE  C31117158   2.100   3.743   7.897  0.8311 -0.6084  0.0430
  154SAPE  H11X17159   2.169   3.830   7.892 -0.2268  0.4865  3.4733
  154SAPE  H11Y17160   2.157   3.654   7.861  0.4323 -1.0258  0.4365
  154SAPE  C31217161   2.070   3.722   8.045  0.6895  0.5548  0.0155
  154SAPE  H12X17162   2.167   3.694   8.093  0.7784 -0.3046 -0.6557
  154SAPE  H12Y17163   2.002   3.636   8.059  0.3459  0.8244  0.0111
  154SAPE  C31317164   2.018   3.850   8.121  0.1344 -0.3624 -0.4679
  154SAPE  H13X17165   1.911   3.863   8.097 -0.1213 -1.1019  0.2412
  154SAPE  H13Y17166   2.075   3.937   8.081  0.5505 -1.0149 -1.2985
  154SAPE  C31417167   2.033   3.858   8.273  0.1852 -0.1106  0.3489
  154SAPE  H14X17168   2.135   3.830   8.306  1.4837  3.3394 -0.5257
  154SAPE  H14Y17169   1.967   3.783   8.323 -0.0455  0.9024  1.5762
  154SAPE  C31517170   1.995   3.991   8.337 -0.1628 -0.2120 -0.1153
  154SAPE  H15X17171   2.047   4.071   8.279  0.0506 -0.4489 -0.2530
  154SAPE  H15Y17172   2.031   3.992   8.442 -0.3061  0.8123 -0.0706
  154SAPE  C31617173   1.844   4.000   8.348 -0.9693  0.6315  0.1046
  154SAPE  H16X17174   1.805   3.911   8.403  1.6182 -2.0090 -2.1687
  154SAPE  H16Y17175   1.800   4.012   8.247  1.9107  0.3788 -1.2431
  154SAPE  C31717176   1.800   4.111   8.445  0.0322  0.9535 -0.5084
  154SAPE  H17X17177   1.870   4.119   8.531  0.5909  1.3684 -0.9966
  154SAPE  H17Y17178   1.701   4.082   8.485 -0.2261  0.1512 -1.7112
  154SAPE  C31817179   1.795   4.256   8.396 -0.0386  0.0012  0.4063
  154SAPE  H18X17180   1.895   4.304   8.389 -0.4290  0.9286  1.0578
  154SAPE  H18Y17181   1.742   4.313   8.476 -2.4804 -1.4081 -0.1643
  154SAPE  H18Z17182   1.746   4.284   8.301  0.5218  3.0733  0.9726
  155SAPE     N17183   2.380   4.761   6.533 -0.1209 -0.7436  0.3692
  155SAPE   HN117184   2.379   4.722   6.630 -1.1152  3.4057  2.1453
  155SAPE   HN217185   2.290   4.810   6.521  0.0914 -0.1285  1.2330
  155SAPE   HN317186   2.386   4.682   6.466  0.3497  0.8783 -1.5302
  155SAPE   C1217187   2.484   4.863   6.509  0.1357 -0.6433 -0.6555
  155SAPE  H12A17188   2.580   4.809   6.518  0.2158 -0.3140  0.5462
  155SAPE  H12B17189   2.467   4.956   6.568  1.5099 -1.7801  1.5834
  155SAPE   C1117190   2.466   4.901   6.355  0.7080  0.0121  0.2879
  155SAPE  H11A17191   2.522   4.995   6.334  1.0463 -0.3736 -0.5356
  155SAPE  H11B17192   2.359   4.922   6.335  0.9912  1.7277  0.5000
  155SAPE     P17193   2.651   4.806   6.201 -0.0927 -0.0718 -0.3219
  155SAPE   O1317194   2.672   4.677   6.132 -0.3468  0.2447  0.6397
  155SAPE   O1417195   2.660   4.930   6.118 -0.6205 -0.1883  0.8360
  155SAPE   O1217196   2.507   4.802   6.267  0.1119 -0.2366 -0.0530
  155SAPE   O1117197   2.751   4.818   6.324  0.1083 -0.3279  0.8174
  155SAPE    C117198   2.877   4.764   6.347 -0.0607  0.7364 -0.7739
  155SAPE    HA17199   2.872   4.655   6.324 -1.8942  0.8615 -1.0172
  155SAPE    HB17200   2.949   4.814   6.280  0.5428 -1.6205 -1.9543
  155SAPE    C217201   2.907   4.779   6.499 -0.3164 -0.2323  0.6327
  155SAPE    HS17202   3.007   4.737   6.520  0.8146  0.5177 -2.8993
  155SAPE   O2117203   2.807   4.714   6.584 -0.1857 -0.0828 -0.1604
  155SAPE   C2117204   2.816   4.579   6.571  0.2530 -0.8832 -0.2688
  155SAPE   O2217205   2.907   4.518   6.521 -0.2319 -0.1323 -0.6023
  155SAPE   C2217206   2.694   4.523   6.643  0.0711 -0.0321  0.5013
  155SAPE   H2R17207   2.628   4.602   6.685  0.2625  0.4292 -0.0636
  155SAPE   H2S17208   2.638   4.469   6.564  0.5312  0.3890 -0.1274
  155SAPE    C317209   2.915   4.929   6.542 -0.4446  0.4402 -0.3123
  155SAPE    HX17210   2.828   4.979   6.493 -0.9443  0.9944  1.1069
  155SAPE    HY17211   3.011   4.973   6.507  0.3478  0.7046  2.0661
  155SAPE   O3117212   2.918   4.944   6.687  0.3250 -0.3844  0.6982
  155SAPE   C3117213   2.812   4.982   6.747 -0.3302 -0.3299 -0.5858
  155SAPE   O3217214   2.708   5.014   6.690 -0.0023 -0.1875 -0.6149
  155SAPE   C3217215   2.830   4.990   6.893 -0.3869 -0.6906 -0.1127
  155SAPE   H2X17216   2.907   5.063   6.926  2.1485 -2.7956 -1.1681
  155SAPE   H2Y17217   2.864   4.889   6.926 -0.9808 -1.1290 -0.8343
  155SAPE   C2317218   2.726   4.428   6.764  0.0401  0.1697 -0.2613
  155SAPE   H3R17219   2.807   4.357   6.735 -0.7412 -1.3954  1.3304
  155SAPE   H3S17220   2.634   4.370   6.785  1.2264 -1.1381  1.5307
  155SAPE   C2417221   2.786   4.505   6.884  0.7829  0.1183  0.5885
  155SAPE   H4R17222   2.883   4.554   6.858  0.9174  0.3190  1.4684
  155SAPE   H4S17223   2.805   4.421   6.953 -1.5795 -0.5922  0.4109
  155SAPE   C2517224   2.694   4.600   6.957  0.0061 -0.8767 -0.1528
  155SAPE   H5R17225   2.653   4.678   6.891  0.2403 -1.8760 -1.5013
  155SAPE   C2617226   2.668   4.604   7.092  0.4051  0.2666  0.0637
  155SAPE   H6R17227   2.616   4.694   7.127  0.5645  0.9811 -1.4888
  155SAPE   C2717228   2.725   4.517   7.207  0.3901 -0.2658 -0.7443
  155SAPE   H7R17229   2.715   4.409   7.179  1.0750 -0.9124  1.4588
  155SAPE   H7S17230   2.670   4.526   7.303  0.8482 -0.1551 -0.4932
  155SAPE   C2817231   2.872   4.546   7.220  0.1338  0.5229  0.3425
  155SAPE   H8R17232   2.928   4.562   7.127 -2.4637  0.2615 -1.2968
  155SAPE   C2917233   2.941   4.530   7.339  0.2873 -0.1522  0.5723
  155SAPE   H9R17234   3.049   4.550   7.346  0.5988 -1.8794  1.1421
  155SAPE  C21017235   2.883   4.494   7.478 -0.2280 -0.0219 -0.2258
  155SAPE  H10R17236   2.961   4.443   7.539  1.2283  1.7395 -0.5942
  155SAPE  H10S17237   2.801   4.419   7.470 -0.5961  0.1849  1.3522
  155SAPE  C21117238   2.840   4.610   7.569 -0.1547 -0.6309  0.2172
  155SAPE  H11R17239   2.808   4.705   7.523 -0.0001 -0.6834 -0.0011
  155SAPE  C21217240   2.843   4.619   7.709  1.0459 -0.5843  0.2795
  155SAPE  H12R17241   2.817   4.715   7.756  2.8365  0.2946 -0.4495
  155SAPE  C21317242   2.885   4.504   7.798  0.6603  0.2742 -0.1842
  155SAPE  H13R17243   2.965   4.443   7.751  0.8613 -0.3302  0.9294
  155SAPE  H13S17244   2.801   4.431   7.792  1.8201 -1.0200 -1.0652
  155SAPE  C21417245   2.913   4.550   7.937 -0.6796  0.7027 -0.3051
  155SAPE  H14R17246   2.997   4.620   7.951  0.1788 -0.2226 -0.7591
  155SAPE  C21517247   2.856   4.499   8.047  0.2383  0.2841  0.3500
  155SAPE  H15R17248   2.893   4.529   8.147  1.5045  0.1707 -0.0716
  155SAPE  C21617249   2.740   4.404   8.056 -0.6098 -0.2353  0.8463
  155SAPE  H16R17250   2.716   4.349   7.962  1.3772  0.7733 -0.2809
  155SAPE  H16S17251   2.658   4.470   8.091 -0.6991 -0.0320  0.2593
  155SAPE  C21717252   2.760   4.291   8.157 -0.3257 -0.2985 -0.5950
  155SAPE  H17R17253   2.847   4.225   8.136  0.6916  1.2373 -1.3358
  155SAPE  H17S17254   2.671   4.225   8.167 -0.0729 -0.8136 -1.6230
  155SAPE  C21817255   2.787   4.345   8.295 -0.0407  0.2359  0.6656
  155SAPE  H18R17256   2.690   4.397   8.311 -0.5507  0.3318 -2.5364
  155SAPE  H18S17257   2.875   4.413   8.301  0.0583  0.2856 -1.1626
  155SAPE  C21917258   2.793   4.237   8.402  0.0110 -0.9094  1.0076
  155SAPE  H19R17259   2.742   4.144   8.370 -2.0658  0.6908 -0.4734
  155SAPE  H19S17260   2.736   4.273   8.491 -1.2026 -1.7798  0.5974
  155SAPE  C22017261   2.934   4.204   8.456 -0.4097  0.0219  0.1089
  155SAPE  H20R17262   2.994   4.190   8.364  1.9036  0.3423  1.5440
  155SAPE  H20S17263   2.938   4.105   8.507 -0.6759 -0.1400 -0.1816
  155SAPE  H20T17264   2.975   4.285   8.519  3.6375 -1.2963 -0.7168
  155SAPE   C3317265   2.708   5.027   6.976  0.3293  0.2967  0.2280
  155SAPE   H3X17266   2.613   4.990   6.933 -1.9480 -0.1384  5.2816
  155SAPE   H3Y17267   2.691   5.137   6.978 -1.5477  0.0475 -0.7710
  155SAPE   C3417268   2.727   4.985   7.123 -0.2851 -0.0724  0.0298
  155SAPE   H4X17269   2.806   5.049   7.168 -0.2836 -0.2811  0.3221
  155SAPE   H4Y17270   2.760   4.880   7.135  2.0206  0.4793 -1.0202
  155SAPE   C3517271   2.615   5.011   7.232 -0.4032 -0.1563 -0.0466
  155SAPE   H5X17272   2.517   4.965   7.207 -0.6553  0.6315 -0.5367
  155SAPE   H5Y17273   2.601   5.121   7.248 -0.6496 -0.1488 -0.3173
  155SAPE   C3617274   2.666   4.964   7.373  0.2816  0.5491  0.1502
  155SAPE   H6X17275   2.760   5.018   7.398  0.2586 -0.6393  2.9695
  155SAPE   H6Y17276   2.691   4.856   7.380 -2.1731 -0.2120 -2.2711
  155SAPE   C3717277   2.568   4.995   7.492  1.3156 -1.1260  0.0333
  155SAPE   H7X17278   2.464   4.983   7.455  1.8006  1.4968 -2.4097
  155SAPE   H7Y17279   2.581   5.102   7.519 -3.0047 -0.6826  0.7582
  155SAPE   C3817280   2.587   4.906   7.616  0.7087 -0.6955  0.2129
  155SAPE   H8X17281   2.692   4.917   7.651  0.5978  0.2938  0.2561
  155SAPE   H8Y17282   2.574   4.803   7.578 -0.0055 -0.6838  0.4190
  155SAPE   C3917283   2.486   4.939   7.726 -0.3511  0.3103 -0.0360
  155SAPE   H9X17284   2.383   4.957   7.688 -0.0721  0.7526 -0.6034
  155SAPE   H9Y17285   2.521   5.024   7.787  2.5641 -0.6340 -0.3235
  155SAPE  C31017286   2.488   4.833   7.840 -0.1229  0.6620  0.5902
  155SAPE  H10X17287   2.595   4.824   7.870 -0.4633  0.5897  1.8134
  155SAPE  H10Y17288   2.459   4.731   7.808 -0.3495  1.0879 -0.5588
  155SAPE  C31117289   2.397   4.874   7.955  0.5040  0.0189  0.4361
  155SAPE  H11X17290   2.295   4.883   7.912  0.9404 -1.4690 -0.9864
  155SAPE  H11Y17291   2.428   4.969   8.002 -1.1241  1.1759 -0.7838
  155SAPE  C31217292   2.389   4.762   8.066 -0.7789 -0.5402 -0.1566
  155SAPE  H12X17293   2.494   4.729   8.082 -0.1843  0.4327 -1.8993
  155SAPE  H12Y17294   2.322   4.676   8.045 -1.7942  0.7951 -2.6077
  155SAPE  C31317295   2.324   4.817   8.192  0.0615 -0.3688  0.5779
  155SAPE  H13X17296   2.217   4.833   8.164  1.4614  2.5873 -3.5884
  155SAPE  H13Y17297   2.363   4.918   8.217 -0.4738 -0.0391  0.1100
  155SAPE  C31417298   2.328   4.722   8.312  0.2323  0.1585  0.0201
  155SAPE  H14X17299   2.428   4.673   8.307 -0.5446 -1.4497  0.0044
  155SAPE  H14Y17300   2.259   4.636   8.296  0.6064 -0.0481 -0.5201
  155SAPE  C31517301   2.315   4.791   8.457  0.2222 -0.1514  0.1166
  155SAPE  H15X17302   2.210   4.820   8.474 -0.5626 -2.0871 -1.2424
  155SAPE  H15Y17303   2.375   4.884   8.449  0.4886 -0.0308  2.9510
  155SAPE  C31617304   2.354   4.702   8.569  0.1725 -0.5850  0.3382
  155SAPE  H16X17305   2.306   4.602   8.565 -1.0120 -0.1185  2.1330
  155SAPE  H16Y17306   2.332   4.753   8.665  0.8812 -1.1751  0.8209
  155SAPE  C31717307   2.503   4.674   8.569  0.2660 -0.2012  0.0593
  155SAPE  H17X17308   2.567   4.765   8.561 -1.5331  1.1718  0.9911
  155SAPE  H17Y17309   2.540   4.616   8.481 -0.1442 -1.4051  0.6677
  155SAPE  C31817310   2.547   4.599   8.693  0.1608  0.4127 -0.3392
  155SAPE  H18X17311   2.657   4.579   8.700 -0.0011 -0.7251 -0.9009
  155SAPE  H18Y17312   2.499   4.501   8.716 -0.1625  0.0303 -2.5782
  155SAPE  H18Z17313   2.522   4.655   8.785 -0.5281  0.9419 -0.8526
  156SAPE     N17314   1.195   5.284   6.567 -0.2913 -0.6472 -0.4404
  156SAPE   HN117315   1.184   5.344   6.651 -0.4570  0.3220 -1.1432
  156SAPE   HN217316   1.222   5.189   6.600  3.3522  1.2341  2.3292
  156SAPE   HN317317   1.280   5.323   6.521 -1.2131 -0.1471 -1.7640
  156SAPE   C1217318   1.081   5.307   6.468 -0.9699 -0.4200 -0.1777
  156SAPE  H12A17319   0.985   5.264   6.502 -0.7717  0.2207  1.2282
  156SAPE  H12B17320   1.107   5.253   6.374  2.2139  2.3820 -1.0206
  156SAPE   C1117321   1.074   5.461   6.434 -0.3700  0.2482 -0.9701
  156SAPE  H11A17322   0.979   5.466   6.376 -1.5685  0.0791  0.9312
  156SAPE  H11B17323   1.164   5.488   6.374 -0.2610  2.9878  0.3086
  156SAPE     P17324   0.975   5.678   6.576 -0.2541  0.1078  0.5025
  156SAPE   O1317325   1.069   5.777   6.631  0.1488  0.2157 -0.3198
  156SAPE   O1417326   0.908   5.719   6.456 -0.5861 -0.7474 -0.1917
  156SAPE   O1217327   1.063   5.539   6.551 -0.1881 -0.0713 -0.1531
  156SAPE   O1117328   0.873   5.628   6.683 -0.0183  0.2146  0.7574
  156SAPE    C117329   0.916   5.538   6.785 -0.1215 -0.2914 -0.0768
  156SAPE    HA17330   0.924   5.435   6.744 -0.2191  0.0203 -0.8752
  156SAPE    HB17331   1.013   5.570   6.830 -0.9079  0.2958  1.2390
  156SAPE    C217332   0.814   5.528   6.899  0.3783 -1.0753 -0.1588
  156SAPE    HS17333   0.723   5.483   6.854 -0.1083 -0.5586  0.2974
  156SAPE   O2117334   0.793   5.661   6.953 -0.0982  0.0600  0.4595
  156SAPE   C2117335   0.682   5.693   7.001  0.3121 -0.7495  0.8999
  156SAPE   O2217336   0.575   5.630   7.003 -0.3162  0.4634 -0.3164
  156SAPE   C2217337   0.696   5.835   7.072 -0.0088 -0.4889 -0.3926
  156SAPE   H2R17338   0.803   5.867   7.064 -0.4390  0.9145 -0.6820
  156SAPE   H2S17339   0.629   5.899   7.012  0.8251  0.1076 -0.7093
  156SAPE    C317340   0.871   5.431   7.001  0.5829 -0.3646  0.1151
  156SAPE    HX17341   0.961   5.479   7.044  0.4778  0.1916 -0.2761
  156SAPE    HY17342   0.913   5.342   6.950  0.8067 -0.4081  0.3760
  156SAPE   O3117343   0.779   5.410   7.107 -0.5311  0.0652  0.4455
  156SAPE   C3117344   0.702   5.304   7.089  0.0066 -0.4130  0.4196
  156SAPE   O3217345   0.694   5.243   6.984 -0.5492  0.5238  0.4765
  156SAPE   C3217346   0.633   5.264   7.218  0.6636 -0.4977  0.1627
  156SAPE   H2X17347   0.629   5.153   7.215 -0.1330 -0.4577 -0.4881
  156SAPE   H2Y17348   0.529   5.302   7.212  1.7959  2.7443  0.0055
  156SAPE   C2317349   0.645   5.832   7.216  0.8341  0.0789 -0.1314
  156SAPE   H3R17350   0.543   5.788   7.221  0.4054  1.1279  0.5217
  156SAPE   H3S17351   0.633   5.937   7.250  0.9507 -0.1176  0.5311
  156SAPE   C2417352   0.739   5.772   7.317  0.0287  0.0679 -0.5826
  156SAPE   H4R17353   0.831   5.832   7.334  0.2455 -0.5777  0.5146
  156SAPE   H4S17354   0.761   5.668   7.285 -0.4067  0.3629 -1.8860
  156SAPE   C2517355   0.656   5.774   7.447 -0.0552 -1.1551  0.4869
  156SAPE   H5R17356   0.556   5.728   7.444 -1.1584  1.2711 -1.4575
  156SAPE   C2617357   0.695   5.822   7.564  0.2211  0.1524  1.3539
  156SAPE   H6R17358   0.618   5.815   7.642 -0.9672  1.1664  0.3230
  156SAPE   C2717359   0.831   5.877   7.598 -0.5547 -0.7451  0.7108
  156SAPE   H7R17360   0.890   5.915   7.511  0.8687 -3.7430  0.3146
  156SAPE   H7S17361   0.893   5.797   7.642  0.5896  0.0874  0.6212
  156SAPE   C2817362   0.831   5.996   7.699 -0.6062 -0.3517 -0.0632
  156SAPE   H8R17363   0.863   6.095   7.664 -3.0411  1.1802  1.9384
  156SAPE   C2917364   0.813   5.981   7.836 -0.7791  0.2171 -0.1432
  156SAPE   H9R17365   0.810   6.072   7.898 -0.6343 -1.6690  2.7267
  156SAPE  C21017366   0.777   5.851   7.907 -0.7403  0.1608 -0.3484
  156SAPE  H10R17367   0.857   5.844   7.984  0.1275  0.1605 -1.2433
  156SAPE  H10S17368   0.789   5.758   7.847 -1.3384 -0.3133  0.2456
  156SAPE  C21117369   0.645   5.848   7.979 -0.4152 -0.0229  0.0590
  156SAPE  H11R17370   0.575   5.797   7.912 -0.2047 -1.0945  0.6571
  156SAPE  C21217371   0.608   5.887   8.104  0.0308 -0.2755 -0.0266
  156SAPE  H12R17372   0.506   5.853   8.128  0.1931 -1.3933 -0.8731
  156SAPE  C21317373   0.687   5.946   8.215 -0.2822 -0.2628 -0.2174
  156SAPE  H13R17374   0.701   6.049   8.176  2.0328 -0.7275 -0.7194
  156SAPE  H13S17375   0.788   5.901   8.213 -0.9096 -1.8473  2.0143
  156SAPE  C21417376   0.643   5.945   8.362  0.3614  0.3167  0.6829
  156SAPE  H14R17377   0.694   5.866   8.419 -1.3508 -1.0094  0.4363
  156SAPE  C21517378   0.550   6.025   8.421 -1.3298  0.2294 -0.7897
  156SAPE  H15R17379   0.528   6.004   8.526 -0.0618  0.4506 -0.4732
  156SAPE  C21617380   0.471   6.133   8.353 -0.0941  0.5603 -0.0767
  156SAPE  H16R17381   0.363   6.107   8.351  0.3742 -1.7625  1.9717
  156SAPE  H16S17382   0.513   6.139   8.250  0.2570 -1.5243 -0.0778
  156SAPE  C21717383   0.484   6.275   8.424 -0.3641 -0.6337  0.4714
  156SAPE  H17R17384   0.460   6.353   8.348 -1.2231 -1.5029 -0.1634
  156SAPE  H17S17385   0.587   6.295   8.459  0.3556 -0.2251 -1.8042
  156SAPE  C21817386   0.396   6.281   8.546 -0.0327  0.1409 -0.2768
  156SAPE  H18R17387   0.432   6.203   8.617  0.9903  0.0743 -0.8566
  156SAPE  H18S17388   0.293   6.247   8.522  0.2764 -0.7537 -0.3341
  156SAPE  C21917389   0.409   6.415   8.616 -0.1507 -0.7297  0.5142
  156SAPE  H19R17390   0.518   6.436   8.624 -0.2671  0.1318 -0.0783
  156SAPE  H19S17391   0.363   6.401   8.716 -0.8376  0.3238  0.3590
  156SAPE  C22017392   0.341   6.534   8.540  0.0284  0.0842 -0.7163
  156SAPE  H20R17393   0.375   6.538   8.434  0.2483 -1.9327 -0.7369
  156SAPE  H20S17394   0.365   6.627   8.596  0.4224 -1.0857  1.0721
  156SAPE  H20T17395   0.230   6.525   8.551  0.0453  0.6869 -0.0177
  156SAPE   C3317396   0.713   5.308   7.340 -0.0462  0.0234  0.3131
  156SAPE   H3X17397   0.697   5.418   7.349 -0.4562 -0.0617  0.6045
  156SAPE   H3Y17398   0.817   5.271   7.329 -0.3466 -2.0087  3.7274
  156SAPE   C3417399   0.660   5.247   7.467  0.4469  0.0574  0.4696
  156SAPE   H4X17400   0.683   5.142   7.439 -0.8162 -0.0131 -0.3390
  156SAPE   H4Y17401   0.552   5.270   7.477  0.5417  1.0314 -0.5873
  156SAPE   C3517402   0.730   5.277   7.598  0.4972  0.9094  0.3164
  156SAPE   H5X17403   0.837   5.252   7.583  0.0947  0.7088 -2.4810
  156SAPE   H5Y17404   0.691   5.209   7.676  0.2628 -0.8752 -1.3341
  156SAPE   C3617405   0.712   5.416   7.647 -0.0430 -0.7096  0.0445
  156SAPE   H6X17406   0.732   5.483   7.561  0.8288 -0.4996  0.4043
  156SAPE   H6Y17407   0.788   5.433   7.727 -1.9726  0.3815  1.6789
  156SAPE   C3717408   0.574   5.453   7.700 -0.2244 -0.6781 -0.4664
  156SAPE   H7X17409   0.509   5.471   7.612  0.5622 -0.1388 -0.9492
  156SAPE   H7Y17410   0.585   5.552   7.750 -0.1281 -0.2848 -1.2647
  156SAPE   C3817411   0.512   5.364   7.808 -0.2234  1.0634 -0.1149
  156SAPE   H8X17412   0.494   5.264   7.763  0.3418  0.8733  0.0827
  156SAPE   H8Y17413   0.409   5.399   7.834  0.5930  1.0897  3.3302
  156SAPE   C3917414   0.581   5.346   7.947 -0.0186  0.0970  0.5105
  156SAPE   H9X17415   0.674   5.290   7.925  0.0198  0.5440 -0.4957
  156SAPE   H9Y17416   0.510   5.282   8.004 -1.2893  0.7716 -0.2879
  156SAPE  C31017417   0.611   5.472   8.027 -0.0676 -0.1679 -0.7552
  156SAPE  H10X17418   0.537   5.550   7.997  1.0081  0.9689 -0.4761
  156SAPE  H10Y17419   0.707   5.513   7.990 -0.2546  0.2044 -0.8340
  156SAPE  C31117420   0.592   5.457   8.174  0.7516 -0.3282  0.0831
  156SAPE  H11X17421   0.592   5.565   8.201 -2.3199 -1.0656  3.3088
  156SAPE  H11Y17422   0.680   5.403   8.216 -0.6766 -1.5650  1.5686
  156SAPE  C31217423   0.464   5.384   8.224 -0.7530  0.5886 -0.0258
  156SAPE  H12X17424   0.482   5.275   8.233  0.4610  0.8548  0.9281
  156SAPE  H12Y17425   0.377   5.397   8.155  0.8532 -0.1408 -2.2611
  156SAPE  C31317426   0.422   5.444   8.358  0.1234 -0.2363 -0.5688
  156SAPE  H13X17427   0.390   5.548   8.336 -2.0948 -0.2011  2.5957
  156SAPE  H13Y17428   0.509   5.452   8.427 -0.5721 -1.4370  0.4671
  156SAPE  C31417429   0.309   5.368   8.428 -0.7366  0.7329  0.3410
  156SAPE  H14X17430   0.335   5.280   8.489 -1.9654  1.0223  1.3072
  156SAPE  H14Y17431   0.235   5.326   8.357  0.7394  0.2071 -0.9292
  156SAPE  C31517432   0.230   5.463   8.527  0.0103  0.3598  0.6450
  156SAPE  H15X17433   0.154   5.394   8.572  0.0165  1.3135  2.1440
  156SAPE  H15Y17434   0.174   5.533   8.462 -1.1185 -0.4255  0.7498
  156SAPE  C31617435   0.314   5.526   8.632  0.3270  0.2182  0.4190
  156SAPE  H16X17436   0.377   5.607   8.591 -0.2333  0.1407 -0.6403
  156SAPE  H16Y17437   0.385   5.452   8.674 -0.3521 -0.1771  0.8871
  156SAPE  C31717438   0.229   5.572   8.754  0.7801 -0.2189 -0.5277
  156SAPE  H17X17439   0.163   5.491   8.792  0.7178  0.7104  1.4441
  156SAPE  H17Y17440   0.157   5.649   8.718 -1.5251 -2.1902 -0.2736
  156SAPE  C31817441   0.312   5.617   8.881 -0.2665  0.7877 -0.5130
  156SAPE  H18X17442   0.370   5.530   8.920 -0.1970 -0.0320 -2.3420
  156SAPE  H18Y17443   0.250   5.661   8.961 -3.4712 -1.3545 -1.7082
  156SAPE  H18Z17444   0.384   5.697   8.854 -0.7483  1.8445  1.2624
  157SAPE     N17445   4.444   0.395   6.382  0.4147  0.0007 -0.4361
  157SAPE   HN117446   4.546   0.390   6.366  1.0432  1.2814  2.6628
  157SAPE   HN217447   4.429   0.406   6.485  0.8316  1.6093 -0.5357
  157SAPE   HN317448   4.405   0.302   6.357  0.0853  0.1148 -0.3581
  157SAPE   C1217449   4.380   0.499   6.293  0.3644 -0.3678  0.0587
  157SAPE  H12A17450   4.274   0.510   6.325  1.6065  0.3286  4.1593
  157SAPE  H12B17451   4.394   0.465   6.188 -2.4123  0.3272 -0.5756
  157SAPE   C1117452   4.459   0.631   6.285  0.9284 -0.0294  0.9088
  157SAPE  H11A17453   4.435   0.680   6.382 -2.3023 -1.0004  0.6531
  157SAPE  H11B17454   4.413   0.689   6.202  2.8015 -1.6495 -1.3200
  157SAPE     P17455   4.694   0.727   6.263 -0.2058 -0.2860  0.4065
  157SAPE   O1317456   4.822   0.698   6.187  0.2276  0.2751  0.3301
  157SAPE   O1417457   4.623   0.854   6.235 -0.2460  0.3554  0.1125
  157SAPE   O1217458   4.604   0.603   6.261  0.4582 -0.0426 -0.1816
  157SAPE   O1117459   4.742   0.740   6.415  0.1782 -0.1917 -0.6619
  157SAPE    C117460   4.731   0.637   6.509 -0.1771  0.9009  0.2374
  157SAPE    HA17461   4.622   0.626   6.526 -0.1880 -0.6224 -0.7372
  157SAPE    HB17462   4.777   0.542   6.474  1.8833  0.9719  2.5563
  157SAPE    C217463   4.805   0.680   6.637 -0.3523  0.0885 -0.2822
  157SAPE    HS17464   4.784   0.787   6.660  2.6166  0.4661  0.8418
  157SAPE   O2117465   4.942   0.662   6.613 -0.5344  0.0672 -0.1600
  157SAPE   C2117466   5.029   0.755   6.662 -0.0774  0.8113  0.1404
  157SAPE   O2217467   4.999   0.855   6.726  0.3569  0.1975 -0.0967
  157SAPE   C2217468   5.170   0.711   6.639  0.0520 -0.2824  0.2485
  157SAPE   H2R17469   5.169   0.600   6.645 -3.0215 -0.2607  1.0137
  157SAPE   H2S17470   5.202   0.736   6.536  0.4006 -1.2371  0.1168
  157SAPE    C317471   4.762   0.590   6.750 -0.1680 -0.2584 -0.4542
  157SAPE    HX17472   4.758   0.483   6.719 -3.2948  0.2972 -2.2226
  157SAPE    HY17473   4.655   0.608   6.771 -0.3938 -0.6371 -1.2318
  157SAPE   O3117474   4.848   0.602   6.866 -0.0246 -0.1213  0.7665
  157SAPE   C3117475   4.815   0.694   6.953 -0.8985 -0.0137 -0.3381
  157SAPE   O3217476   4.732   0.779   6.940 -0.8380 -0.0999  0.7813
  157SAPE   C3217477   4.894   0.690   7.086 -0.0264 -0.8253 -0.3071
  157SAPE   H2X17478   4.937   0.792   7.075  0.0159 -0.7430  0.5916
  157SAPE   H2Y17479   4.971   0.610   7.083 -0.1007 -0.8307 -2.7018
  157SAPE   C2317480   5.272   0.761   6.744 -0.3306 -0.3441 -0.5675
  157SAPE   H3R17481   5.268   0.871   6.759  2.3924 -0.2250 -0.4247
  157SAPE   H3S17482   5.378   0.751   6.713  0.3520  0.0958  1.5318
  157SAPE   C2417483   5.245   0.708   6.883 -0.1222  0.1459  0.1034
  157SAPE   H4R17484   5.224   0.600   6.874 -1.6523  0.5332 -1.0631
  157SAPE   H4S17485   5.153   0.755   6.924 -1.4650 -1.1816 -1.3381
  157SAPE   C2517486   5.368   0.714   6.974  0.1376  0.1808 -0.3303
  157SAPE   H5R17487   5.450   0.644   6.949 -0.0700  0.0862 -0.7294
  157SAPE   C2617488   5.380   0.794   7.081  0.5378  0.3912  0.1104
  157SAPE   H6R17489   5.454   0.774   7.160  1.3845 -2.0993 -1.2579
  157SAPE   C2717490   5.275   0.894   7.119 -0.4951  0.0152 -0.7327
  157SAPE   H7R17491   5.203   0.831   7.175 -1.0174  0.1198 -1.2837
  157SAPE   H7S17492   5.210   0.937   7.040 -1.8267  1.6643  1.2078
  157SAPE   C2817493   5.319   1.006   7.210 -0.4124  0.8888  0.6727
  157SAPE   H8R17494   5.336   1.101   7.157  1.0727  0.8856  1.1244
  157SAPE   C2917495   5.324   0.992   7.344  0.2522 -0.7116 -0.1328
  157SAPE   H9R17496   5.357   1.083   7.397  1.0656  1.1596 -3.6424
  157SAPE  C21017497   5.293   0.874   7.428  0.0165  0.7788  0.7092
  157SAPE  H10R17498   5.263   0.780   7.378 -1.2493 -0.6075  3.9871
  157SAPE  H10S17499   5.208   0.906   7.491 -0.2900 -2.1113  1.8329
  157SAPE  C21117500   5.413   0.831   7.508  0.2014 -0.6145 -0.1400
  157SAPE  H11R17501   5.487   0.772   7.453  1.0681 -0.3839  0.7672
  157SAPE  C21217502   5.440   0.858   7.634 -0.3519  0.0588 -0.3227
  157SAPE  H12R17503   5.542   0.831   7.662  0.6160  3.0999 -0.7559
  157SAPE  C21317504   5.358   0.949   7.727 -0.5398 -0.1007  0.4066
  157SAPE  H13R17505   5.258   0.978   7.691 -0.5608  0.4422  0.8961
  157SAPE  H13S17506   5.409   1.048   7.726 -1.5707  0.4272 -0.3769
  157SAPE  C21417507   5.360   0.906   7.866  0.4845  0.1919  0.6725
  157SAPE  H14R17508   5.462   0.913   7.906  0.0380 -0.2377  1.9125
  157SAPE  C21517509   5.260   0.868   7.948  0.3305  0.0243  0.0834
  157SAPE  H15R17510   5.281   0.842   8.053  0.5013  1.1976  0.3449
  157SAPE  C21617511   5.117   0.860   7.907  0.3021 -0.1732  0.9143
  157SAPE  H16R17512   5.119   0.810   7.808  0.6837 -0.5865  1.1285
  157SAPE  H16S17513   5.077   0.963   7.902 -2.2452 -1.1299  0.6479
  157SAPE  C21717514   5.021   0.776   7.987  0.2818 -0.7590 -0.0542
  157SAPE  H17R17515   5.068   0.681   8.022 -0.0103 -1.3686 -1.2814
  157SAPE  H17S17516   4.933   0.736   7.934  1.2059 -1.7611 -0.8532
  157SAPE  C21817517   4.980   0.845   8.116  0.5667  0.4999  0.8576
  157SAPE  H18R17518   4.924   0.933   8.079  1.6223 -0.3139 -2.9219
  157SAPE  H18S17519   5.061   0.882   8.182  1.2645  1.3780 -0.4564
  157SAPE  C21917520   4.897   0.749   8.203 -0.2664  0.0775  1.1134
  157SAPE  H19R17521   4.939   0.647   8.208 -0.1676 -0.0670 -2.0535
  157SAPE  H19S17522   4.802   0.735   8.147 -0.2081  0.5349  0.8959
  157SAPE  C22017523   4.855   0.792   8.344 -0.5917 -0.8443  0.3809
  157SAPE  H20R17524   4.840   0.707   8.415 -0.9751  0.0027  1.3184
  157SAPE  H20S17525   4.758   0.842   8.323 -1.5597 -2.1485  1.5271
  157SAPE  H20T17526   4.915   0.872   8.392 -0.3509 -0.1616 -1.0360
  157SAPE   C3317527   4.796   0.676   7.204  0.0370  0.2978 -0.2790
  157SAPE   H3X17528   4.765   0.571   7.185  0.4874  0.1226 -0.0395
  157SAPE   H3Y17529   4.714   0.750   7.194 -0.3645 -0.2955 -1.4926
  157SAPE   C3417530   4.881   0.696   7.339  1.1474  0.5255 -0.2297
  157SAPE   H4X17531   4.887   0.805   7.359  0.0383  0.5275  0.0821
  157SAPE   H4Y17532   4.983   0.657   7.318  0.4119 -0.9226 -1.2423
  157SAPE   C3517533   4.815   0.616   7.446 -0.0332  0.5576  0.1605
  157SAPE   H5X17534   4.772   0.523   7.404  0.8520  1.0513 -1.8702
  157SAPE   H5Y17535   4.728   0.673   7.486  1.7817  2.1161  1.9986
  157SAPE   C3617536   4.913   0.577   7.557 -0.6212 -0.4077 -0.4213
  157SAPE   H6X17537   4.863   0.614   7.650 -0.3846  0.1934 -0.5302
  157SAPE   H6Y17538   5.018   0.613   7.545 -1.3792  1.4681 -1.6545
  157SAPE   C3717539   4.924   0.426   7.586 -0.0921 -0.6697 -0.4731
  157SAPE   H7X17540   4.926   0.378   7.486 -2.5107  1.1965 -1.4454
  157SAPE   H7Y17541   4.831   0.382   7.627 -0.7231  2.4019  1.5720
  157SAPE   C3817542   5.032   0.395   7.691 -0.2857 -0.2461  0.2088
  157SAPE   H8X17543   5.122   0.441   7.646 -1.3768 -0.5526 -2.4148
  157SAPE   H8Y17544   5.043   0.284   7.692 -1.6267 -0.3921  0.1678
  157SAPE   C3917545   5.026   0.448   7.832 -0.6374  0.4416  0.0097
  157SAPE   H9X17546   5.039   0.558   7.845 -0.5951  0.5209 -0.7045
  157SAPE   H9Y17547   5.108   0.390   7.881  0.2210  1.3789 -0.3097
  157SAPE  C31017548   4.904   0.399   7.913 -0.2539 -0.2082  0.2581
  157SAPE  H10X17549   4.861   0.308   7.866 -0.9198  0.4310 -0.3778
  157SAPE  H10Y17550   4.816   0.464   7.894  0.6107  1.4570  1.8059
  157SAPE  C31117551   4.925   0.402   8.057  0.2711 -1.3616 -0.0654
  157SAPE  H11X17552   4.837   0.375   8.119  1.0928  1.7519  2.6222
  157SAPE  H11Y17553   4.966   0.502   8.084  0.3338 -1.5001  0.3565
  157SAPE  C31217554   5.033   0.299   8.113 -0.7106 -0.8148 -0.1064
  157SAPE  H12X17555   5.139   0.327   8.096 -1.1146  0.9052  0.0725
  157SAPE  H12Y17556   5.026   0.209   8.049 -0.2592 -0.6626 -0.3734
  157SAPE  C31317557   5.008   0.260   8.260  0.6382 -0.6919 -0.2439
  157SAPE  H13X17558   5.082   0.181   8.286  1.4705  0.8496  2.2226
  157SAPE  H13Y17559   4.907   0.215   8.264 -0.6844  2.3309  2.2716
  157SAPE  C31417560   5.021   0.377   8.365 -1.0399 -0.1203 -0.4598
  157SAPE  H14X17561   4.963   0.338   8.451 -1.6644  0.7551 -0.4796
  157SAPE  H14Y17562   4.978   0.463   8.310 -0.9863 -1.5717 -2.8534
  157SAPE  C31517563   5.163   0.403   8.413 -0.4281 -0.8819 -0.1891
  157SAPE  H15X17564   5.239   0.411   8.332  1.4110 -0.0554  1.5913
  157SAPE  H15Y17565   5.198   0.337   8.495  1.3425  1.3611  0.9276
  157SAPE  C31617566   5.161   0.540   8.489 -0.0199  0.0120 -0.7188
  157SAPE  H16X17567   5.091   0.522   8.573  0.2488  0.6897 -0.3480
  157SAPE  H16Y17568   5.103   0.613   8.429 -0.7736 -0.2880 -0.3630
  157SAPE  C31717569   5.296   0.609   8.525  0.1787  1.4045  0.9274
  157SAPE  H17X17570   5.335   0.645   8.427 -0.4580  2.0946  0.9206
  157SAPE  H17Y17571   5.364   0.534   8.570 -0.9302  0.2046  0.6431
  157SAPE  C31817572   5.268   0.720   8.614 -1.0680  0.4935  0.7615
  157SAPE  H18X17573   5.197   0.686   8.692  0.1069 -2.0830  0.7739
  157SAPE  H18Y17574   5.223   0.809   8.568 -1.2118 -0.7842 -1.6262
  157SAPE  H18Z17575   5.359   0.743   8.675 -0.2799 -0.1073 -0.1648
  158SAPE     N17576   0.481   5.474   6.560  0.2520 -0.5315 -0.2108
  158SAPE   HN117577   0.438   5.534   6.633 -1.1852  0.0581 -1.5347
  158SAPE   HN217578   0.414   5.413   6.511 -1.7855  0.7899  0.8820
  158SAPE   HN317579   0.537   5.411   6.621 -3.5478 -0.0041  4.0628
  158SAPE   C1217580   0.572   5.548   6.468  0.2559  0.6240  0.0337
  158SAPE  H12A17581   0.616   5.628   6.531 -1.0468  1.6584 -0.3410
  158SAPE  H12B17582   0.513   5.602   6.391 -0.9311 -0.1934  0.3424
  158SAPE   C1117583   0.678   5.453   6.408 -0.3119  1.4159 -0.0923
  158SAPE  H11A17584   0.751   5.422   6.486 -1.6322  0.8583  0.9440
  158SAPE  H11B17585   0.726   5.510   6.327  2.8080 -0.4148  0.3787
  158SAPE     P17586   0.694   5.265   6.234 -0.1534 -0.5563  0.3505
  158SAPE   O1317587   0.728   5.377   6.134  0.1529  0.1804  0.1363
  158SAPE   O1417588   0.805   5.181   6.278  0.5688  0.3220 -0.3895
  158SAPE   O1217589   0.623   5.331   6.353 -0.4317  0.2060 -0.3858
  158SAPE   O1117590   0.577   5.173   6.180 -0.2036 -0.1180 -0.6911
  158SAPE    C117591   0.564   5.037   6.228  0.4315 -0.5389  1.2057
  158SAPE    HA17592   0.518   4.977   6.147  1.5997 -1.6999  1.3819
  158SAPE    HB17593   0.657   4.982   6.254  1.0583 -0.3495 -0.5320
  158SAPE    C217594   0.472   5.039   6.349  0.5807  0.2536 -0.0588
  158SAPE    HS17595   0.527   5.093   6.429  1.1016 -0.3785  0.0225
  158SAPE   O2117596   0.449   4.905   6.390 -0.4267  0.2119 -0.1721
  158SAPE   C2117597   0.508   4.868   6.506  0.5581 -0.0162 -0.3303
  158SAPE   O2217598   0.595   4.923   6.564 -0.6001 -0.0503 -0.1542
  158SAPE   C2217599   0.445   4.738   6.550  0.2508  0.3323 -0.0581
  158SAPE   H2R17600   0.336   4.746   6.531  0.6770  2.8260 -1.7217
  158SAPE   H2S17601   0.481   4.648   6.497  0.6796  0.3439  0.2132
  158SAPE    C317602   0.334   5.096   6.319 -0.2729  0.1392  0.4353
  158SAPE    HX17603   0.292   5.036   6.236  0.9936 -2.4790  1.6079
  158SAPE    HY17604   0.351   5.201   6.287 -0.2564  0.1577  0.5041
  158SAPE   O3117605   0.244   5.085   6.427  0.3798 -0.0569  0.6580
  158SAPE   C3117606   0.252   5.176   6.517 -1.5737 -0.8928  0.4732
  158SAPE   O3217607   0.350   5.253   6.531 -0.1179 -0.8277 -0.8685
  158SAPE   C3217608   0.132   5.181   6.609  0.5788  1.2210 -0.6897
  158SAPE   H2X17609   0.035   5.170   6.556 -0.7866 -0.8086  2.1251
  158SAPE   H2Y17610   0.133   5.285   6.649 -0.6516  0.2056  2.0700
  158SAPE   C2317611   0.468   4.725   6.707  0.4770  0.3111 -0.0445
  158SAPE   H3R17612   0.440   4.818   6.759 -0.1757 -0.5394  1.1533
  158SAPE   H3S17613   0.576   4.710   6.730  0.6892  1.6626 -0.1268
  158SAPE   C2417614   0.399   4.602   6.767  0.0690 -0.6293 -0.6466
  158SAPE   H4R17615   0.436   4.587   6.871  2.7059 -0.2561 -1.4985
  158SAPE   H4S17616   0.439   4.512   6.716  0.1609 -0.7786 -0.3183
  158SAPE   C2517617   0.247   4.627   6.769 -0.0923  0.3167  0.2613
  158SAPE   H5R17618   0.195   4.640   6.673  0.9257 -0.1277 -0.3543
  158SAPE   C2617619   0.163   4.617   6.873 -0.3000  0.2990 -0.1481
  158SAPE   H6R17620   0.055   4.630   6.860 -0.2936 -0.8819 -1.3884
  158SAPE   C2717621   0.215   4.586   7.016  0.1730  0.2018  0.6296
  158SAPE   H7R17622   0.248   4.687   7.048 -0.8393  1.3787 -1.9165
  158SAPE   H7S17623   0.298   4.513   7.025 -1.8958 -2.1054  1.6499
  158SAPE   C2817624   0.096   4.555   7.111  0.6146  0.0975  0.7976
  158SAPE   H8R17625   0.006   4.531   7.053 -0.8455  1.0246  2.6408
  158SAPE   C2917626   0.102   4.551   7.244 -0.8567 -0.2604 -0.0114
  158SAPE   H9R17627   0.003   4.534   7.289 -0.4294 -2.5514  0.1475
  158SAPE  C21017628   0.216   4.573   7.336  0.0103 -0.3148  0.7023
  158SAPE  H10R17629   0.248   4.674   7.369 -2.6353 -0.0944  2.6515
  158SAPE  H10S17630   0.303   4.542   7.274 -2.4689 -0.8582 -2.6615
  158SAPE  C21117631   0.199   4.482   7.458 -0.1294  0.4542 -0.4305
  158SAPE  H11R17632   0.226   4.380   7.427  1.4388  1.5788 -2.9405
  158SAPE  C21217633   0.148   4.513   7.583 -0.1976  0.4831 -0.1140
  158SAPE  H12R17634   0.151   4.432   7.658 -0.9198 -0.4255 -1.0581
  158SAPE  C21317635   0.095   4.651   7.621 -0.5032  0.1843  0.0898
  158SAPE  H13R17636   0.068   4.711   7.531  0.8777  2.8018  1.3480
  158SAPE  H13S17637   0.166   4.715   7.679  1.0558 -1.7236  0.3260
  158SAPE  C21417638  -0.036   4.633   7.696  0.1231  0.7040 -0.4225
  158SAPE  H14R17639  -0.118   4.605   7.628 -2.3932  3.1704  1.4951
  158SAPE  C21517640  -0.055   4.651   7.820  0.1259 -0.2342  0.1858
  158SAPE  H15R17641  -0.152   4.649   7.872 -0.3055  1.8245 -0.5261
  158SAPE  C21617642   0.045   4.699   7.917 -0.1446 -0.2151 -0.5695
  158SAPE  H16R17643  -0.001   4.785   7.970 -2.1667 -0.4025 -1.9699
  158SAPE  H16S17644   0.137   4.733   7.864 -0.1442  1.1113  0.2418
  158SAPE  C21717645   0.077   4.586   8.013  0.2727 -0.8643 -0.8006
  158SAPE  H17R17646   0.115   4.493   7.966  1.9887  0.0776 -1.3074
  158SAPE  H17S17647  -0.014   4.563   8.072  1.1444  0.0232  0.9165
  158SAPE  C21817648   0.180   4.608   8.131 -0.3077 -0.5183  0.0414
  158SAPE  H18R17649   0.144   4.544   8.215  0.3065  0.3639  0.9885
  158SAPE  H18S17650   0.161   4.715   8.157 -0.0272 -0.3968 -0.2612
  158SAPE  C21917651   0.323   4.594   8.077 -0.0412 -0.5196  0.4928
  158SAPE  H19R17652   0.343   4.670   7.998 -1.0441 -2.0520 -1.2456
  158SAPE  H19S17653   0.329   4.495   8.028  0.0946 -0.4760  0.4211
  158SAPE  C22017654   0.432   4.622   8.182  0.5951  0.8379 -0.1758
  158SAPE  H20R17655   0.533   4.630   8.137  1.1049 -2.0652  0.3345
  158SAPE  H20S17656   0.437   4.537   8.254  0.4659  0.3433 -0.7476
  158SAPE  H20T17657   0.409   4.707   8.250  1.6509 -0.4577  1.8390
  158SAPE   C3317658   0.134   5.089   6.734 -0.2404 -0.1412  1.0851
  158SAPE   H3X17659   0.161   4.983   6.717  0.4855 -0.3291  3.3148
  158SAPE   H3Y17660   0.034   5.088   6.783 -1.6658 -0.6598 -1.7017
  158SAPE   C3417661   0.222   5.147   6.845 -0.2857  0.3331  0.5294
  158SAPE   H4X17662   0.192   5.253   6.857  0.1047  0.4422  0.5568
  158SAPE   H4Y17663   0.331   5.132   6.828 -0.3692  1.2868 -0.9010
  158SAPE   C3517664   0.190   5.083   6.977 -0.2339  0.5570 -0.5455
  158SAPE   H5X17665   0.167   4.975   6.959 -0.2474 -0.0247  2.6806
  158SAPE   H5Y17666   0.098   5.123   7.025 -0.8082 -0.1423 -1.0440
  158SAPE   C3617667   0.307   5.081   7.076 -0.5321  0.1804 -0.0182
  158SAPE   H6X17668   0.343   5.184   7.094  0.9664 -0.1933 -0.8148
  158SAPE   H6Y17669   0.392   5.028   7.027  0.2800  1.9555 -0.5569
  158SAPE   C3717670   0.291   5.013   7.213 -0.4027  0.2981  0.7828
  158SAPE   H7X17671   0.246   4.913   7.193 -2.2292  0.9982  1.3017
  158SAPE   H7Y17672   0.392   5.007   7.259  0.6822  0.8990 -1.4520
  158SAPE   C3817673   0.203   5.086   7.321 -0.7188 -0.4431 -0.0206
  158SAPE   H8X17674   0.105   5.097   7.271 -0.2605  2.3009 -0.4374
  158SAPE   H8Y17675   0.239   5.191   7.330 -1.4798 -0.0928 -0.9637
  158SAPE   C3917676   0.218   5.008   7.452  0.6801  0.1620  0.2847
  158SAPE   H9X17677   0.321   5.030   7.488  1.0735  1.2662 -1.4653
  158SAPE   H9Y17678   0.210   4.901   7.420 -2.2484  0.4335 -0.0530
  158SAPE  C31017679   0.121   5.037   7.562  0.0632  0.0612  0.5850
  158SAPE  H10X17680   0.034   4.969   7.562 -1.3963  1.8830  1.0765
  158SAPE  H10Y17681   0.095   5.145   7.563  1.3591  0.4453 -2.8339
  158SAPE  C31117682   0.189   5.001   7.691 -0.5646  0.9287  0.0580
  158SAPE  H11X17683   0.286   5.053   7.705 -0.1900  0.1764  0.2337
  158SAPE  H11Y17684   0.195   4.893   7.712 -2.7752  0.8028  0.1953
  158SAPE  C31217685   0.105   5.056   7.811 -0.0238  0.1370 -0.2725
  158SAPE  H12X17686   0.003   5.013   7.800  0.8102 -1.2600 -2.7489
  158SAPE  H12Y17687   0.097   5.166   7.793  1.1569  0.2516 -0.1337
  158SAPE  C31317688   0.158   5.020   7.947  0.3292  0.2511 -0.9120
  158SAPE  H13X17689   0.265   5.051   7.956 -0.4352  2.3846  1.5085
  158SAPE  H13Y17690   0.172   4.910   7.947 -1.3271  0.0189  0.0431
  158SAPE  C31417691   0.077   5.056   8.070 -1.0543  0.4553 -0.4036
  158SAPE  H14X17692  -0.030   5.037   8.049 -1.3589  2.2207 -0.5319
  158SAPE  H14Y17693   0.084   5.164   8.092 -2.0572  0.5464 -0.5363
  158SAPE  C31517694   0.123   4.981   8.197  0.1123  0.3633 -0.0140
  158SAPE  H15X17695   0.232   4.961   8.192  0.5813  2.4601  0.9365
  158SAPE  H15Y17696   0.064   4.888   8.210 -0.2518  0.3294 -1.8378
  158SAPE  C31617697   0.098   5.064   8.325 -0.9499  0.3659 -0.6205
  158SAPE  H16X17698  -0.008   5.075   8.353 -0.8740  0.7639 -0.4843
  158SAPE  H16Y17699   0.128   5.168   8.299  0.7851  0.7882  2.7720
  158SAPE  C31717700   0.189   5.015   8.438 -0.2975  0.3673  0.0504
  158SAPE  H17X17701   0.188   5.095   8.515  1.1054 -0.9499  1.4861
  158SAPE  H17Y17702   0.293   5.000   8.403 -0.4505  2.4779 -1.3774
  158SAPE  C31817703   0.132   4.893   8.505 -0.8486 -0.0263 -0.2208
  158SAPE  H18X17704   0.027   4.910   8.535 -1.4633 -4.0470  0.1961
  158SAPE  H18Y17705   0.194   4.869   8.594 -1.6293  0.0071  0.3255
  158SAPE  H18Z17706   0.134   4.819   8.422 -0.3125  1.0314 -1.1767
  159SAPE     N17707   0.062   1.698   6.089 -0.3445  0.2507 -0.0617
  159SAPE   HN117708   0.141   1.711   6.023 -0.7728 -1.1312 -0.8651
  159SAPE   HN217709   0.056   1.596   6.109  1.2831 -0.2073 -1.7557
  159SAPE   HN317710  -0.027   1.719   6.039 -1.0399 -0.4477  0.8686
  159SAPE   C1217711   0.082   1.768   6.220 -0.0171  0.2575  0.2734
  159SAPE  H12A17712   0.113   1.871   6.195  0.2547  0.1111 -0.0008
  159SAPE  H12B17713   0.168   1.719   6.271 -0.1463 -1.2123 -0.8701
  159SAPE   C1117714  -0.052   1.775   6.289  0.5075 -0.4831 -0.3356
  159SAPE  H11A17715  -0.116   1.839   6.225  1.5692  0.2221 -0.7007
  159SAPE  H11B17716  -0.051   1.824   6.389 -2.1984  1.6755 -1.3002
  159SAPE     P17717  -0.253   1.624   6.304  0.1327 -0.1986 -0.0676
  159SAPE   O1317718  -0.311   1.701   6.194  0.2644  0.2494 -0.2664
  159SAPE   O1417719  -0.281   1.482   6.307 -0.5566  0.1935  0.2274
  159SAPE   O1217720  -0.098   1.641   6.302 -0.0538 -0.0225 -0.0297
  159SAPE   O1117721  -0.292   1.693   6.442 -0.5043 -0.0790  0.0354
  159SAPE    C117722  -0.286   1.622   6.569  0.4598  0.2079 -0.2037
  159SAPE    HA17723  -0.181   1.589   6.583  0.0803 -0.7044  0.5600
  159SAPE    HB17724  -0.319   1.701   6.641 -1.3275 -0.8932  0.2194
  159SAPE    C217725  -0.381   1.501   6.583 -0.5782  1.0782 -0.0922
  159SAPE    HS17726  -0.360   1.426   6.504 -2.3218  0.6987 -0.2173
  159SAPE   O2117727  -0.512   1.562   6.570  0.1182 -0.3141  0.1571
  159SAPE   C2117728  -0.609   1.490   6.525  0.6961  0.5074 -0.3271
  159SAPE   O2217729  -0.601   1.376   6.478  0.1550 -0.3590 -0.5718
  159SAPE   C2217730  -0.730   1.574   6.519 -0.0175 -0.5128 -0.1738
  159SAPE   H2R17731  -0.711   1.671   6.469 -1.6441  0.5495  1.1928
  159SAPE   H2S17732  -0.795   1.516   6.449  1.2440 -2.0418 -0.0866
  159SAPE    C317733  -0.368   1.439   6.718 -0.1161  0.2051 -0.8022
  159SAPE    HX17734  -0.466   1.392   6.739  0.8874 -1.1577  1.0846
  159SAPE    HY17735  -0.354   1.519   6.793  0.0298  1.0929 -1.7700
  159SAPE   O3117736  -0.249   1.360   6.739 -0.0713  0.0296 -0.4231
  159SAPE   C3117737  -0.273   1.225   6.733 -0.4143 -0.3316  0.4121
  159SAPE   O3217738  -0.380   1.181   6.708 -0.0387 -0.4238  0.1238
  159SAPE   C3217739  -0.146   1.153   6.763  0.7137 -0.2550 -0.1096
  159SAPE   H2X17740  -0.084   1.219   6.827 -0.8265  1.3317 -0.2408
  159SAPE   H2Y17741  -0.082   1.136   6.673  0.5460  0.3993 -0.3499
  159SAPE   C2317742  -0.794   1.590   6.659  0.1429 -0.9766  0.2310
  159SAPE   H3R17743  -0.878   1.658   6.635 -2.2567 -2.3846  4.2923
  159SAPE   H3S17744  -0.729   1.638   6.735  0.8796  1.5730 -1.9242
  159SAPE   C2417745  -0.863   1.469   6.722  0.1647 -0.1085  0.0008
  159SAPE   H4R17746  -0.937   1.437   6.646  0.7891 -1.0725 -0.2156
  159SAPE   H4S17747  -0.917   1.511   6.810  1.8036  1.3674  0.3527
  159SAPE   C2517748  -0.773   1.356   6.753 -0.7941 -0.1586  0.1699
  159SAPE   H5R17749  -0.769   1.275   6.679 -0.0198  0.1989 -0.1853
  159SAPE   C2617750  -0.701   1.331   6.867  0.0224  0.2977 -0.2936
  159SAPE   H6R17751  -0.624   1.254   6.862 -1.1856 -0.7909 -3.1088
  159SAPE   C2717752  -0.704   1.424   6.991 -0.0992  0.2600 -0.0995
  159SAPE   H7R17753  -0.714   1.366   7.085 -1.5899 -0.9897 -1.0188
  159SAPE   H7S17754  -0.803   1.474   6.987  0.6826  1.7012 -2.1855
  159SAPE   C2817755  -0.598   1.528   7.000 -0.2709  0.9703 -0.1011
  159SAPE   H8R17756  -0.583   1.585   6.907 -1.9899  3.0472  0.8635
  159SAPE   C2917757  -0.518   1.559   7.107  0.6852 -0.3524 -0.1561
  159SAPE   H9R17758  -0.441   1.636   7.090 -0.0416  0.5082  0.3662
  159SAPE  C21017759  -0.522   1.496   7.240 -0.1252 -0.0172 -0.1768
  159SAPE  H10R17760  -0.621   1.449   7.256 -0.1056  0.2554  0.8001
  159SAPE  H10S17761  -0.507   1.578   7.314 -0.7273 -1.0636  1.1313
  159SAPE  C21117762  -0.412   1.394   7.265 -0.0912 -0.0392  0.3714
  159SAPE  H11R17763  -0.354   1.361   7.178 -1.3124 -0.2817 -0.3632
  159SAPE  C21217764  -0.388   1.329   7.384 -0.6283 -0.5330  0.2980
  159SAPE  H12R17765  -0.301   1.261   7.386 -0.2256 -0.0781 -1.2776
  159SAPE  C21317766  -0.456   1.353   7.515  0.0403  0.2506  0.3556
  159SAPE  H13R17767  -0.430   1.268   7.581 -2.9704 -1.6854 -0.8711
  159SAPE  H13S17768  -0.565   1.338   7.501  0.2735 -2.0909  0.8021
  159SAPE  C21417769  -0.423   1.488   7.577  0.2474  0.4863  0.8146
  159SAPE  H14R17770  -0.392   1.568   7.507  0.6772  0.1123  0.5796
  159SAPE  C21517771  -0.412   1.510   7.708  0.0768  1.0428 -1.0327
  159SAPE  H15R17772  -0.401   1.610   7.752  1.1476  0.9553 -1.0867
  159SAPE  C21617773  -0.426   1.412   7.823  0.2707  0.1279 -0.1950
  159SAPE  H16R17774  -0.492   1.326   7.802  0.0033  0.2405  0.1912
  159SAPE  H16S17775  -0.472   1.469   7.906 -0.1195 -0.2720 -0.1359
  159SAPE  C21717776  -0.293   1.334   7.858  0.9094 -0.1507  0.6763
  159SAPE  H17R17777  -0.219   1.413   7.883  0.1982  0.6266  0.3697
  159SAPE  H17S17778  -0.259   1.292   7.762  2.0777  3.1747 -0.4450
  159SAPE  C21817779  -0.318   1.247   7.979 -0.3360 -0.0432  0.6207
  159SAPE  H18R17780  -0.251   1.160   7.971  0.4899  0.5366  1.1693
  159SAPE  H18S17781  -0.426   1.221   7.967 -1.1921  3.2266  0.4534
  159SAPE  C21917782  -0.311   1.328   8.115  0.1591 -0.1089 -0.1952
  159SAPE  H19R17783  -0.410   1.376   8.125  0.8832  1.4698 -0.3987
  159SAPE  H19S17784  -0.241   1.414   8.120 -1.0399  0.8471  0.2502
  159SAPE  C22017785  -0.300   1.245   8.246  0.3027  0.2103 -0.2302
  159SAPE  H20R17786  -0.360   1.152   8.233  1.2660 -0.1552 -2.2288
  159SAPE  H20S17787  -0.334   1.304   8.333  1.7819  1.5524 -0.5224
  159SAPE  H20T17788  -0.197   1.207   8.266  0.8660  0.5355 -2.3350
  159SAPE   C3317789  -0.175   1.020   6.839 -0.2369 -0.1676  0.4867
  159SAPE   H3X17790  -0.085   0.959   6.815 -1.6056 -2.2499  0.5105
  159SAPE   H3Y17791  -0.258   0.968   6.787  0.8164 -3.5028  1.9869
  159SAPE   C3417792  -0.199   1.030   6.989 -0.2335  0.3815 -0.3043
  159SAPE   H4X17793  -0.209   0.929   7.034  1.6917  0.7866  1.0541
  159SAPE   H4Y17794  -0.284   1.094   7.021 -1.3636  0.0855 -2.6179
  159SAPE   C3517795  -0.077   1.074   7.067 -0.1848  0.6336 -0.5874
  159SAPE   H5X17796  -0.024   1.157   7.016  1.0405  0.8887  1.0526
  159SAPE   H5Y17797   0.002   0.996   7.060  1.0226  1.8348 -0.6560
  159SAPE   C3617798  -0.101   1.096   7.213  0.2056 -0.8890 -0.2129
  159SAPE   H6X17799  -0.183   1.170   7.227  1.5897  1.1001 -2.2208
  159SAPE   H6Y17800  -0.004   1.125   7.260  0.8775 -0.7461 -1.6638
  159SAPE   C3717801  -0.152   0.972   7.276 -0.0038 -0.4713  0.6682
  159SAPE   H7X17802  -0.094   0.884   7.239  1.3503  0.5150  0.4243
  159SAPE   H7Y17803  -0.252   0.957   7.230 -0.0346  0.4167  0.4446
  159SAPE   C3817804  -0.170   0.973   7.429 -0.9581  0.9396  0.1530
  159SAPE   H8X17805  -0.195   0.868   7.455 -1.2625  0.2141 -2.8975
  159SAPE   H8Y17806  -0.250   1.038   7.470  1.1519  3.1446  0.9253
  159SAPE   C3917807  -0.036   0.999   7.504  0.7418 -0.6787 -0.1297
  159SAPE   H9X17808  -0.004   1.101   7.474 -1.7932 -0.4100 -2.1626
  159SAPE   H9Y17809   0.043   0.927   7.474  1.3211  1.0874 -3.0469
  159SAPE  C31017810  -0.057   0.982   7.654  0.6223  0.2585  0.3256
  159SAPE  H10X17811  -0.098   0.882   7.678  1.2634  0.5488  2.8053
  159SAPE  H10Y17812  -0.128   1.065   7.674  0.3583 -0.1926  1.2908
  159SAPE  C31117813   0.065   1.011   7.742  0.0558 -0.2844  0.3540
  159SAPE  H11X17814   0.141   1.074   7.692 -1.5025  1.2649 -0.1064
  159SAPE  H11Y17815   0.114   0.913   7.761  1.3738  0.3532  0.3392
  159SAPE  C31217816   0.035   1.056   7.886  0.5509 -0.4298 -0.2676
  159SAPE  H12X17817  -0.018   1.154   7.878  0.7611 -0.3511 -0.7512
  159SAPE  H12Y17818   0.130   1.078   7.938  1.6761 -1.2429 -1.9307
  159SAPE  C31317819  -0.047   0.953   7.960 -0.1076  0.3324 -0.0551
  159SAPE  H13X17820  -0.029   0.855   7.912 -1.4004  0.7218 -1.3849
  159SAPE  H13Y17821  -0.155   0.980   7.949 -0.0908 -0.2001 -1.6496
  159SAPE  C31417822  -0.011   0.937   8.111 -0.6113 -0.1248  0.4758
  159SAPE  H14X17823  -0.026   1.035   8.162 -0.3263  1.0524 -1.6378
  159SAPE  H14Y17824   0.099   0.931   8.120 -0.3163 -2.2031 -3.6728
  159SAPE  C31517825  -0.076   0.822   8.189  0.7012  0.2812 -0.5059
  159SAPE  H15X17826  -0.051   0.719   8.156 -3.3510 -0.6619 -0.9060
  159SAPE  H15Y17827  -0.185   0.830   8.169  1.2501  1.9714 -2.9864
  159SAPE  C31617828  -0.039   0.825   8.333  0.6978 -0.6628  0.4266
  159SAPE  H16X17829  -0.058   0.921   8.385  0.7259  0.1887 -1.1316
  159SAPE  H16Y17830   0.071   0.808   8.331  0.7445 -0.2014 -1.5468
  159SAPE  C31717831  -0.112   0.721   8.418  0.3488  0.2564 -0.1036
  159SAPE  H17X17832  -0.122   0.625   8.363 -0.1804  0.6138 -0.6348
  159SAPE  H17Y17833  -0.216   0.755   8.439  0.4564 -0.0621  0.9761
  159SAPE  C31817834  -0.039   0.706   8.556 -0.0972  0.7124 -0.5123
  159SAPE  H18X17835  -0.065   0.623   8.625 -0.4670 -0.7319 -2.3680
  159SAPE  H18Y17836  -0.047   0.801   8.613  0.4333  1.1183 -1.1025
  159SAPE  H18Z17837   0.072   0.697   8.547 -0.1380 -3.0177  1.6336
  160SAPE     N17838   0.693   6.122   6.338  0.5650  0.2106  0.0299
  160SAPE   HN117839   0.753   6.168   6.410  1.8193 -2.3155  0.6645
  160SAPE   HN217840   0.601   6.091   6.374 -0.3052  1.0494 -1.4334
  160SAPE   HN317841   0.744   6.035   6.312 -1.1531 -1.4620  2.0616
  160SAPE   C1217842   0.688   6.223   6.225 -0.0925  0.2986  0.6570
  160SAPE  H12A17843   0.667   6.173   6.129  0.2361  2.1012 -0.3718
  160SAPE  H12B17844   0.788   6.272   6.225 -0.2686  0.6584  0.4991
  160SAPE   C1117845   0.591   6.345   6.238 -0.3715 -0.3063  0.1673
  160SAPE  H11A17846   0.589   6.405   6.145  0.7519 -1.3230 -0.5376
  160SAPE  H11B17847   0.641   6.414   6.309 -0.6139 -0.4169  0.4461
  160SAPE     P17848   0.367   6.419   6.359 -0.1550 -0.2674  0.5477
  160SAPE   O1317849   0.380   6.561   6.315 -0.2685  0.0474 -0.2154
  160SAPE   O1417850   0.230   6.369   6.379 -0.2806  0.2869 -0.2189
  160SAPE   O1217851   0.456   6.310   6.286 -0.4852  0.1261  0.3414
  160SAPE   O1117852   0.427   6.432   6.505 -0.4941 -0.0245 -0.2027
  160SAPE    C117853   0.463   6.321   6.583  0.0328 -0.5649  0.0584
  160SAPE    HA17854   0.539   6.255   6.536 -0.8824 -1.2260 -0.5120
  160SAPE    HB17855   0.536   6.353   6.661 -0.9824 -3.4440  2.3046
  160SAPE    C217856   0.352   6.231   6.647  0.6152 -0.0470  0.5615
  160SAPE    HS17857   0.330   6.156   6.568 -0.1437  2.7781 -1.9914
  160SAPE   O2117858   0.235   6.310   6.686 -0.3620  0.2625 -0.3051
  160SAPE   C2117859   0.120   6.252   6.672 -0.6141  0.3013 -0.2391
  160SAPE   O2217860   0.092   6.144   6.615  0.0696  0.0443  0.2858
  160SAPE   C2217861   0.015   6.345   6.730 -0.5545 -0.1627  0.6291
  160SAPE   H2R17862  -0.042   6.401   6.653 -1.7762 -1.4633  0.5622
  160SAPE   H2S17863  -0.058   6.288   6.791 -0.0243 -0.0384  1.3913
  160SAPE    C317864   0.407   6.144   6.769  0.8903  0.4293  0.6122
  160SAPE    HX17865   0.455   6.220   6.836  1.3079 -0.7229  1.6319
  160SAPE    HY17866   0.489   6.077   6.735 -1.1611 -1.1308 -1.3717
  160SAPE   O3117867   0.307   6.087   6.857 -0.0941 -0.4517 -0.3572
  160SAPE   C3117868   0.301   5.958   6.872  0.4475  0.3644  0.1794
  160SAPE   O3217869   0.351   5.868   6.808 -0.6966  0.0046  0.1925
  160SAPE   C3217870   0.216   5.932   6.995 -0.5019  0.7515 -0.3531
  160SAPE   H2X17871   0.109   5.939   6.966 -0.0323  2.5594 -1.7502
  160SAPE   H2Y17872   0.241   6.017   7.062  1.6912  1.2130 -1.7294
  160SAPE   C2317873   0.066   6.446   6.838 -0.0825 -0.1728 -0.2924
  160SAPE   H3R17874  -0.012   6.523   6.855  0.3481 -0.1687  1.7661
  160SAPE   H3S17875   0.142   6.506   6.783 -0.3477  0.3367 -0.1100
  160SAPE   C2417876   0.117   6.396   6.973  0.4323  0.6088  0.0514
  160SAPE   H4R17877   0.210   6.340   6.950  0.6642  1.3292 -0.8143
  160SAPE   H4S17878   0.049   6.319   7.014  2.9896 -1.4785  0.4684
  160SAPE   C2517879   0.127   6.518   7.058  0.2970 -0.2960 -0.4080
  160SAPE   H5R17880   0.154   6.609   7.003 -0.0979  0.2149  0.2362
  160SAPE   C2617881   0.096   6.532   7.189  0.0427 -0.1250  0.1334
  160SAPE   H6R17882   0.129   6.630   7.225  0.9850 -0.9081  1.4198
  160SAPE   C2717883   0.040   6.441   7.298 -0.6226  0.2448 -0.3859
  160SAPE   H7R17884   0.108   6.450   7.386 -1.9375  2.2568  0.4752
  160SAPE   H7S17885   0.034   6.337   7.260  2.6831 -0.6630  1.3542
  160SAPE   C2817886  -0.099   6.477   7.339  0.7552 -0.3558 -0.2990
  160SAPE   H8R17887  -0.150   6.526   7.255  2.3082  2.0538  0.1349
  160SAPE   C2917888  -0.154   6.447   7.464  0.4006 -0.0089 -0.3267
  160SAPE   H9R17889  -0.259   6.476   7.479  0.4952 -0.3107  0.9624
  160SAPE  C21017890  -0.080   6.399   7.585  0.9487  0.9780 -0.1175
  160SAPE  H10R17891   0.029   6.410   7.564  1.1889  1.4862  1.3112
  160SAPE  H10S17892  -0.098   6.293   7.614  1.0094  1.2469  0.9269
  160SAPE  C21117893  -0.082   6.486   7.712  0.1939  0.8095  0.4123
  160SAPE  H11R17894  -0.023   6.578   7.701 -0.4697  1.3443  1.2939
  160SAPE  C21217895  -0.154   6.473   7.823  0.8183 -0.7411  0.2502
  160SAPE  H12R17896  -0.149   6.555   7.895 -2.1587  0.0596 -0.3651
  160SAPE  C21317897  -0.243   6.359   7.857  0.4973  0.5239  0.3209
  160SAPE  H13R17898  -0.245   6.350   7.968  1.2957 -0.0877  0.2880
  160SAPE  H13S17899  -0.194   6.269   7.816 -0.6196  0.5706 -1.1619
  160SAPE  C21417900  -0.385   6.365   7.799 -0.5075  0.1739 -0.2863
  160SAPE  H14R17901  -0.396   6.411   7.700 -0.7347 -1.3688 -0.9943
  160SAPE  C21517902  -0.505   6.323   7.852  0.3837  0.1672 -0.1134
  160SAPE  H15R17903  -0.597   6.339   7.794 -1.4359 -0.4921  2.4866
  160SAPE  C21617904  -0.527   6.264   7.995 -0.0954  0.1396 -0.0464
  160SAPE  H16R17905  -0.435   6.265   8.057 -1.0207  1.3455  1.3187
  160SAPE  H16S17906  -0.565   6.160   7.989  2.0849 -0.7311  0.8315
  160SAPE  C21717907  -0.632   6.336   8.080  0.5458  0.1277  0.0012
  160SAPE  H17R17908  -0.727   6.325   8.025 -0.8467 -0.1419  2.3890
  160SAPE  H17S17909  -0.614   6.445   8.097  1.1119  0.2126 -1.1160
  160SAPE  C21817910  -0.662   6.283   8.215 -0.6424 -0.3297 -0.5596
  160SAPE  H18R17911  -0.581   6.327   8.277 -1.4307 -1.5135  1.3598
  160SAPE  H18S17912  -0.651   6.174   8.228 -0.1339 -0.4632 -2.0006
  160SAPE  C21917913  -0.796   6.333   8.274 -0.1422 -0.2979 -0.2561
  160SAPE  H19R17914  -0.880   6.285   8.220  1.0855  1.8816 -4.3150
  160SAPE  H19S17915  -0.794   6.444   8.263  1.6477 -0.2812  0.0733
  160SAPE  C22017916  -0.816   6.291   8.425 -0.0512 -0.3567 -0.4174
  160SAPE  H20R17917  -0.717   6.295   8.475 -0.7520 -0.0382  0.9859
  160SAPE  H20S17918  -0.843   6.183   8.424 -2.9108  0.3133 -1.8514
  160SAPE  H20T17919  -0.899   6.343   8.478 -1.4791 -0.1249 -2.8315
  160SAPE   C3317920   0.257   5.798   7.063 -0.2197 -0.1174  0.1657
  160SAPE   H3X17921   0.367   5.785   7.064 -0.3593 -1.3288  0.4133
  160SAPE   H3Y17922   0.219   5.713   7.002  1.0649 -0.8488  0.3710
  160SAPE   C3417923   0.209   5.786   7.201 -0.4231  0.4982 -0.1591
  160SAPE   H4X17924   0.099   5.797   7.210 -0.6366 -2.4157  1.2911
  160SAPE   H4Y17925   0.258   5.869   7.257  1.2091  0.1532 -1.0392
  160SAPE   C3517926   0.244   5.651   7.264 -0.5954  0.4463 -0.2160
  160SAPE   H5X17927   0.351   5.623   7.258  0.3124  3.6213  0.2278
  160SAPE   H5Y17928   0.188   5.575   7.207 -0.1048  0.3369 -0.5497
  160SAPE   C3617929   0.205   5.645   7.408 -0.2400 -0.5352 -0.4160
  160SAPE   H6X17930   0.096   5.656   7.424  0.2946  4.0874  0.7214
  160SAPE   H6Y17931   0.263   5.723   7.462 -1.2365  0.8481 -1.3500
  160SAPE   C3717932   0.253   5.510   7.475  0.1433 -0.1043 -0.2496
  160SAPE   H7X17933   0.350   5.474   7.435  1.4565 -1.0150  3.4881
  160SAPE   H7Y17934   0.184   5.426   7.449  0.9220 -0.5440 -0.8893
  160SAPE   C3817935   0.257   5.526   7.624  0.6482 -0.1265 -0.0376
  160SAPE   H8X17936   0.343   5.594   7.643  0.1230 -0.0338  2.1676
  160SAPE   H8Y17937   0.282   5.430   7.674  3.1706 -0.4010 -1.7229
  160SAPE   C3917938   0.130   5.583   7.692  0.6151  0.2377 -0.1435
  160SAPE   H9X17939   0.058   5.498   7.698  0.7572 -0.0111 -1.8847
  160SAPE   H9Y17940   0.096   5.677   7.643 -0.6580 -0.4461 -0.5932
  160SAPE  C31017941   0.146   5.626   7.846  0.2219 -0.4770 -1.1184
  160SAPE  H10X17942   0.207   5.544   7.891 -0.3977 -2.1686 -3.3196
  160SAPE  H10Y17943   0.043   5.631   7.888  1.2390 -0.6801  1.5524
  160SAPE  C31117944   0.229   5.751   7.861  0.6531 -0.3196 -0.3035
  160SAPE  H11X17945   0.171   5.831   7.811  0.4454  1.4811  2.6925
  160SAPE  H11Y17946   0.324   5.746   7.804  0.4523  0.0917 -0.6749
  160SAPE  C31217947   0.260   5.800   8.003  0.1350  0.7782  0.0229
  160SAPE  H12X17948   0.334   5.882   7.994  0.9648  0.0134 -0.2472
  160SAPE  H12Y17949   0.325   5.725   8.054  0.7307  0.9718 -0.4412
  160SAPE  C31317950   0.142   5.843   8.085 -0.2427  0.5169  0.2473
  160SAPE  H13X17951   0.086   5.755   8.122 -1.0613  0.2243 -1.6349
  160SAPE  H13Y17952   0.073   5.907   8.026  1.3224  0.7492 -1.4091
  160SAPE  C31417953   0.180   5.946   8.196  0.0942 -0.1294 -0.4626
  160SAPE  H14X17954   0.247   6.022   8.152  0.7563  0.8093  2.0446
  160SAPE  H14Y17955   0.247   5.895   8.269 -0.7464 -0.2471  0.2435
  160SAPE  C31517956   0.060   6.006   8.266 -0.3824 -0.1278 -0.2365
  160SAPE  H15X17957   0.020   6.083   8.196 -5.4234 -1.7419  0.6830
  160SAPE  H15Y17958   0.097   6.067   8.351 -1.2254 -1.6034  1.2077
  160SAPE  C31617959  -0.045   5.897   8.304 -0.0719  0.1502 -0.3530
  160SAPE  H16X17960   0.011   5.842   8.382 -2.0236  0.3008  1.1999
  160SAPE  H16Y17961  -0.072   5.824   8.224 -1.5003  1.2351 -0.8895
  160SAPE  C31717962  -0.184   5.948   8.373 -0.0529 -0.4157  0.3152
  160SAPE  H17X17963  -0.144   6.001   8.462 -0.5655 -0.6452  0.6845
  160SAPE  H17Y17964  -0.248   5.860   8.395 -0.7039 -0.0873 -0.2546
  160SAPE  C31817965  -0.277   6.036   8.287  0.1940 -0.3434 -0.2113
  160SAPE  H18X17966  -0.377   6.053   8.330 -0.4558 -1.9318 -1.0446
  160SAPE  H18Y17967  -0.293   5.981   8.191 -1.4122  1.4556 -0.9961
  160SAPE  H18Z17968  -0.220   6.130   8.268  0.2230 -0.3213 -0.0090
  161SOPE     N17969   4.836   0.294  10.676 -0.0776  0.0718  0.0420
  161SOPE   HN117970   4.791   0.269  10.766  0.2169  0.5878  0.3364
  161SOPE   HN217971   4.827   0.206  10.622  0.0519 -1.0427  1.7857
  161SOPE   HN317972   4.939   0.309  10.679  0.0370 -0.6072 -0.3316
  161SOPE   C1217973   4.765   0.392  10.592 -0.2722  0.4455  0.4807
  161SOPE  H12A17974   4.744   0.482  10.654 -1.5005 -0.0371  0.7719
  161SOPE  H12B17975   4.668   0.352  10.556  0.6653  0.8141 -2.6060
  161SOPE   C1117976   4.843   0.428  10.469 -0.0197  0.4031 -0.1406
  161SOPE  H11A17977   4.794   0.490  10.391  1.9532  0.5333 -1.3253
  161SOPE  H11B17978   4.850   0.338  10.404 -1.1511 -0.6830  1.2000
  161SOPE     P17979   5.006   0.624  10.506  0.4457  0.1131 -0.4514
  161SOPE   O1317980   5.144   0.653  10.554  0.3996  0.2532  0.2362
  161SOPE   O1417981   4.895   0.686  10.581 -0.3147 -0.4507  0.2485
  161SOPE   O1217982   4.975   0.470  10.504 -0.2423  0.0857  0.0335
  161SOPE   O1117983   4.998   0.659  10.353 -0.2344  0.1855  0.0443
  161SOPE    C117984   5.055   0.567  10.259 -0.1450  0.0016 -0.4612
  161SOPE    HA17985   4.966   0.520  10.211 -0.0337 -0.4180 -0.2551
  161SOPE    HB17986   5.111   0.482  10.303  1.5823  1.2794 -0.1259
  161SOPE    C217987   5.134   0.635  10.150  0.3862  0.4047  0.9655
  161SOPE    HS17988   5.223   0.688  10.189  0.6978  1.0926 -0.6149
  161SOPE   O2117989   5.048   0.722  10.080 -0.0610  0.0333 -0.4142
  161SOPE   C2117990   5.042   0.848  10.131 -0.5561 -0.1326  0.0734
  161SOPE   O2217991   5.105   0.898  10.223 -0.2345  0.5159 -0.4579
  161SOPE   C2217992   4.923   0.918  10.063 -0.0425  0.0268  0.1303
  161SOPE   H2R17993   4.889   0.989  10.141 -0.6350  0.0757 -0.1625
  161SOPE   H2S17994   4.840   0.844  10.054 -0.2984  0.2599  0.5635
  161SOPE    C317995   5.209   0.540  10.050 -0.0465  0.4558  0.0794
  161SOPE    HX17996   5.268   0.465  10.107  0.4061  1.0823  0.4407
  161SOPE    HY17997   5.281   0.605   9.994  1.2485 -2.8124 -2.2562
  161SOPE   O3117998   5.119   0.472   9.963 -0.4667 -0.1660  0.7104
  161SOPE   C3117999   5.156   0.454   9.837  0.0696  0.5178  0.4142
  161SOPE   O3218000   5.263   0.494   9.788 -0.2578  0.0220  0.5291
  161SOPE   C3218001   5.052   0.365   9.767 -0.1219  0.0624  0.1645
  161SOPE   H2X18002   4.953   0.414   9.759 -0.5571 -0.5107  1.8730
  161SOPE   H2Y18003   5.037   0.277   9.834  0.4099  0.9734  1.4989
  161SOPE   C2318004   4.971   0.997   9.940 -0.2087  0.2738 -0.0254
  161SOPE   H3R18005   5.064   1.053   9.964 -0.1618  1.3085 -2.4498
  161SOPE   H3S18006   4.891   1.071   9.918  1.0916  1.7981  0.2364
  161SOPE   C2418007   5.001   0.920   9.809  0.0310 -0.6992  0.1714
  161SOPE   H4R18008   5.077   0.840   9.825  0.4693  0.0590  2.0409
  161SOPE   H4S18009   4.911   0.861   9.783 -0.1861  0.0491 -0.7813
  161SOPE   C2518010   5.056   1.007   9.694  0.9398 -0.0085  0.5786
  161SOPE   H5R18011   4.994   1.098   9.683 -0.0196 -0.6819  0.3240
  161SOPE   H5S18012   5.158   1.048   9.708  1.2000 -0.8450  1.1629
  161SOPE   C2618013   5.039   0.940   9.558 -0.4968 -0.7486  0.4756
  161SOPE   H6R18014   4.935   0.911   9.533 -0.9875  0.2771  1.2745
  161SOPE   H6S18015   5.076   1.006   9.477 -2.0451 -0.3621  0.0707
  161SOPE   C2718016   5.113   0.808   9.547 -1.0096 -0.0937  0.0719
  161SOPE   H7R18017   5.113   0.750   9.642 -2.3137  1.0476  0.7725
  161SOPE   H7S18018   5.071   0.740   9.470 -0.4254  0.6308 -0.9006
  161SOPE   C2818019   5.266   0.825   9.509  0.6385  0.2651 -0.9026
  161SOPE   H8R18020   5.265   0.866   9.406 -2.0036  0.6872 -0.7312
  161SOPE   H8S18021   5.307   0.885   9.593  1.8196 -0.5150 -0.9022
  161SOPE   C2918022   5.345   0.700   9.512 -0.7743  0.0093  0.5025
  161SOPE   H9118023   5.384   0.678   9.612  1.4397  0.1139 -0.2831
  161SOPE  C21018024   5.384   0.625   9.410 -1.1965  0.0083  0.2026
  161SOPE  H10118025   5.416   0.521   9.423 -2.3753 -0.5430 -1.0870
  161SOPE  C21118026   5.334   0.644   9.269  0.0289  0.1296  0.2523
  161SOPE  H11R18027   5.229   0.681   9.277  0.6784  1.7853  1.1761
  161SOPE  H11S18028   5.318   0.548   9.214  1.1122 -1.0409  1.9578
  161SOPE  C21218029   5.423   0.723   9.172 -0.4334 -0.0894 -0.2773
  161SOPE  H12R18030   5.457   0.820   9.212  1.0168 -0.0590 -1.5462
  161SOPE  H12S18031   5.376   0.744   9.073  0.5848 -0.3982 -0.8387
  161SOPE  C21318032   5.548   0.645   9.137 -1.0224  0.3343 -0.0018
  161SOPE  H13R18033   5.612   0.620   9.224 -0.0929  0.7774 -0.5454
  161SOPE  H13S18034   5.609   0.715   9.077  0.5519  0.2539  1.4698
  161SOPE  C21418035   5.522   0.524   9.043  0.0899  0.7957 -0.7949
  161SOPE  H14R18036   5.478   0.559   8.947 -0.1120 -0.8413 -1.3222
  161SOPE  H14S18037   5.450   0.454   9.090  0.4020  2.8252  2.8468
  161SOPE  C21518038   5.651   0.444   9.009  0.0380  0.0412 -0.2430
  161SOPE  H15R18039   5.680   0.400   9.107  1.1161  1.4633  0.0913
  161SOPE  H15S18040   5.731   0.510   8.969  0.4938  0.2150  0.9349
  161SOPE  C21618041   5.621   0.341   8.896  0.5757  0.7489  0.1993
  161SOPE  H16R18042   5.722   0.305   8.867  0.3983  1.6794 -1.6316
  161SOPE  H16S18043   5.572   0.392   8.810  1.9369  0.4586 -0.7578
  161SOPE  C21718044   5.544   0.215   8.948 -0.0696 -0.2973  0.3210
  161SOPE  H17R18045   5.442   0.254   8.966  0.2653  1.5765 -1.5800
  161SOPE  H17S18046   5.578   0.185   9.049  1.6243 -0.0286 -0.1480
  161SOPE  C21818047   5.546   0.096   8.854  0.1393  0.3639  0.1898
  161SOPE  H18R18048   5.488   0.013   8.898  0.4863  0.0194 -0.0029
  161SOPE  H18S18049   5.644   0.057   8.821 -1.4622 -2.3267 -1.5243
  161SOPE  H18T18050   5.491   0.124   8.761  1.7217 -1.1509 -1.2453
  161SOPE   C3318051   5.109   0.309   9.637  0.7633  0.2284 -0.5035
  161SOPE   H3X18052   5.056   0.213   9.619  0.4055  0.3847 -0.2775
  161SOPE   H3Y18053   5.218   0.292   9.646  0.2638 -2.3061  1.1815
  161SOPE   C3418054   5.088   0.403   9.515 -0.3157 -0.2485  0.3359
  161SOPE   H4X18055   5.174   0.472   9.515 -1.0789  0.7169 -0.3566
  161SOPE   H4Y18056   4.997   0.466   9.521  0.3975  0.5483  3.3266
  161SOPE   C3518057   5.092   0.325   9.386  0.2924  0.0017  0.2523
  161SOPE   H5X18058   5.073   0.395   9.302 -2.1767 -0.2167  0.5986
  161SOPE   H5Y18059   5.018   0.242   9.390  3.8503 -3.4889 -1.8454
  161SOPE   C3618060   5.227   0.258   9.361 -0.2207  0.6881  0.4300
  161SOPE   H6X18061   5.243   0.177   9.435  1.1232 -1.0007 -1.6623
  161SOPE   H6Y18062   5.303   0.338   9.369 -0.1423  0.6117  0.4543
  161SOPE   C3718063   5.255   0.204   9.220 -0.5557 -0.1169  0.6052
  161SOPE   H7X18064   5.363   0.178   9.211 -0.3209  1.2206 -0.5331
  161SOPE   H7Y18065   5.247   0.288   9.148 -0.7081 -0.9793 -0.3946
  161SOPE   C3818066   5.163   0.083   9.193 -0.2068  0.3148  0.7023
  161SOPE   H8X18067   5.061   0.128   9.190  0.5160  1.9369 -1.3144
  161SOPE   H8Y18068   5.177   0.025   9.286 -1.3207  1.3638  1.5455
  161SOPE   C3918069   5.198   0.003   9.068  0.6460 -0.4614  0.0140
  161SOPE   H9X18070   5.307  -0.017   9.062  0.6960 -0.7787  1.7706
  161SOPE   H9Y18071   5.183   0.067   8.978  3.0936  2.3351  1.4824
  161SOPE  C31018072   5.120  -0.135   9.048  0.1386  0.2953 -0.5106
  161SOPE  H10X18073   5.018  -0.091   9.040 -0.1334 -0.4284 -1.0415
  161SOPE  H10Y18074   5.135  -0.207   9.131 -1.1943  1.7515  1.0352
  161SOPE  C31118075   5.159  -0.206   8.915 -0.3618 -0.7214 -0.1296
  161SOPE  H11X18076   5.112  -0.151   8.831  0.0167 -2.1078 -1.2671
  161SOPE  H11Y18077   5.108  -0.305   8.913 -1.9861 -0.0171  2.9370
  161SOPE  C31218078   5.310  -0.221   8.884  0.5136 -1.1526 -0.5324
  161SOPE  H12X18079   5.363  -0.276   8.964 -0.0475  0.1752  0.7786
  161SOPE  H12Y18080   5.352  -0.118   8.886  0.2267 -1.0222 -1.0554
  161SOPE  C31318081   5.328  -0.282   8.742 -0.2547  0.0822 -0.3159
  161SOPE  H13X18082   5.256  -0.247   8.665 -0.1716  0.2508 -0.3174
  161SOPE  H13Y18083   5.323  -0.392   8.758  0.2405 -0.0684 -1.1500
  161SOPE  C31418084   5.469  -0.245   8.688 -0.0371 -0.2441 -0.5644
  161SOPE  H14X18085   5.544  -0.282   8.761 -0.9288 -0.0414  0.4698
  161SOPE  H14Y18086   5.476  -0.135   8.679  0.9916 -0.2605 -0.0824
  161SOPE  C31518087   5.505  -0.325   8.564 -0.4291 -0.1824  0.6271
  161SOPE  H15X18088   5.449  -0.289   8.475 -0.1383 -0.9585  0.1291
  161SOPE  H15Y18089   5.465  -0.426   8.587  0.3826 -0.1938  2.0527
  161SOPE  C31618090   5.650  -0.316   8.522 -0.4422  0.7978  0.2922
  161SOPE  H16X18091   5.656  -0.376   8.429 -1.1278  2.0221 -0.5546
  161SOPE  H16Y18092   5.720  -0.365   8.594  2.3710  1.8791 -1.6202
  161SOPE  C31718093   5.711  -0.175   8.487 -0.2217  0.4186  0.2470
  161SOPE  H17X18094   5.710  -0.116   8.582 -0.1832 -1.9357  1.7527
  161SOPE  H17Y18095   5.641  -0.131   8.412  0.4112 -0.8272 -1.0743
  161SOPE  C31818096   5.855  -0.176   8.436  0.8120 -0.4820  0.0003
  161SOPE  H18X18097   5.884  -0.073   8.408 -0.8867 -0.1443 -0.5742
  161SOPE  H18Y18098   5.881  -0.254   8.361  2.0622 -2.5633  2.5236
  161SOPE  H18Z18099   5.931  -0.210   8.509  0.2412 -0.6539  0.5248
  162SOPE     N18100   3.650   0.065  11.145  0.4420 -0.4007  0.3063
  162SOPE   HN118101   3.578   0.103  11.209  1.5719 -0.8210  1.8844
  162SOPE   HN218102   3.690   0.139  11.084 -0.3201  0.6145  1.0286
  162SOPE   HN318103   3.603  -0.001  11.079  0.7347 -0.8039  0.4974
  162SOPE   C1218104   3.760   0.011  11.225 -0.2541 -0.4812  0.0167
  162SOPE  H12A18105   3.726  -0.039  11.318  0.3603 -0.3686  0.3073
  162SOPE  H12B18106   3.816   0.098  11.266 -0.9169 -0.8393  1.7398
  162SOPE   C1118107   3.867  -0.070  11.146  0.0993 -0.5242 -0.5501
  162SOPE  H11A18108   3.837  -0.177  11.150 -0.3490 -0.3615  0.5699
  162SOPE  H11B18109   3.955  -0.057  11.213 -2.5358 -1.8410  3.3844
  162SOPE     P18110   4.024  -0.038  10.938  0.1718  0.1526  0.3311
  162SOPE   O1318111   4.106  -0.135  11.012  0.5533  0.2900 -0.0274
  162SOPE   O1418112   4.080   0.097  10.922  0.3642  0.0946 -0.4977
  162SOPE   O1218113   3.884  -0.033  11.010 -0.3846 -0.1589 -0.1918
  162SOPE   O1118114   4.004  -0.094  10.796 -0.0071  0.0809  0.2874
  162SOPE    C118115   3.883  -0.103  10.731 -0.2726  0.2587  0.3951
  162SOPE    HA18116   3.805  -0.142  10.800  3.6339 -0.7743  4.4624
  162SOPE    HB18117   3.891  -0.183  10.655  0.0402  0.1650  0.5252
  162SOPE    C218118   3.828   0.024  10.663  0.4154  0.2901  0.2289
  162SOPE    HS18119   3.740  -0.000  10.600 -0.0590  0.8678  0.6671
  162SOPE   O2118120   3.928   0.075  10.571  0.5172 -0.0185 -0.1135
  162SOPE   C2118121   3.931   0.011  10.453  0.2323  0.1364 -0.1140
  162SOPE   O2218122   3.853  -0.075  10.416  0.0836 -0.3953 -1.0429
  162SOPE   C2218123   4.046   0.078  10.386 -0.0819  0.8944 -0.3542
  162SOPE   H2R18124   4.127   0.061  10.459  0.5316  1.1475 -0.9710
  162SOPE   H2S18125   4.022   0.187  10.382  0.9317  1.1920  1.2419
  162SOPE    C318126   3.780   0.136  10.760  0.2779  0.4058 -1.0546
  162SOPE    HX18127   3.870   0.158  10.820 -0.2459 -2.3301  0.8393
  162SOPE    HY18128   3.690   0.105  10.818  1.1168  1.0208  0.6261
  162SOPE   O3118129   3.751   0.259  10.695 -0.0474  0.6286  0.6076
  162SOPE   C3118130   3.632   0.270  10.635  0.1443  0.7617 -0.3329
  162SOPE   O3218131   3.553   0.179  10.622  0.5982  0.1604 -0.1803
  162SOPE   C3218132   3.620   0.414  10.569 -0.3366  0.6874 -0.5023
  162SOPE   H2X18133   3.676   0.484  10.635 -2.2273  0.0754  1.7970
  162SOPE   H2Y18134   3.514   0.448  10.564 -0.4197  0.3374 -1.1689
  162SOPE   C2318135   4.075   0.020  10.249 -0.2746 -0.5452 -0.4214
  162SOPE   H3R18136   3.986  -0.031  10.207 -0.2053 -0.5182 -0.6006
  162SOPE   H3S18137   4.157  -0.055  10.258  0.8441  0.5985 -0.8239
  162SOPE   C2418138   4.116   0.134  10.151  0.2334  0.1145 -0.1690
  162SOPE   H4R18139   4.044   0.218  10.144 -0.4041  0.1168  4.6833
  162SOPE   H4S18140   4.214   0.165  10.193  1.2064 -0.1215 -2.2078
  162SOPE   C2518141   4.131   0.079  10.008 -0.1954  0.3716 -0.5046
  162SOPE   H5R18142   4.197  -0.010  10.000  1.5033  1.6307 -0.6893
  162SOPE   H5S18143   4.030   0.053   9.970  0.4202 -1.8024 -0.7339
  162SOPE   C2618144   4.205   0.174   9.915  0.9455  0.1862 -0.4501
  162SOPE   H6R18145   4.135   0.259   9.898 -0.9339 -1.1816  0.2847
  162SOPE   H6S18146   4.298   0.217   9.958 -1.0115  1.2509  2.8544
  162SOPE   C2718147   4.236   0.103   9.786  0.6447 -0.4973  0.5300
  162SOPE   H7R18148   4.294   0.008   9.799  2.9225  0.7737 -0.1184
  162SOPE   H7S18149   4.143   0.081   9.729  0.6260  1.0178 -0.0430
  162SOPE   C2818150   4.306   0.204   9.688  0.5217  0.0497  0.7671
  162SOPE   H8R18151   4.247   0.297   9.693 -1.0334 -0.7470 -1.6379
  162SOPE   H8S18152   4.405   0.214   9.737  2.2739  1.7331 -2.9601
  162SOPE   C2918153   4.308   0.155   9.545 -0.3239  0.0592 -0.5121
  162SOPE   H9118154   4.217   0.168   9.485 -0.8864 -1.2657  0.0484
  162SOPE  C21018155   4.403   0.081   9.483  0.8346 -0.3451 -0.1227
  162SOPE  H10118156   4.389   0.065   9.375 -1.3509 -0.4888  0.1471
  162SOPE  C21118157   4.535   0.033   9.542 -0.4581 -0.7633  0.3939
  162SOPE  H11R18158   4.523  -0.068   9.586 -2.4596 -0.7095  0.0501
  162SOPE  H11S18159   4.560   0.096   9.630  0.1966  0.5344 -0.7018
  162SOPE  C21218160   4.643   0.034   9.437  0.4263  0.0115  0.1572
  162SOPE  H12R18161   4.617  -0.033   9.353 -1.9757 -1.6282  2.1708
  162SOPE  H12S18162   4.730  -0.005   9.495  0.7583 -0.2432 -0.5131
  162SOPE  C21318163   4.680   0.171   9.373  0.8519 -0.2375 -0.2839
  162SOPE  H13R18164   4.719   0.241   9.450  0.3620 -1.7555  1.3753
  162SOPE  H13S18165   4.589   0.225   9.338  0.5413 -1.0189 -0.6788
  162SOPE  C21418166   4.777   0.154   9.253  0.7250  0.0280 -0.1694
  162SOPE  H14R18167   4.724   0.082   9.185 -1.6452  0.0357  1.5996
  162SOPE  H14S18168   4.873   0.108   9.284  1.8605 -0.0887 -3.6633
  162SOPE  C21518169   4.806   0.290   9.176  0.4867 -0.1195  0.5518
  162SOPE  H15R18170   4.867   0.344   9.252 -0.4104 -0.8912  1.8415
  162SOPE  H15S18171   4.713   0.349   9.162 -0.7483 -1.5891  2.1827
  162SOPE  C21618172   4.884   0.274   9.043 -0.0506  0.0795 -0.3862
  162SOPE  H16R18173   4.957   0.190   9.042  1.5892  1.4671  1.1690
  162SOPE  H16S18174   4.948   0.363   9.029  0.5869 -0.2517  0.4417
  162SOPE  C21718175   4.787   0.265   8.924  0.3588 -0.0210 -1.2259
  162SOPE  H17R18176   4.730   0.359   8.914 -1.0204 -0.7447 -0.2753
  162SOPE  H17S18177   4.715   0.181   8.933  1.3616 -0.8499 -0.7514
  162SOPE  C21818178   4.861   0.224   8.794  0.2614  0.1345 -0.2898
  162SOPE  H18R18179   4.913   0.127   8.807 -3.2560 -2.0779 -2.0387
  162SOPE  H18S18180   4.939   0.294   8.757  1.2771 -0.5549  0.5373
  162SOPE  H18T18181   4.789   0.209   8.711 -0.2328 -0.0843  0.1753
  162SOPE   C3318182   3.688   0.427  10.432  0.2122  0.2698 -0.2293
  162SOPE   H3X18183   3.796   0.418  10.456  0.4284 -4.6607 -2.3700
  162SOPE   H3Y18184   3.673   0.534  10.408  0.9943  0.1203 -1.4184
  162SOPE   C3418185   3.642   0.335  10.322 -0.7054 -0.6656  0.1857
  162SOPE   H4X18186   3.601   0.403  10.245  0.4900 -1.9777 -1.6497
  162SOPE   H4Y18187   3.561   0.266  10.353 -2.2048  1.3367  0.7949
  162SOPE   C3518188   3.759   0.255  10.264 -0.1788 -0.1397  0.4855
  162SOPE   H5X18189   3.780   0.162  10.321 -0.6479 -1.1855 -1.0428
  162SOPE   H5Y18190   3.852   0.317  10.260 -0.2290 -0.1386 -0.7617
  162SOPE   C3618191   3.738   0.197  10.127 -0.6427  0.3797  0.3527
  162SOPE   H6X18192   3.649   0.132  10.110 -0.5628  0.7222 -1.4905
  162SOPE   H6Y18193   3.824   0.129  10.110 -0.4810  0.6266  0.1673
  162SOPE   C3718194   3.750   0.300  10.019 -0.4116 -0.1861 -0.0579
  162SOPE   H7X18195   3.838   0.366  10.033  0.6370 -1.4193 -0.7784
  162SOPE   H7Y18196   3.659   0.363  10.018  0.4413  1.0623 -0.1817
  162SOPE   C3818197   3.754   0.228   9.881  0.1102 -0.8180 -0.6511
  162SOPE   H8X18198   3.687   0.141   9.899 -0.8399  0.5001  2.7365
  162SOPE   H8Y18199   3.856   0.187   9.864  0.6127  0.0202  0.3092
  162SOPE   C3918200   3.711   0.319   9.761 -0.0691  0.1482  0.7445
  162SOPE   H9X18201   3.773   0.411   9.760 -0.2177  0.2755  2.5389
  162SOPE   H9Y18202   3.603   0.343   9.773 -0.4937 -1.9667  1.3416
  162SOPE  C31018203   3.733   0.248   9.629  0.2778  0.4008  0.8866
  162SOPE  H10X18204   3.688   0.318   9.556 -1.8473 -0.4256  1.3681
  162SOPE  H10Y18205   3.691   0.146   9.638  1.6550 -0.5893 -3.1070
  162SOPE  C31118206   3.882   0.227   9.597 -0.1449 -0.5739  0.5200
  162SOPE  H11X18207   3.914   0.160   9.679 -1.5517  0.0955  1.6326
  162SOPE  H11Y18208   3.936   0.322   9.617  0.5160 -0.9018  0.3289
  162SOPE  C31218209   3.922   0.162   9.464  1.3190 -0.1633  0.4400
  162SOPE  H12X18210   3.885   0.058   9.452  1.0369 -0.2538  1.9646
  162SOPE  H12Y18211   4.030   0.157   9.439  1.1609  0.7485 -0.4785
  162SOPE  C31318212   3.875   0.239   9.342  0.2520  0.4864  0.0878
  162SOPE  H13X18213   3.907   0.345   9.350 -0.2970  0.5141  2.2745
  162SOPE  H13Y18214   3.764   0.235   9.331  0.1178  0.8272  1.2413
  162SOPE  C31418215   3.942   0.194   9.203 -0.3050  0.5194  0.9132
  162SOPE  H14X18216   3.976   0.088   9.209 -1.2590 -0.1533 -3.7008
  162SOPE  H14Y18217   4.025   0.266   9.185 -0.5709  0.7820  0.7369
  162SOPE  C31518218   3.844   0.191   9.085 -0.4021 -0.1505  0.1782
  162SOPE  H15X18219   3.787   0.286   9.088  3.2317  2.2005 -1.6344
  162SOPE  H15Y18220   3.764   0.114   9.092 -1.7310  1.3874  2.9692
  162SOPE  C31618221   3.910   0.198   8.946 -0.3682 -0.0004 -0.7425
  162SOPE  H16X18222   4.005   0.140   8.956 -1.1226 -1.1002  0.1512
  162SOPE  H16Y18223   3.949   0.297   8.916  1.8390 -1.2057 -1.9767
  162SOPE  C31718224   3.811   0.153   8.840 -0.0165 -0.4374  0.6158
  162SOPE  H17X18225   3.733   0.229   8.816 -0.0217 -1.3612 -2.5019
  162SOPE  H17Y18226   3.769   0.061   8.886 -0.1953 -0.3755  0.5789
  162SOPE  C31818227   3.888   0.106   8.713 -0.5324 -0.3702  0.3989
  162SOPE  H18X18228   3.958   0.022   8.733  0.3674  0.2181 -0.2731
  162SOPE  H18Y18229   3.939   0.193   8.667  1.1988 -0.2576  2.4049
  162SOPE  H18Z18230   3.818   0.061   8.640 -1.9373  1.4829  0.5667
  163SOPE     N18231   3.381   4.971  11.038  0.3296  0.7627 -0.8939
  163SOPE   HN118232   3.278   4.965  11.053  0.6064  1.3887  1.4021
  163SOPE   HN218233   3.420   4.875  11.031  1.8421  1.4422 -2.1313
  163SOPE   HN318234   3.428   4.997  11.127  1.0050 -2.0639 -0.3915
  163SOPE   C1218235   3.412   5.058  10.923 -0.6045 -0.6137  0.8136
  163SOPE  H12A18236   3.343   5.144  10.932 -1.4982 -1.3986  1.5321
  163SOPE  H12B18237   3.385   4.999  10.833 -0.6238 -0.8506  0.9753
  163SOPE   C1118238   3.550   5.099  10.939 -0.7925  0.4496  0.1409
  163SOPE  H11A18239   3.551   5.142  11.041  2.8809 -0.5998  0.5886
  163SOPE  H11B18240   3.579   5.175  10.864  2.4058  0.0037  0.8724
  163SOPE     P18241   3.705   4.910  10.815  0.2572  0.3252 -0.1914
  163SOPE   O1318242   3.717   4.769  10.855  0.2284  0.4369 -0.0451
  163SOPE   O1418243   3.830   4.981  10.798 -0.2605 -0.1767 -0.2323
  163SOPE   O1218244   3.636   4.980  10.942 -0.9012 -0.0550  0.3874
  163SOPE   O1118245   3.602   4.934  10.699 -0.1792  0.0606 -0.7043
  163SOPE    C118246   3.608   5.041  10.599  0.5819 -0.3153 -0.3137
  163SOPE    HA18247   3.643   5.139  10.638  0.7636 -1.0013  1.2918
  163SOPE    HB18248   3.504   5.053  10.563  1.4723 -2.0586 -3.6209
  163SOPE    C218249   3.676   5.000  10.463  0.7093 -0.3816 -0.0323
  163SOPE    HS18250   3.613   5.042  10.383 -0.9572  1.1874  2.0428
  163SOPE   O2118251   3.697   4.857  10.465 -0.3675 -0.0785  0.1833
  163SOPE   C2118252   3.594   4.792  10.408  0.2244  0.1891  0.5169
  163SOPE   O2218253   3.484   4.839  10.392  0.2509  0.5694  0.3461
  163SOPE   C2218254   3.624   4.641  10.391  0.5557 -0.7364  0.0637
  163SOPE   H2R18255   3.534   4.596  10.345 -0.0391  1.9947 -1.5753
  163SOPE   H2S18256   3.630   4.607  10.496 -3.1522  0.7667  0.8568
  163SOPE    C318257   3.819   5.073  10.454 -0.1506  0.1409  0.0245
  163SOPE    HX18258   3.877   5.057  10.548  2.2294  0.1502 -1.4089
  163SOPE    HY18259   3.791   5.180  10.456  1.9406  0.7067  1.0688
  163SOPE   O3118260   3.895   5.056  10.334 -0.5581 -0.0360  0.3678
  163SOPE   C3118261   4.017   5.006  10.353  0.2915 -0.2867  0.5383
  163SOPE   O3218262   4.062   4.965  10.457 -0.4437  0.9425 -0.8335
  163SOPE   C3218263   4.110   5.020  10.227  0.5434  0.7264  0.4634
  163SOPE   H2X18264   4.097   5.128  10.202  1.8027  1.5086  3.0448
  163SOPE   H2Y18265   4.059   4.962  10.147 -1.9643  0.7863  1.9470
  163SOPE   C2318266   3.750   4.621  10.304 -0.0740 -0.3946 -0.3686
  163SOPE   H3R18267   3.755   4.510  10.291 -0.3041 -0.3852 -0.5259
  163SOPE   H3S18268   3.843   4.657  10.353  0.1141 -2.1738  0.6455
  163SOPE   C2418269   3.744   4.673  10.165 -0.6891  0.1422 -0.1646
  163SOPE   H4R18270   3.655   4.628  10.116 -2.1723  0.6333  1.9852
  163SOPE   H4S18271   3.724   4.782  10.164 -1.8071 -0.0630 -1.3028
  163SOPE   C2518272   3.873   4.640  10.088  0.1603 -1.0322 -0.0830
  163SOPE   H5R18273   3.953   4.697  10.141 -2.7601  2.8527  0.3365
  163SOPE   H5S18274   3.888   4.531  10.099 -1.0455 -1.1076  0.8953
  163SOPE   C2618275   3.871   4.677   9.936  0.4519  0.3831 -0.3550
  163SOPE   H6R18276   3.963   4.632   9.892  0.6971 -1.8247  2.2616
  163SOPE   H6S18277   3.782   4.630   9.891  1.2895 -2.5753  0.9420
  163SOPE   C2718278   3.883   4.828   9.921  0.1285  0.1340  0.4111
  163SOPE   H7R18279   3.781   4.867   9.943  0.4624  1.9004 -1.0416
  163SOPE   H7S18280   3.959   4.868   9.992  0.4220  1.7812 -0.7915
  163SOPE   C2818281   3.941   4.864   9.775 -0.2919 -0.0538  0.0308
  163SOPE   H8R18282   3.977   4.969   9.780  0.8913 -0.5323  1.8268
  163SOPE   H8S18283   4.034   4.805   9.760  1.2881  2.0501  1.2058
  163SOPE   C2918284   3.837   4.852   9.671  0.1791  0.1674  0.1598
  163SOPE   H9118285   3.733   4.850   9.707 -0.1853  0.5239 -0.8568
  163SOPE  C21018286   3.859   4.833   9.533  0.7088 -0.0546  0.3521
  163SOPE  H10118287   3.774   4.840   9.464  1.3468 -0.4729 -0.4805
  163SOPE  C21118288   3.990   4.819   9.466  0.3512  0.1441  0.1245
  163SOPE  H11R18289   4.049   4.799   9.557 -1.5359 -0.4479  1.2481
  163SOPE  H11S18290   4.010   4.922   9.429 -0.3752  0.5520  0.8445
  163SOPE  C21218291   4.012   4.717   9.348 -0.1423 -0.5396  0.0067
  163SOPE  H12R18292   3.997   4.618   9.395  0.5730 -0.2452  0.8799
  163SOPE  H12S18293   4.107   4.742   9.297  0.6370  0.5383  1.9170
  163SOPE  C21318294   3.899   4.720   9.247  0.0845  0.9867  0.4679
  163SOPE  H13R18295   3.895   4.815   9.189  2.0337  1.2636  0.7441
  163SOPE  H13S18296   3.800   4.710   9.295 -0.2992  0.3159 -0.4637
  163SOPE  C21418297   3.899   4.602   9.145 -0.0640  0.5204  0.0731
  163SOPE  H14R18298   3.796   4.567   9.123  0.5208 -2.1726  1.4969
  163SOPE  H14S18299   3.944   4.516   9.199 -1.5385  0.0533  0.5812
  163SOPE  C21518300   3.969   4.628   9.008 -0.4481  0.1456  0.0697
  163SOPE  H15R18301   4.076   4.643   9.034 -0.2245  1.5995 -1.5957
  163SOPE  H15S18302   3.925   4.720   8.963 -0.5157 -0.8632 -1.9942
  163SOPE  C21618303   3.950   4.515   8.905 -1.1275  0.1617  0.2125
  163SOPE  H16R18304   3.982   4.419   8.951  1.2839 -0.6847 -3.0285
  163SOPE  H16S18305   4.022   4.530   8.822 -0.7503 -0.2570  0.4601
  163SOPE  C21718306   3.801   4.495   8.864  0.7292  0.1784  0.5382
  163SOPE  H17R18307   3.752   4.594   8.879 -2.2265 -1.0587 -0.4932
  163SOPE  H17S18308   3.754   4.423   8.935  2.1762 -0.1595  1.1707
  163SOPE  C21818309   3.776   4.453   8.715 -0.3271 -0.2516 -0.0541
  163SOPE  H18R18310   3.672   4.423   8.693  0.0968 -0.4772 -1.8049
  163SOPE  H18S18311   3.844   4.366   8.700 -1.7579 -1.4292  0.1673
  163SOPE  H18T18312   3.817   4.528   8.644 -0.0104 -0.0121  0.3721
  163SOPE   C3318313   4.254   4.993  10.248 -0.2201 -0.4920  0.3355
  163SOPE   H3X18314   4.267   4.898  10.303 -2.0902 -0.5360  0.7288
  163SOPE   H3Y18315   4.298   5.067  10.318 -0.7958  0.7235 -0.5668
  163SOPE   C3418316   4.351   4.992  10.125 -0.5301 -0.8517 -0.4775
  163SOPE   H4X18317   4.315   4.914  10.054 -0.4144 -0.3938 -1.0465
  163SOPE   H4Y18318   4.451   4.955  10.157 -0.1982  1.2880  1.0445
  163SOPE   C3518319   4.370   5.130  10.056  0.0988  1.2751 -0.4096
  163SOPE   H5X18320   4.409   5.210  10.122  1.2131  1.0816 -0.8107
  163SOPE   H5Y18321   4.267   5.168  10.038  0.8809  2.6628 -2.1658
  163SOPE   C3618322   4.434   5.128   9.921  0.4115  0.8741  0.9087
  163SOPE   H6X18323   4.533   5.080   9.936 -0.4609 -0.2856  3.1771
  163SOPE   H6Y18324   4.465   5.233   9.899 -1.8931  1.6668  1.3767
  163SOPE   C3718325   4.339   5.061   9.820  0.1903  0.3864 -0.3949
  163SOPE   H7X18326   4.244   5.118   9.822  0.7153  1.2567  0.1499
  163SOPE   H7Y18327   4.317   4.955   9.846 -1.1278  0.3885 -1.4878
  163SOPE   C3818328   4.389   5.062   9.674 -0.1978  0.1069 -1.0164
  163SOPE   H8X18329   4.483   5.004   9.658  0.3482  0.6773  0.0926
  163SOPE   H8Y18330   4.411   5.164   9.637 -0.1465 -0.2508 -1.9798
  163SOPE   C3918331   4.276   4.997   9.586 -0.2055  0.3667  0.3019
  163SOPE   H9X18332   4.191   5.063   9.611  1.3441  1.9337  1.5894
  163SOPE   H9Y18333   4.256   4.893   9.620  2.0108  0.0531  0.7670
  163SOPE  C31018334   4.303   4.991   9.433  0.3483  0.1711  0.4692
  163SOPE  H10X18335   4.363   5.079   9.401  0.9223  0.5544  2.4787
  163SOPE  H10Y18336   4.202   4.994   9.388  0.2645 -0.9396  0.5741
  163SOPE  C31118337   4.379   4.864   9.386  0.0080  0.4358 -0.1811
  163SOPE  H11X18338   4.342   4.773   9.437  0.7669 -0.0044 -0.4029
  163SOPE  H11Y18339   4.472   4.884   9.442 -1.1553  1.2371  1.5083
  163SOPE  C31218340   4.393   4.842   9.232  0.1348 -0.2807 -0.3148
  163SOPE  H12X18341   4.460   4.919   9.187  0.8351 -0.9337 -0.4071
  163SOPE  H12Y18342   4.294   4.837   9.183  0.0762 -3.4791  0.0421
  163SOPE  C31318343   4.453   4.701   9.201 -1.1383  0.2746 -0.4603
  163SOPE  H13X18344   4.375   4.624   9.216 -1.2799  0.4162 -0.4627
  163SOPE  H13Y18345   4.548   4.691   9.258 -0.7360 -1.0090 -1.3256
  163SOPE  C31418346   4.498   4.676   9.057 -0.5667  0.7276 -0.3120
  163SOPE  H14X18347   4.571   4.745   9.009  1.8179 -1.8995 -0.5788
  163SOPE  H14Y18348   4.410   4.685   8.990 -0.9386 -1.6433 -0.1773
  163SOPE  C31518349   4.559   4.534   9.043 -0.5144 -0.3838  0.3076
  163SOPE  H15X18350   4.503   4.455   9.098 -0.4377  0.1904  1.2171
  163SOPE  H15Y18351   4.662   4.536   9.083 -0.4135 -0.0728  0.0381
  163SOPE  C31618352   4.583   4.481   8.908 -0.4563 -1.0087  0.8003
  163SOPE  H16X18353   4.486   4.459   8.859  0.1889 -1.9099 -0.1090
  163SOPE  H16Y18354   4.632   4.381   8.916  0.6655 -0.3312  2.4496
  163SOPE  C31718355   4.667   4.571   8.822  0.0183 -0.2183  0.1728
  163SOPE  H17X18356   4.760   4.599   8.876  0.2562 -1.1088  0.2390
  163SOPE  H17Y18357   4.614   4.665   8.798 -2.0943 -1.5440 -0.4307
  163SOPE  C31818358   4.701   4.503   8.697 -0.1071 -0.1567 -0.2211
  163SOPE  H18X18359   4.766   4.564   8.631  0.2932 -3.2379 -2.7726
  163SOPE  H18Y18360   4.612   4.483   8.635 -1.1734  1.4466  0.7366
  163SOPE  H18Z18361   4.744   4.404   8.720 -1.6078 -0.4510  1.4399
  164SOPE     N18362   0.086   2.868  10.535  0.1216  0.3055 -0.7865
  164SOPE   HN118363   0.028   2.810  10.472  0.1533  2.7560 -3.1406
  164SOPE   HN218364   0.012   2.920  10.586  0.0145 -1.1239  0.5504
  164SOPE   HN318365   0.123   2.937  10.467  0.1004 -1.0984 -2.2398
  164SOPE   C1218366   0.175   2.793  10.625 -0.2738  0.0834  0.1946
  164SOPE  H12A18367   0.222   2.704  10.577 -0.6145 -0.2757  0.5278
  164SOPE  H12B18368   0.103   2.764  10.704 -2.5802  2.0004 -1.1683
  164SOPE   C1118369   0.283   2.881  10.694  0.0766  0.5711  0.2078
  164SOPE  H11A18370   0.357   2.820  10.749  0.4108  1.8532  1.1901
  164SOPE  H11B18371   0.226   2.946  10.764 -1.4407 -1.5276  0.9900
  164SOPE     P18372   0.444   3.067  10.651  0.2491  0.4720 -0.1056
  164SOPE   O1318373   0.524   3.017  10.768  0.1064 -0.1819 -0.5066
  164SOPE   O1418374   0.362   3.187  10.666  0.1627  0.4578 -0.5688
  164SOPE   O1218375   0.353   2.956  10.592  0.1530 -0.6760  0.1287
  164SOPE   O1118376   0.550   3.090  10.536 -0.5477 -0.3427 -0.1787
  164SOPE    C118377   0.688   3.045  10.549  0.1882 -0.5245 -0.3075
  164SOPE    HA18378   0.717   2.992  10.643  1.9992 -2.4509 -1.8967
  164SOPE    HB18379   0.758   3.130  10.536  0.9584 -1.0296  0.4335
  164SOPE    C218380   0.719   2.935  10.444 -0.1879 -0.1615 -0.8337
  164SOPE    HS18381   0.629   2.870  10.447 -2.5390  2.9723 -1.2888
  164SOPE   O2118382   0.826   2.855  10.477  0.1780 -0.2595  0.1239
  164SOPE   C2118383   0.832   2.731  10.430  0.1960  0.8366 -1.4420
  164SOPE   O2218384   0.745   2.675  10.370  0.1078  0.2716  0.0619
  164SOPE   C2218385   0.959   2.669  10.482  0.1389 -0.1003  0.1544
  164SOPE   H2R18386   0.969   2.562  10.453  1.7076 -0.1879  0.9244
  164SOPE   H2S18387   0.964   2.670  10.593  2.8083  0.2409  0.0744
  164SOPE    C318388   0.736   2.998  10.309  0.0873 -0.3848 -1.2088
  164SOPE    HX18389   0.824   3.066  10.307  0.3106 -0.6715 -1.1818
  164SOPE    HY18390   0.646   3.061  10.290  0.4039  0.0001 -1.4346
  164SOPE   O3118391   0.752   2.906  10.202  0.0573 -0.6820  0.0288
  164SOPE   C3118392   0.648   2.881  10.126 -0.6837  0.3442  0.5171
  164SOPE   O3218393   0.534   2.919  10.148  0.5057  0.2071  0.3918
  164SOPE   C3218394   0.693   2.786  10.009  1.0007  0.1979 -1.6319
  164SOPE   H2X18395   0.608   2.737   9.957  0.9789  1.1167 -2.4844
  164SOPE   H2Y18396   0.756   2.707  10.055 -1.3759 -0.1629  1.1012
  164SOPE   C2318397   1.084   2.751  10.447  0.6544 -0.0814 -0.4181
  164SOPE   H3R18398   1.156   2.708  10.519 -0.3171  1.7922  1.7286
  164SOPE   H3S18399   1.074   2.860  10.465 -0.6950 -0.1004 -0.9944
  164SOPE   C2418400   1.119   2.741  10.305  0.0079  0.0367  0.3581
  164SOPE   H4R18401   1.143   2.634  10.284 -0.5349  0.1349 -0.8309
  164SOPE   H4S18402   1.039   2.768  10.232 -0.0445 -0.4578  0.2269
  164SOPE   C2518403   1.247   2.816  10.284 -0.1528  0.0427  0.5488
  164SOPE   H5R18404   1.235   2.926  10.300  0.2107  0.1131  0.3418
  164SOPE   H5S18405   1.330   2.778  10.347  0.4809 -1.2129 -1.0132
  164SOPE   C2618406   1.294   2.813  10.133  0.2520  0.3794  0.2998
  164SOPE   H6R18407   1.398   2.851  10.121  0.1601  0.4086 -0.4532
  164SOPE   H6S18408   1.305   2.707  10.104 -1.4798 -0.1185  1.3782
  164SOPE   C2718409   1.181   2.892  10.041 -0.1607 -0.3109 -0.6990
  164SOPE   H7R18410   1.101   2.816  10.045 -0.8726  0.5430  1.9546
  164SOPE   H7S18411   1.154   2.981  10.101  0.6138  1.8240 -3.4190
  164SOPE   C2818412   1.240   2.932   9.902 -0.5480 -0.6905 -0.6144
  164SOPE   H8R18413   1.281   2.852   9.837  1.1293  0.6937 -1.3147
  164SOPE   H8S18414   1.156   2.962   9.836  0.1047 -0.2690 -1.2621
  164SOPE   C2918415   1.346   3.036   9.913  0.0405  0.1448 -0.0266
  164SOPE   H9118416   1.417   3.002   9.990  0.8543  2.9972  0.5478
  164SOPE  C21018417   1.372   3.147   9.842  0.2531 -0.1788  0.3974
  164SOPE  H10118418   1.451   3.215   9.878  0.6482  0.2094 -1.1564
  164SOPE  C21118419   1.296   3.206   9.724  0.2704 -0.2231  0.5439
  164SOPE  H11R18420   1.227   3.278   9.773 -0.3801 -0.0811 -0.5540
  164SOPE  H11S18421   1.236   3.132   9.668  0.8413  1.2828 -2.1691
  164SOPE  C21218422   1.378   3.286   9.626 -0.0209  0.3281 -0.7956
  164SOPE  H12R18423   1.458   3.213   9.601 -0.3291 -0.4622  0.4926
  164SOPE  H12S18424   1.432   3.375   9.665  0.6752 -0.8247  0.9140
  164SOPE  C21318425   1.301   3.336   9.504 -0.3827 -0.2355 -0.1363
  164SOPE  H13R18426   1.264   3.439   9.525 -0.3052 -0.3851  0.7561
  164SOPE  H13S18427   1.212   3.271   9.493  0.2188 -1.2208  0.7774
  164SOPE  C21418428   1.383   3.339   9.374 -0.2577 -0.2076  0.1416
  164SOPE  H14R18429   1.403   3.234   9.346  1.6049 -0.1119  1.0865
  164SOPE  H14S18430   1.472   3.405   9.381 -0.5502  0.1322  0.6867
  164SOPE  C21518431   1.298   3.402   9.262  0.2844 -0.0998  0.0688
  164SOPE  H15R18432   1.270   3.507   9.286 -1.7591 -0.5204 -0.4109
  164SOPE  H15S18433   1.202   3.347   9.262  0.9267 -1.2676  1.6953
  164SOPE  C21618434   1.375   3.402   9.130  1.0256 -0.5604 -0.2767
  164SOPE  H16R18435   1.424   3.307   9.100 -0.5952 -1.2268 -0.8686
  164SOPE  H16S18436   1.462   3.471   9.135  0.1740  0.7868 -2.8560
  164SOPE  C21718437   1.296   3.465   9.011  0.1307  0.5779 -0.5053
  164SOPE  H17R18438   1.280   3.571   9.039  0.1821  0.2884  0.6402
  164SOPE  H17S18439   1.195   3.422   8.992  0.8673 -1.5401  0.2377
  164SOPE  C21818440   1.376   3.453   8.880 -0.1904 -0.2433  0.3227
  164SOPE  H18R18441   1.461   3.523   8.870 -0.3990 -0.0715 -0.3001
  164SOPE  H18S18442   1.306   3.460   8.794 -2.0056 -1.6545  1.6453
  164SOPE  H18T18443   1.424   3.353   8.872 -0.4767 -0.3636  0.0920
  164SOPE   C3318444   0.782   2.866   9.912 -0.1143  0.2896  0.0200
  164SOPE   H3X18445   0.875   2.906   9.958 -0.2664 -1.6957  2.1232
  164SOPE   H3Y18446   0.725   2.946   9.861 -1.5394 -1.3448 -0.9833
  164SOPE   C3418447   0.826   2.767   9.801 -0.0329 -0.4606 -0.5638
  164SOPE   H4X18448   0.805   2.659   9.811 -0.8901 -0.3549 -1.1872
  164SOPE   H4Y18449   0.937   2.773   9.790 -0.0863  0.7347 -0.5685
  164SOPE   C3518450   0.765   2.796   9.668  0.4274  0.0471 -0.0710
  164SOPE   H5X18451   0.796   2.898   9.636  1.7024  0.3241  2.0015
  164SOPE   H5Y18452   0.655   2.811   9.667  0.3369 -0.6302 -0.7766
  164SOPE   C3618453   0.812   2.697   9.556  0.1778 -0.4746 -0.8716
  164SOPE   H6X18454   0.776   2.595   9.580 -0.5239 -0.1253 -0.4210
  164SOPE   H6Y18455   0.923   2.702   9.556  0.2571 -1.3801  1.6439
  164SOPE   C3718456   0.755   2.729   9.421  0.3475  1.1030 -0.2897
  164SOPE   H7X18457   0.794   2.826   9.384  0.7250  1.4985  1.0961
  164SOPE   H7Y18458   0.644   2.728   9.417  0.2618 -0.6998  1.3655
  164SOPE   C3818459   0.799   2.622   9.317  0.1205 -0.4671  0.2183
  164SOPE   H8X18460   0.772   2.522   9.357 -1.2829 -0.0386  0.3847
  164SOPE   H8Y18461   0.910   2.628   9.316  0.0209  3.6856  1.5342
  164SOPE   C3918462   0.757   2.666   9.175 -0.5531  0.0582  0.2399
  164SOPE   H9X18463   0.835   2.741   9.146  0.1706 -0.4650  0.8181
  164SOPE   H9Y18464   0.662   2.722   9.185  0.0889  1.0532  0.9227
  164SOPE  C31018465   0.750   2.557   9.070  0.5631 -0.4496 -0.2968
  164SOPE  H10X18466   0.739   2.604   8.969  4.4561  3.1326  0.8111
  164SOPE  H10Y18467   0.655   2.500   9.081 -1.2555  2.5817  0.1902
  164SOPE  C31118468   0.869   2.466   9.068 -0.5774  0.5040  0.5144
  164SOPE  H11X18469   0.854   2.366   9.021  2.0589  0.3434 -0.0320
  164SOPE  H11Y18470   0.897   2.442   9.173 -0.9671  0.6339  0.6480
  164SOPE  C31218471   0.979   2.541   8.987  0.0114 -0.5072 -0.6309
  164SOPE  H12X18472   1.001   2.632   9.048  0.9645 -2.0450  1.3841
  164SOPE  H12Y18473   0.936   2.567   8.888  0.0248  3.5352  0.3339
  164SOPE  C31318474   1.098   2.453   8.960  0.1315 -0.0693  0.0369
  164SOPE  H13X18475   1.154   2.494   8.873 -0.5592 -1.0820 -0.8903
  164SOPE  H13Y18476   1.058   2.362   8.913  0.5864 -0.8392  1.1130
  164SOPE  C31418477   1.191   2.424   9.080 -0.1040 -0.0925  1.2682
  164SOPE  H14X18478   1.256   2.335   9.064 -1.3707 -1.2652  2.5858
  164SOPE  H14Y18479   1.131   2.396   9.169 -1.4480  0.9039  0.6945
  164SOPE  C31518480   1.277   2.558   9.103  0.5074 -0.2313  0.9714
  164SOPE  H15X18481   1.318   2.564   9.206 -0.1368 -0.8012  1.2692
  164SOPE  H15Y18482   1.217   2.649   9.082  1.1267  0.2774  1.4216
  164SOPE  C31618483   1.382   2.561   8.987  0.2914 -0.0445 -0.4073
  164SOPE  H16X18484   1.335   2.584   8.889 -1.3107 -3.3038 -0.4606
  164SOPE  H16Y18485   1.432   2.463   8.978 -2.0598 -1.2744 -0.5857
  164SOPE  C31718486   1.480   2.670   9.023  0.0944 -0.2977  0.2799
  164SOPE  H17X18487   1.421   2.761   9.045  0.1099  0.1598 -1.5204
  164SOPE  H17Y18488   1.537   2.691   8.931  0.1268  4.0148  1.1717
  164SOPE  C31818489   1.582   2.641   9.132 -0.0686 -0.2034  0.1362
  164SOPE  H18X18490   1.648   2.552   9.119  0.5248  0.2834 -0.1788
  164SOPE  H18Y18491   1.527   2.621   9.227 -0.7974 -2.6453 -0.7470
  164SOPE  H18Z18492   1.658   2.722   9.140  0.2353 -0.2504 -2.1277
  165SOPE     N18493   5.259   3.299  10.855  0.6610  0.0233  0.3927
  165SOPE   HN118494   5.273   3.227  10.928  0.5901 -0.8366 -0.4281
  165SOPE   HN218495   5.170   3.281  10.805  0.2614  0.2564  1.0162
  165SOPE   HN318496   5.331   3.292  10.781 -0.7011 -0.7788 -0.8892
  165SOPE   C1218497   5.265   3.451  10.874  0.8997 -0.0809 -0.2527
  165SOPE  H12A18498   5.305   3.472  10.976 -1.5792 -2.5458  1.3129
  165SOPE  H12B18499   5.158   3.479  10.860  0.3991 -0.9890  1.5250
  165SOPE   C1118500   5.341   3.518  10.762 -0.6351  0.3019 -0.4672
  165SOPE  H11A18501   5.307   3.484  10.661 -0.6033 -0.4910 -0.2140
  165SOPE  H11B18502   5.448   3.491  10.775 -0.2539  1.5108 -1.0580
  165SOPE     P18503   5.202   3.758  10.734 -0.2117 -0.5275 -0.0951
  165SOPE   O1318504   5.246   3.901  10.730  0.4983 -0.6332 -0.2825
  165SOPE   O1418505   5.091   3.717  10.824 -0.0066  0.2501 -0.2122
  165SOPE   O1218506   5.322   3.664  10.777 -0.0844  0.3727  0.2366
  165SOPE   O1118507   5.166   3.724  10.584  0.5470 -0.4977 -0.4243
  165SOPE    C118508   5.266   3.710  10.481  0.3753  0.7058 -0.2186
  165SOPE    HA18509   5.232   3.626  10.417 -0.7685 -1.9073  3.6222
  165SOPE    HB18510   5.363   3.677  10.523  0.0582  2.7532  2.2937
  165SOPE    C218511   5.286   3.848  10.405  0.1235 -0.9685 -0.0704
  165SOPE    HS18512   5.339   3.913  10.478 -1.2836  0.1593 -0.0496
  165SOPE   O2118513   5.162   3.909  10.365  0.1944  0.6328 -0.4104
  165SOPE   C2118514   5.161   4.042  10.362  0.5032 -0.3889 -0.4993
  165SOPE   O2218515   5.248   4.117  10.407 -0.4207  0.5024  0.6621
  165SOPE   C2218516   5.032   4.097  10.313 -0.6538  0.4550  0.6193
  165SOPE   H2R18517   4.956   4.067  10.388  0.3740 -1.1628  1.0200
  165SOPE   H2S18518   5.006   4.049  10.216  0.6849  2.7399 -0.9328
  165SOPE    C318519   5.384   3.829  10.279  0.0446  0.6660  0.2226
  165SOPE    HX18520   5.333   3.767  10.202  0.5178 -2.9598  2.7253
  165SOPE    HY18521   5.474   3.777  10.318  1.6107  2.0214 -1.5015
  165SOPE   O3118522   5.419   3.951  10.215  0.0627  0.7026  0.1309
  165SOPE   C3118523   5.518   4.022  10.273 -0.4555  0.3693 -0.2977
  165SOPE   O3218524   5.569   3.987  10.383  0.1096  0.1960 -0.4373
  165SOPE   C3218525   5.553   4.150  10.195 -0.5697  0.5219  0.1964
  165SOPE   H2X18526   5.641   4.211  10.225 -0.7616  0.8921  0.0042
  165SOPE   H2Y18527   5.466   4.218  10.208  0.0396  1.9970 -2.9450
  165SOPE   C2318528   5.030   4.253  10.289 -0.0934  0.3869  0.5049
  165SOPE   H3R18529   5.060   4.304  10.383 -2.5301 -0.4791  1.8007
  165SOPE   H3S18530   4.933   4.293  10.254 -0.5527 -2.5638 -1.7866
  165SOPE   C2418531   5.134   4.291  10.180 -0.1649 -0.5609 -0.3813
  165SOPE   H4R18532   5.121   4.400  10.160  2.0010 -0.3344 -0.7258
  165SOPE   H4S18533   5.237   4.281  10.220 -0.4236  0.3556  0.5480
  165SOPE   C2518534   5.133   4.230  10.036 -0.2544 -0.3460 -0.0814
  165SOPE   H5R18535   5.169   4.126  10.047  0.6415 -0.6464 -5.0032
  165SOPE   H5S18536   5.028   4.221  10.001 -0.2066 -3.1981  0.3664
  165SOPE   C2618537   5.211   4.322   9.939  0.0986 -0.0952  0.1610
  165SOPE   H6R18538   5.155   4.418   9.932 -1.0087 -0.6142  1.8280
  165SOPE   H6S18539   5.313   4.332   9.982  0.7847  1.2988 -1.6817
  165SOPE   C2718540   5.235   4.261   9.805 -0.8036  1.2131  0.0772
  165SOPE   H7R18541   5.298   4.169   9.807 -0.9297  1.0167 -2.7588
  165SOPE   H7S18542   5.139   4.238   9.753 -0.5024  1.2240 -0.4887
  165SOPE   C2818543   5.312   4.356   9.717 -0.1001 -0.6628 -0.0992
  165SOPE   H8R18544   5.319   4.313   9.615 -1.5843 -2.1580  0.4044
  165SOPE   H8S18545   5.240   4.440   9.706 -2.4746 -2.6324 -0.0325
  165SOPE   C2918546   5.449   4.391   9.757  0.1270 -0.7045  0.4711
  165SOPE   H9118547   5.455   4.473   9.830  0.0561 -0.2219 -0.0627
  165SOPE  C21018548   5.565   4.337   9.709  0.3286 -0.0643 -0.4543
  165SOPE  H10118549   5.658   4.373   9.755 -1.2086 -0.0962  2.8218
  165SOPE  C21118550   5.574   4.238   9.595  0.3187  0.4188  0.0984
  165SOPE  H11R18551   5.478   4.210   9.548  0.8186  1.6648 -1.7216
  165SOPE  H11S18552   5.634   4.149   9.624  1.4935  1.3914  0.7454
  165SOPE  C21218553   5.655   4.304   9.477 -0.1541 -0.3829 -0.4722
  165SOPE  H12R18554   5.747   4.242   9.467 -0.3849 -1.4341  3.1680
  165SOPE  H12S18555   5.693   4.406   9.498 -1.5884 -0.2934  1.8413
  165SOPE  C21318556   5.579   4.300   9.344 -1.1868  1.0935  0.0270
  165SOPE  H13R18557   5.505   4.382   9.354 -1.2381  0.9573  0.8187
  165SOPE  H13S18558   5.533   4.200   9.338 -0.6074  0.8705 -0.7602
  165SOPE  C21418559   5.672   4.308   9.225 -0.0860  1.0440 -0.5671
  165SOPE  H14R18560   5.735   4.217   9.235 -0.2169  0.8963 -1.0614
  165SOPE  H14S18561   5.724   4.405   9.209  0.4873  1.1084  1.5208
  165SOPE  C21518562   5.593   4.290   9.093 -0.9583 -0.7934 -0.1641
  165SOPE  H15R18563   5.556   4.393   9.072 -0.8254 -0.3697  1.5951
  165SOPE  H15S18564   5.499   4.234   9.113 -1.8640  0.6726 -0.2359
  165SOPE  C21618565   5.677   4.235   8.977 -0.4214  0.3505 -0.5204
  165SOPE  H16R18566   5.725   4.143   9.017  0.4762 -0.3679 -3.1265
  165SOPE  H16S18567   5.763   4.303   8.955 -0.7184  1.3203  1.2756
  165SOPE  C21718568   5.616   4.192   8.840 -0.0716 -0.8143  0.6545
  165SOPE  H17R18569   5.566   4.274   8.784  1.7335  0.1078  0.3438
  165SOPE  H17S18570   5.533   4.121   8.859 -0.2384 -0.5558  0.8833
  165SOPE  C21818571   5.725   4.126   8.753 -0.5610  0.0349 -0.1540
  165SOPE  H18R18572   5.683   4.108   8.652 -0.4596  0.5935 -0.3022
  165SOPE  H18S18573   5.767   4.039   8.806 -0.5846 -1.1460 -2.0189
  165SOPE  H18T18574   5.812   4.192   8.729 -0.6027  0.5883  1.1842
  165SOPE   C3318575   5.553   4.116  10.045 -0.3175  0.4840 -0.2886
  165SOPE   H3X18576   5.543   4.214   9.993  2.8835  1.8713  1.5345
  165SOPE   H3Y18577   5.467   4.060  10.004  2.9144 -3.0168 -2.6232
  165SOPE   C3418578   5.676   4.046   9.981  0.0558  0.0667 -0.1433
  165SOPE   H4X18579   5.758   4.090  10.041  0.1752 -0.2504 -0.0714
  165SOPE   H4Y18580   5.703   4.094   9.884 -0.3458  1.5580  0.4691
  165SOPE   C3518581   5.690   3.897   9.968  0.1266  0.1867  0.5806
  165SOPE   H5X18582   5.685   3.851  10.069  2.5431  1.4427  1.3132
  165SOPE   H5Y18583   5.792   3.873   9.931 -0.6720 -0.8739 -1.0081
  165SOPE   C3618584   5.590   3.820   9.877 -0.3921 -1.0315  0.0107
  165SOPE   H6X18585   5.494   3.818   9.933 -1.0694  0.3841 -1.0777
  165SOPE   H6Y18586   5.638   3.720   9.878 -1.4086 -1.5402 -1.1302
  165SOPE   C3718587   5.566   3.871   9.744 -0.0927 -0.4868 -0.3299
  165SOPE   H7X18588   5.552   3.981   9.744  0.4126 -0.4127  0.6451
  165SOPE   H7Y18589   5.471   3.829   9.704  0.2333 -1.7104  0.1547
  165SOPE   C3818590   5.665   3.843   9.634  0.0057  0.7042 -0.1100
  165SOPE   H8X18591   5.701   3.738   9.640 -2.9033 -0.3287 -0.1311
  165SOPE   H8Y18592   5.752   3.912   9.623 -0.5832  1.2355 -1.5721
  165SOPE   C3918593   5.591   3.866   9.500  0.1461  0.1484  0.4873
  165SOPE   H9X18594   5.547   3.966   9.484 -4.9692 -1.2892  4.2518
  165SOPE   H9Y18595   5.506   3.798   9.478 -0.3309  0.4049  1.4933
  165SOPE  C31018596   5.685   3.849   9.379 -0.0919  0.0390 -0.3821
  165SOPE  H10X18597   5.738   3.754   9.401  1.1409  1.1047  1.4079
  165SOPE  H10Y18598   5.772   3.918   9.375  0.5657 -0.8347 -1.4241
  165SOPE  C31118599   5.611   3.844   9.243 -0.2063 -0.0294 -0.5430
  165SOPE  H11X18600   5.570   3.940   9.207 -0.3480 -0.3018 -1.1182
  165SOPE  H11Y18601   5.528   3.770   9.246 -0.7291  0.4386 -2.8167
  165SOPE  C31218602   5.699   3.794   9.129 -0.9127  0.5008  0.5491
  165SOPE  H12X18603   5.714   3.684   9.136  0.7143  0.6744  0.0644
  165SOPE  H12Y18604   5.793   3.851   9.147 -0.1089 -0.7411  0.3845
  165SOPE  C31318605   5.646   3.829   8.992  0.2781  0.0849  0.5519
  165SOPE  H13X18606   5.721   3.837   8.911 -1.1766 -3.6499 -1.2888
  165SOPE  H13Y18607   5.589   3.925   8.990  0.4881  0.1996 -0.2050
  165SOPE  C31418608   5.547   3.723   8.936 -0.0953 -0.2693 -0.5158
  165SOPE  H14X18609   5.452   3.724   8.995 -0.0871  1.0141 -0.4953
  165SOPE  H14Y18610   5.603   3.628   8.941  0.1264 -0.0427  2.4519
  165SOPE  C31518611   5.518   3.737   8.790 -0.6610 -0.1788  0.1731
  165SOPE  H15X18612   5.522   3.634   8.749  0.9356 -0.0016 -0.1394
  165SOPE  H15Y18613   5.593   3.785   8.724  0.7196 -0.6449  1.3825
  165SOPE  C31618614   5.379   3.801   8.760  0.6629  0.0510  0.1738
  165SOPE  H16X18615   5.372   3.820   8.651 -0.8250  0.3004  0.2902
  165SOPE  H16Y18616   5.359   3.893   8.819 -0.6848 -1.1362  1.6243
  165SOPE  C31718617   5.264   3.707   8.804  0.7683  0.2074  0.7753
  165SOPE  H17X18618   5.278   3.666   8.906 -0.9607  0.0596  0.9687
  165SOPE  H17Y18619   5.252   3.625   8.730  0.9191 -0.6146  1.6455
  165SOPE  C31818620   5.140   3.797   8.811 -0.5447  0.5417  0.3781
  165SOPE  H18X18621   5.129   3.861   8.720  0.6193 -1.4571 -1.2117
  165SOPE  H18Y18622   5.146   3.873   8.892  0.8241 -0.0981  0.8985
  165SOPE  H18Z18623   5.052   3.734   8.832 -0.4392  0.6915  1.2949
  166SOPE     N18624   2.375   3.485  10.646 -0.3643 -0.4436 -0.2138
  166SOPE   HN118625   2.433   3.422  10.586 -1.6436  0.0561 -2.0527
  166SOPE   HN218626   2.277   3.455  10.627 -0.4416  0.2948 -1.0586
  166SOPE   HN318627   2.395   3.585  10.626 -0.5851 -0.3052  0.2422
  166SOPE   C1218628   2.401   3.475  10.797  1.5654 -0.4508  0.2075
  166SOPE  H12A18629   2.497   3.526  10.821  2.5436 -1.5240 -1.3128
  166SOPE  H12B18630   2.415   3.370  10.830  2.5918 -0.2761  0.3485
  166SOPE   C1118631   2.293   3.545  10.870  0.1772 -0.5259 -0.2374
  166SOPE  H11A18632   2.318   3.537  10.978 -0.1187  0.0491 -0.1252
  166SOPE  H11B18633   2.193   3.498  10.863 -0.6244  1.5448 -3.3848
  166SOPE     P18634   2.185   3.772  10.901  0.2616  0.0882 -0.0941
  166SOPE   O1318635   2.252   3.906  10.920 -0.5589 -0.5895 -0.1732
  166SOPE   O1418636   2.133   3.703  11.025 -0.3679  0.3708 -0.1017
  166SOPE   O1218637   2.290   3.685  10.836 -0.7250  0.8753  0.2188
  166SOPE   O1118638   2.070   3.787  10.794 -0.5169  0.0645 -0.3876
  166SOPE    C118639   2.084   3.797  10.651 -0.8135  0.4131 -0.5295
  166SOPE    HA18640   1.989   3.809  10.596 -1.1652  2.4299  0.4513
  166SOPE    HB18641   2.149   3.719  10.607  0.3513  1.5387 -0.8425
  166SOPE    C218642   2.161   3.925  10.609 -0.3342  0.7761  0.1253
  166SOPE    HS18643   2.259   3.923  10.660 -0.8527  0.8131  1.1333
  166SOPE   O2118644   2.076   4.037  10.638  0.0768  0.2531  0.3719
  166SOPE   C2118645   2.147   4.146  10.670 -0.2599  0.0370 -1.2161
  166SOPE   O2218646   2.268   4.144  10.689 -0.5074 -0.2192 -0.3226
  166SOPE   C2218647   2.054   4.270  10.692  0.0520  0.1705 -0.7008
  166SOPE   H2R18648   2.004   4.259  10.791  0.2632 -0.3403 -0.6511
  166SOPE   H2S18649   1.979   4.258  10.611 -0.1529  2.5311 -0.9157
  166SOPE    C318650   2.217   3.920  10.466  0.6541  0.0133 -0.4793
  166SOPE    HX18651   2.296   3.841  10.467 -0.8232 -1.4771  0.0400
  166SOPE    HY18652   2.266   4.016  10.441 -1.2169  1.3950  1.0000
  166SOPE   O3118653   2.110   3.909  10.373 -0.1277  0.2533 -0.4319
  166SOPE   C3118654   2.115   3.805  10.292  0.2314 -0.0966 -0.1628
  166SOPE   O3218655   2.190   3.712  10.308 -0.2074 -0.1620 -0.0266
  166SOPE   C3218656   2.005   3.804  10.193 -0.5300 -1.1117  0.0275
  166SOPE   H2X18657   2.001   3.907  10.151 -0.1590  0.0661  2.8089
  166SOPE   H2Y18658   1.911   3.770  10.242 -0.6442  0.9606  1.3144
  166SOPE   C2318659   2.126   4.401  10.666 -0.2997  0.4995 -0.2801
  166SOPE   H3R18660   2.231   4.410  10.702  0.8737 -2.7139 -2.7165
  166SOPE   H3S18661   2.072   4.493  10.698 -0.1447  1.1145 -1.7420
  166SOPE   C2418662   2.146   4.431  10.508  0.2428 -0.2641  0.3454
  166SOPE   H4R18663   2.246   4.478  10.500  1.2193 -1.8243  2.6567
  166SOPE   H4S18664   2.147   4.336  10.452  0.9454  0.6380 -1.1806
  166SOPE   C2518665   2.039   4.527  10.445  0.4319 -0.3725 -0.1239
  166SOPE   H5R18666   1.941   4.496  10.487 -0.4000 -1.6014 -2.8585
  166SOPE   H5S18667   2.059   4.628  10.486 -1.7630  0.1104 -0.1979
  166SOPE   C2618668   2.036   4.535  10.296 -0.6682  0.2103 -0.0922
  166SOPE   H6R18669   1.999   4.442  10.248  0.6016 -1.0062  1.2275
  166SOPE   H6S18670   1.968   4.616  10.262 -0.4703  2.3205  4.1657
  166SOPE   C2718671   2.159   4.591  10.238 -0.1124 -0.8576 -0.6697
  166SOPE   H7R18672   2.192   4.691  10.273  0.9957 -0.6482 -2.2480
  166SOPE   H7S18673   2.239   4.515  10.254  0.0147 -0.8756 -1.3716
  166SOPE   C2818674   2.151   4.613  10.084 -0.1421 -1.0983  0.0248
  166SOPE   H8R18675   2.126   4.514  10.040 -0.5058  0.7581 -4.1906
  166SOPE   H8S18676   2.067   4.682  10.061  0.4110 -1.1593 -2.2967
  166SOPE   C2918677   2.278   4.663  10.021  0.2122 -0.1514 -0.2514
  166SOPE   H9118678   2.326   4.751  10.066  1.9067 -1.1835  0.0171
  166SOPE  C21018679   2.348   4.601   9.922  0.0016  0.4782  0.2689
  166SOPE  H10118680   2.443   4.642   9.883 -0.1203  0.2929 -0.2125
  166SOPE  C21118681   2.309   4.470   9.855  0.2270  0.3873 -0.2730
  166SOPE  H11R18682   2.199   4.453   9.852  0.3370 -0.4634  0.1802
  166SOPE  H11S18683   2.347   4.383   9.914 -1.9057 -0.7578 -0.5367
  166SOPE  C21218684   2.349   4.477   9.706  0.4558  0.3714 -0.2014
  166SOPE  H12R18685   2.327   4.376   9.664  1.7813  0.6238 -1.5510
  166SOPE  H12S18686   2.459   4.493   9.709  1.2598 -4.3970  0.7517
  166SOPE  C21318687   2.279   4.587   9.621  0.6644  0.3023  0.1803
  166SOPE  H13R18688   2.301   4.688   9.661  2.2566  0.7027 -1.6159
  166SOPE  H13S18689   2.174   4.553   9.606  0.3274  1.2358  0.4180
  166SOPE  C21418690   2.340   4.572   9.477 -0.5997 -0.2609  0.0422
  166SOPE  H14R18691   2.331   4.467   9.440  0.4713 -0.5926  0.6984
  166SOPE  H14S18692   2.447   4.601   9.468 -0.0201 -2.5057 -0.6497
  166SOPE  C21518693   2.268   4.661   9.384 -0.3180  0.0759 -0.0888
  166SOPE  H15R18694   2.296   4.766   9.404 -1.0947  0.2710 -0.0481
  166SOPE  H15S18695   2.158   4.653   9.384 -0.3505  0.5263 -0.2618
  166SOPE  C21618696   2.313   4.644   9.239 -0.1016 -0.0906 -0.2413
  166SOPE  H16R18697   2.286   4.541   9.209  0.6086 -0.2890 -0.2286
  166SOPE  H16S18698   2.424   4.644   9.243 -0.1188 -0.1589  0.3765
  166SOPE  C21718699   2.269   4.752   9.137  0.8343  0.2541  0.7068
  166SOPE  H17R18700   2.314   4.847   9.173  0.1890  1.4440 -1.5257
  166SOPE  H17S18701   2.159   4.764   9.140  1.0430  2.3094  1.1034
  166SOPE  C21818702   2.304   4.724   8.996  0.0772 -0.3427  0.4763
  166SOPE  H18R18703   2.261   4.629   8.958  1.0451  0.1616 -2.0252
  166SOPE  H18S18704   2.412   4.696   9.001  0.2034  0.1428  0.4616
  166SOPE  H18T18705   2.288   4.816   8.937 -0.5092 -1.0381 -0.4645
  166SOPE   C3318706   2.027   3.710  10.069  0.5462  0.3698 -0.1207
  166SOPE   H3X18707   2.035   3.606  10.108  1.2077 -0.9477 -3.6106
  166SOPE   H3Y18708   2.118   3.736  10.011  0.5013 -0.7621 -0.7122
  166SOPE   C3418709   1.911   3.714   9.963  0.0481 -0.3065  0.3148
  166SOPE   H4X18710   1.937   3.794   9.891 -2.9737  1.4511  1.0891
  166SOPE   H4Y18711   1.812   3.724  10.014  0.4567  0.0851  1.0476
  166SOPE   C3518712   1.921   3.585   9.879  0.8634  0.0352 -0.4949
  166SOPE   H5X18713   1.901   3.494   9.939  0.0250  0.9660  0.6587
  166SOPE   H5Y18714   2.027   3.586   9.847  0.2425  0.2666 -2.6907
  166SOPE   C3618715   1.840   3.584   9.747  0.5224 -0.5118 -0.0318
  166SOPE   H6X18716   1.893   3.653   9.678 -2.1260  1.5408 -0.1048
  166SOPE   H6Y18717   1.742   3.630   9.771  1.7234  1.9320  0.4559
  166SOPE   C3718718   1.832   3.441   9.692  0.0339 -0.1568 -0.5719
  166SOPE   H7X18719   1.773   3.381   9.765  0.5064 -0.5474 -0.5047
  166SOPE   H7Y18720   1.930   3.389   9.686 -0.7268 -1.7829  0.7111
  166SOPE   C3818721   1.764   3.432   9.547 -0.8261  0.5603  0.4557
  166SOPE   H8X18722   1.662   3.475   9.562 -1.1007  0.7943 -1.9175
  166SOPE   H8Y18723   1.760   3.326   9.515  2.7271  0.1371  1.1801
  166SOPE   C3918724   1.842   3.492   9.436 -0.1341 -0.4016 -0.0486
  166SOPE   H9X18725   1.943   3.444   9.430 -0.6459 -1.6957  1.3110
  166SOPE   H9Y18726   1.851   3.602   9.427  0.2436 -0.2487  2.1075
  166SOPE  C31018727   1.775   3.445   9.304 -0.7873 -0.8689 -0.6223
  166SOPE  H10X18728   1.665   3.457   9.314 -0.6876 -0.1336 -0.3142
  166SOPE  H10Y18729   1.788   3.336   9.292 -0.6655 -0.7251 -1.8662
  166SOPE  C31118730   1.831   3.524   9.179 -0.6141 -0.2822 -0.4376
  166SOPE  H11X18731   1.941   3.511   9.184 -0.6572  0.2766  2.7796
  166SOPE  H11Y18732   1.810   3.633   9.183  0.8223  0.0230 -0.8485
  166SOPE  C31218733   1.782   3.459   9.053 -0.1843  0.5512  0.2415
  166SOPE  H12X18734   1.673   3.476   9.042  0.0205  0.9104 -1.3566
  166SOPE  H12Y18735   1.801   3.351   9.070  0.6194  0.7136  0.3924
  166SOPE  C31318736   1.858   3.498   8.922  0.4074 -0.0138 -0.1912
  166SOPE  H13X18737   1.811   3.446   8.836 -0.6694 -0.3625  0.6038
  166SOPE  H13Y18738   1.963   3.461   8.920  0.7787  1.0071  0.0780
  166SOPE  C31418739   1.860   3.649   8.888 -0.3560  0.1815  0.6552
  166SOPE  H14X18740   1.894   3.717   8.970  2.4859  0.5695 -0.7969
  166SOPE  H14Y18741   1.756   3.672   8.855  1.0199  0.6071 -3.6898
  166SOPE  C31518742   1.934   3.672   8.758  0.4830 -0.7344  0.9284
  166SOPE  H15X18743   1.897   3.761   8.704  2.1539 -0.3171  0.4448
  166SOPE  H15Y18744   1.930   3.573   8.707 -0.2393 -0.1832 -0.0922
  166SOPE  C31618745   2.084   3.704   8.789  0.5679  0.1197 -0.2824
  166SOPE  H16X18746   2.126   3.626   8.856  0.1932 -0.8202 -1.1385
  166SOPE  H16Y18747   2.098   3.803   8.838 -0.6528  0.2777 -0.2453
  166SOPE  C31718748   2.171   3.699   8.661 -0.0040 -0.5842  0.3704
  166SOPE  H17X18749   2.112   3.757   8.586  1.8891  0.2013 -0.5288
  166SOPE  H17Y18750   2.188   3.599   8.614  0.9812  0.6925 -2.0637
  166SOPE  C31818751   2.303   3.782   8.669 -0.3405 -0.3863  0.8358
  166SOPE  H18X18752   2.359   3.748   8.758 -0.2960  0.2165  1.0378
  166SOPE  H18Y18753   2.280   3.890   8.677 -0.7696 -0.1890 -2.3855
  166SOPE  H18Z18754   2.376   3.773   8.586 -0.3971  0.9875  0.6364
  167SOPE     N18755   3.760   2.292   6.115 -0.5827  0.2391  0.3580
  167SOPE   HN118756   3.756   2.375   6.053 -0.0786  2.5748  3.3266
  167SOPE   HN218757   3.848   2.246   6.085 -0.5658  0.5710 -0.1100
  167SOPE   HN318758   3.682   2.225   6.099  0.2035 -0.6515  0.2385
  167SOPE   C1218759   3.756   2.351   6.249  0.4468 -0.6393  0.2334
  167SOPE  H12A18760   3.751   2.265   6.319  0.4785  1.2368  2.6190
  167SOPE  H12B18761   3.670   2.422   6.242 -1.8478 -3.3571 -0.2825
  167SOPE   C1118762   3.881   2.428   6.285 -0.0550 -0.3013  0.0845
  167SOPE  H11A18763   3.961   2.352   6.281 -0.5207 -0.7470 -0.7517
  167SOPE  H11B18764   3.869   2.460   6.391  0.5309  0.7897 -0.1696
  167SOPE     P18765   3.948   2.674   6.234 -0.1869  0.1560 -0.3342
  167SOPE   O1318766   3.856   2.737   6.332 -0.1625  0.1139 -0.8155
  167SOPE   O1418767   3.982   2.749   6.110 -0.0544 -0.2536 -0.4089
  167SOPE   O1218768   3.906   2.533   6.196 -0.1112  0.3833  0.3901
  167SOPE   O1118769   4.089   2.647   6.311  0.0938  0.2904  0.5293
  167SOPE    C118770   4.184   2.749   6.342 -0.2012  0.6246 -0.5489
  167SOPE    HA18771   4.179   2.830   6.266 -2.4603  1.3449  0.3168
  167SOPE    HB18772   4.283   2.699   6.333 -1.2990 -1.5754 -0.8212
  167SOPE    C218773   4.162   2.792   6.490 -0.0082  0.8736 -0.1285
  167SOPE    HS18774   4.055   2.809   6.514  0.0499  0.3794  0.4932
  167SOPE   O2118775   4.239   2.907   6.524  0.5703  0.4810  0.0881
  167SOPE   C2118776   4.208   3.027   6.478  0.1364  0.2921 -0.1896
  167SOPE   O2218777   4.104   3.061   6.427  0.6552  0.2218  0.2338
  167SOPE   C2218778   4.315   3.123   6.530  0.2536  0.4653  0.7614
  167SOPE   H2R18779   4.307   3.224   6.484 -0.9195  0.9140  1.9214
  167SOPE   H2S18780   4.420   3.100   6.501 -0.5619 -2.5274 -0.0671
  167SOPE    C318781   4.211   2.673   6.578 -0.6077  0.3627 -0.6000
  167SOPE    HX18782   4.306   2.630   6.538 -0.1985 -0.3931  1.1447
  167SOPE    HY18783   4.138   2.590   6.563  2.3744 -2.5166  0.1709
  167SOPE   O3118784   4.227   2.710   6.715  0.3281  0.1686 -0.7570
  167SOPE   C3118785   4.347   2.745   6.747  0.5753  0.4308 -0.2884
  167SOPE   O3218786   4.445   2.760   6.672  0.8257  0.0303  0.4194
  167SOPE   C3218787   4.354   2.765   6.894  0.3158 -0.3801 -0.3308
  167SOPE   H2X18788   4.361   2.667   6.946  2.1173  0.4668  1.0739
  167SOPE   H2Y18789   4.261   2.822   6.916  0.3571  0.7089 -2.8135
  167SOPE   C2318790   4.311   3.122   6.683 -0.1595 -0.1135 -0.2812
  167SOPE   H3R18791   4.398   3.173   6.728 -0.3873 -1.9941  2.3845
  167SOPE   H3S18792   4.310   3.014   6.712  0.2593  0.2076  0.9540
  167SOPE   C2418793   4.178   3.197   6.731 -0.6724 -0.7275  0.6332
  167SOPE   H4R18794   4.199   3.305   6.743  0.0045 -0.5729 -1.6584
  167SOPE   H4S18795   4.095   3.195   6.658 -0.8293 -1.2670  0.8284
  167SOPE   C2518796   4.144   3.149   6.873 -0.3489 -0.1033 -0.5821
  167SOPE   H5R18797   4.055   3.208   6.904  1.8977  1.2412  3.6502
  167SOPE   H5S18798   4.121   3.041   6.874  2.6326 -0.7957 -1.1731
  167SOPE   C2618799   4.245   3.187   6.982 -0.3150  0.1600  0.6559
  167SOPE   H6R18800   4.352   3.169   6.963 -0.6842 -2.3672  0.7431
  167SOPE   H6S18801   4.235   3.294   7.007 -2.0033  0.6706 -2.0276
  167SOPE   C2718802   4.220   3.114   7.120 -0.6676 -0.7373 -0.0169
  167SOPE   H7R18803   4.226   3.004   7.106  0.9637 -1.1696  3.3515
  167SOPE   H7S18804   4.306   3.154   7.178 -1.3097  0.5078  0.0897
  167SOPE   C2818805   4.084   3.139   7.185 -0.1886 -0.0711  0.4537
  167SOPE   H8R18806   4.070   3.247   7.167 -3.0726 -0.5259 -0.1905
  167SOPE   H8S18807   4.012   3.081   7.124  1.4427 -1.7067  0.0257
  167SOPE   C2918808   4.098   3.094   7.327 -0.1066  0.2912 -0.5274
  167SOPE   H9118809   4.107   3.177   7.397 -0.8596  1.2448 -1.5360
  167SOPE  C21018810   4.093   2.966   7.369 -0.3398 -0.0504 -0.4880
  167SOPE  H10118811   4.093   2.953   7.478 -0.9918  1.1377 -0.3439
  167SOPE  C21118812   4.072   2.846   7.281  0.3362 -0.5018 -0.0005
  167SOPE  H11R18813   4.088   2.868   7.173  1.9502  1.4756  0.6075
  167SOPE  H11S18814   3.970   2.803   7.288 -0.4399  1.5821  1.9307
  167SOPE  C21218815   4.158   2.724   7.330 -0.1557  0.0734  1.1578
  167SOPE  H12R18816   4.265   2.753   7.331 -0.0695  0.0854 -2.4659
  167SOPE  H12S18817   4.148   2.642   7.256  0.5410  1.3202 -0.3444
  167SOPE  C21318818   4.119   2.666   7.469  0.0782 -0.0815 -0.3488
  167SOPE  H13R18819   4.022   2.617   7.446  0.3133 -0.7649  0.0779
  167SOPE  H13S18820   4.119   2.742   7.551  1.9016  0.9612 -1.2933
  167SOPE  C21418821   4.222   2.553   7.505 -0.0390 -0.4839 -0.3620
  167SOPE  H14R18822   4.315   2.604   7.539  0.0425 -0.3622 -0.7632
  167SOPE  H14S18823   4.258   2.502   7.413  1.1965 -0.4979  0.1236
  167SOPE  C21518824   4.171   2.460   7.615 -0.2329  0.2655 -0.8587
  167SOPE  H15R18825   4.253   2.389   7.638 -1.3972 -0.5885  0.7902
  167SOPE  H15S18826   4.088   2.400   7.573  0.1987  0.6896 -2.3291
  167SOPE  C21618827   4.114   2.533   7.738 -0.7698  0.2900  0.0407
  167SOPE  H16R18828   4.023   2.591   7.709 -0.1728  0.9316 -0.5970
  167SOPE  H16S18829   4.193   2.599   7.779 -0.1669 -1.1833  1.2964
  167SOPE  C21718830   4.086   2.438   7.861 -0.2414 -0.0643 -0.0193
  167SOPE  H17R18831   4.072   2.484   7.961 -0.3357  1.4339 -0.7050
  167SOPE  H17S18832   4.173   2.374   7.887 -1.1500 -1.1332  0.4694
  167SOPE  C21818833   3.963   2.348   7.846 -0.2556  0.1879  0.7323
  167SOPE  H18R18834   3.861   2.392   7.855 -0.4471  0.2439 -1.4227
  167SOPE  H18S18835   3.965   2.268   7.924 -3.7892 -0.1711  0.5618
  167SOPE  H18T18836   3.960   2.298   7.747 -1.5177  0.1221  0.7903
  167SOPE   C3318837   4.493   2.827   6.927  0.3759 -0.4777 -0.5106
  167SOPE   H3X18838   4.505   2.922   6.870  0.8472  0.2775  0.8215
  167SOPE   H3Y18839   4.577   2.764   6.892  1.6617  0.7551  0.3110
  167SOPE   C3418840   4.513   2.859   7.079 -0.4142  1.1619  0.0197
  167SOPE   H4X18841   4.496   2.762   7.130  0.9835 -0.0067 -1.6559
  167SOPE   H4Y18842   4.427   2.923   7.108 -0.3181  2.2678 -2.0491
  167SOPE   C3518843   4.642   2.922   7.129 -0.4086 -0.7678  0.0316
  167SOPE   H5X18844   4.621   3.029   7.104 -4.3409 -1.5454 -0.3854
  167SOPE   H5Y18845   4.725   2.890   7.064 -2.0403 -1.3762 -1.7879
  167SOPE   C3618846   4.670   2.920   7.271  0.4708 -0.0569 -0.8007
  167SOPE   H6X18847   4.767   2.973   7.277  0.7443 -0.7638  2.1613
  167SOPE   H6Y18848   4.676   2.818   7.315  0.9450 -0.8977 -2.7387
  167SOPE   C3718849   4.564   2.993   7.369 -0.0492 -0.5681  0.5773
  167SOPE   H7X18850   4.463   2.947   7.363 -0.3157  0.3862 -3.4137
  167SOPE   H7Y18851   4.560   3.103   7.360 -1.6946 -0.6838 -0.3895
  167SOPE   C3818852   4.615   2.969   7.520  0.0299 -0.0560 -0.5274
  167SOPE   H8X18853   4.709   3.024   7.541 -1.0403  0.8122  2.2015
  167SOPE   H8Y18854   4.641   2.861   7.530 -1.4237 -0.3441  0.2364
  167SOPE   C3918855   4.513   2.995   7.632  0.2399  0.2716 -1.2705
  167SOPE   H9X18856   4.492   3.103   7.652  2.3591  0.3291  0.8173
  167SOPE   H9Y18857   4.550   2.962   7.731 -0.7163 -0.3026 -1.0995
  167SOPE  C31018858   4.380   2.917   7.634  0.1993 -0.3275 -0.0489
  167SOPE  H10X18859   4.401   2.810   7.612 -1.2461 -0.8983  1.2155
  167SOPE  H10Y18860   4.320   2.960   7.551  1.3626 -1.3140 -1.4084
  167SOPE  C31118861   4.308   2.920   7.775  0.1260  0.7003 -0.2800
  167SOPE  H11X18862   4.198   2.906   7.765  0.1816  0.4861 -0.5902
  167SOPE  H11Y18863   4.322   3.021   7.820 -0.1634 -0.0651  1.5668
  167SOPE  C31218864   4.369   2.825   7.884  0.5964  0.0903 -0.3045
  167SOPE  H12X18865   4.465   2.868   7.919  0.5684  0.6134 -0.8683
  167SOPE  H12Y18866   4.396   2.727   7.839 -0.5181  0.5635 -2.0078
  167SOPE  C31318867   4.279   2.794   8.000 -0.0447  0.0780  0.4199
  167SOPE  H13X18868   4.350   2.735   8.061 -0.1927 -2.9813 -2.2636
  167SOPE  H13Y18869   4.192   2.731   7.973 -0.4320  1.1915 -0.9607
  167SOPE  C31418870   4.223   2.912   8.077 -0.1338 -1.0475  0.0662
  167SOPE  H14X18871   4.140   2.970   8.032 -0.8065 -1.4563  0.7742
  167SOPE  H14Y18872   4.308   2.981   8.096  1.3551 -2.9478  0.3760
  167SOPE  C31518873   4.168   2.857   8.212  0.6891 -0.4160 -0.7948
  167SOPE  H15X18874   4.253   2.804   8.260  2.4006  0.5956 -2.5912
  167SOPE  H15Y18875   4.094   2.774   8.202  2.5259 -2.3541  1.2528
  167SOPE  C31618876   4.092   2.958   8.298  0.4076 -0.0757  0.0097
  167SOPE  H16X18877   4.016   3.008   8.234 -0.6890  1.0851  2.2051
  167SOPE  H16Y18878   4.160   3.030   8.347 -0.5502  1.7130 -1.2319
  167SOPE  C31718879   4.011   2.885   8.408  0.2510  0.4998 -0.3460
  167SOPE  H17X18880   3.945   2.808   8.365 -0.4568  0.2941  1.0909
  167SOPE  H17Y18881   3.947   2.964   8.452  0.6785  0.0890  1.0563
  167SOPE  C31818882   4.080   2.810   8.519  0.5604 -0.5799 -0.5161
  167SOPE  H18X18883   4.014   2.760   8.593  0.2900  0.3224 -0.1381
  167SOPE  H18Y18884   4.151   2.881   8.566  0.6995 -0.4616 -0.9045
  167SOPE  H18Z18885   4.130   2.723   8.472  0.0761 -0.5730 -1.0472
  168SOPE     N18886   4.199   6.544   6.182 -0.8049 -0.3517 -0.6718
  168SOPE   HN118887   4.120   6.567   6.119  1.4002  0.8187 -3.1191
  168SOPE   HN218888   4.281   6.601   6.152 -3.0621  1.5046 -3.6534
  168SOPE   HN318889   4.217   6.442   6.175  1.2433 -0.2104  1.5556
  168SOPE   C1218890   4.170   6.579   6.322  0.3898 -1.0720 -0.1855
  168SOPE  H12A18891   4.230   6.514   6.389  1.6202  0.7489  0.5338
  168SOPE  H12B18892   4.059   6.577   6.331  0.1314  1.1583 -2.3815
  168SOPE   C1118893   4.221   6.721   6.367 -0.4607  0.0805  0.2109
  168SOPE  H11A18894   4.324   6.732   6.405 -0.5106  3.4036 -0.4283
  168SOPE  H11B18895   4.164   6.745   6.459 -2.7948  0.2653 -1.2487
  168SOPE     P18896   4.170   6.968   6.294 -0.2309  0.3366  0.1146
  168SOPE   O1318897   4.136   7.039   6.172 -0.1221  0.7504 -0.0131
  168SOPE   O1418898   4.290   7.010   6.375 -0.1253  0.4863  0.2857
  168SOPE   O1218899   4.185   6.812   6.259  0.0512 -0.2585 -0.4654
  168SOPE   O1118900   4.040   6.965   6.382  0.3421  0.1082  0.0297
  168SOPE    C118901   4.018   7.078   6.468 -0.3942  0.1704 -0.5157
  168SOPE    HA18902   3.921   7.127   6.445 -0.3970  0.7031  0.5811
  168SOPE    HB18903   4.095   7.157   6.457  0.2696 -0.4044 -0.1041
  168SOPE    C218904   4.032   7.042   6.618 -0.4058  0.3212  0.5205
  168SOPE    HS18905   4.140   7.034   6.643 -0.9994 -2.4495  2.4519
  168SOPE   O2118906   3.966   6.912   6.632  0.0886 -0.2525  0.0482
  168SOPE   C2118907   4.013   6.828   6.727  0.1202  0.1048  0.4754
  168SOPE   O2218908   4.120   6.842   6.793  0.0293 -0.2700  0.5079
  168SOPE   C2218909   3.920   6.705   6.728  0.0059 -0.3032  0.4164
  168SOPE   H2R18910   3.913   6.668   6.623 -1.5510 -2.3498  1.2107
  168SOPE   H2S18911   3.816   6.732   6.757  1.1040  1.2392  3.0592
  168SOPE    C318912   3.970   7.140   6.717 -0.0561 -0.0980 -1.2483
  168SOPE    HX18913   3.861   7.145   6.697 -0.6309  1.5195  1.8657
  168SOPE    HY18914   4.020   7.240   6.708  0.2688 -0.0327  1.0094
  168SOPE   O3118915   3.983   7.090   6.852  0.4113 -0.4327  0.3556
  168SOPE   C3118916   4.091   7.124   6.914  0.9072 -0.1989  0.5683
  168SOPE   O3218917   4.175   7.200   6.870  0.3973  0.1956 -0.5353
  168SOPE   C3218918   4.095   7.043   7.044 -0.3241  0.7450 -0.5936
  168SOPE   H2X18919   4.200   7.019   7.069 -0.7549  2.6083  3.4123
  168SOPE   H2Y18920   4.041   6.946   7.043  0.3006  0.3945 -0.7989
  168SOPE   C2318921   3.984   6.593   6.810 -0.0452 -0.1405 -0.4331
  168SOPE   H3R18922   4.083   6.565   6.771  0.3524  1.0211 -0.2984
  168SOPE   H3S18923   3.918   6.504   6.801 -1.3800  0.4945  2.2363
  168SOPE   C2418924   3.986   6.628   6.964 -0.3248 -0.5008 -0.1579
  168SOPE   H4R18925   4.057   6.711   6.987 -0.8725  0.1523 -0.8142
  168SOPE   H4S18926   3.885   6.659   6.997  0.4620  0.1526  1.7146
  168SOPE   C2518927   4.016   6.505   7.053 -0.2799 -0.3097 -0.8930
  168SOPE   H5R18928   3.932   6.431   7.052  0.5763 -1.4212  2.1407
  168SOPE   H5S18929   4.112   6.455   7.030 -0.0531 -1.1495  1.6223
  168SOPE   C2618930   4.018   6.536   7.204  0.0690  0.4850  0.9409
  168SOPE   H6R18931   4.106   6.599   7.229 -0.3999  0.6598  2.1730
  168SOPE   H6S18932   3.934   6.601   7.236 -0.3220  0.1011  0.7016
  168SOPE   C2718933   4.031   6.417   7.295  0.9578  0.3142 -0.1584
  168SOPE   H7R18934   3.949   6.345   7.276  1.3134 -0.3436  0.7912
  168SOPE   H7S18935   4.126   6.366   7.269  0.3268 -1.3079  0.6391
  168SOPE   C2818936   4.047   6.456   7.440 -0.4688  0.3004  0.3367
  168SOPE   H8R18937   4.137   6.519   7.455  0.7541 -1.2725 -0.2057
  168SOPE   H8S18938   3.967   6.527   7.472  0.0493  0.5305  1.1508
  168SOPE   C2918939   4.039   6.344   7.542 -0.0882  1.0899  0.1968
  168SOPE   H9118940   4.011   6.247   7.499  0.6389  2.1275 -2.7292
  168SOPE  C21018941   4.060   6.355   7.682  0.8031 -0.0171  0.4771
  168SOPE  H10118942   4.056   6.267   7.749 -0.8028  0.1903  0.6571
  168SOPE  C21118943   4.094   6.483   7.756 -0.2371 -0.2215  0.3728
  168SOPE  H11R18944   4.007   6.523   7.812 -0.7880 -1.1741  0.2176
  168SOPE  H11S18945   4.125   6.563   7.686 -3.2274  1.3720  0.7645
  168SOPE  C21218946   4.215   6.473   7.849 -0.1251 -0.5862  0.7159
  168SOPE  H12R18947   4.186   6.409   7.935 -0.7759  0.6682  1.4513
  168SOPE  H12S18948   4.236   6.579   7.876 -1.7032  0.4192 -1.7869
  168SOPE  C21318949   4.346   6.416   7.784 -0.0968  0.3162  0.4632
  168SOPE  H13R18950   4.354   6.467   7.685  1.9452  0.2186  0.5628
  168SOPE  H13S18951   4.349   6.307   7.762  1.7595  0.0485  1.9143
  168SOPE  C21418952   4.476   6.438   7.863 -0.3683 -0.2651 -0.5010
  168SOPE  H14R18953   4.468   6.534   7.918 -0.3715  0.2503 -1.3867
  168SOPE  H14S18954   4.554   6.433   7.784  1.6938  0.9666  1.4166
  168SOPE  C21518955   4.500   6.314   7.949 -0.0987  0.6957 -0.8492
  168SOPE  H15R18956   4.496   6.230   7.876  1.8309 -0.4683  0.3202
  168SOPE  H15S18957   4.417   6.305   8.023  0.6038 -0.2402 -0.1631
  168SOPE  C21618958   4.638   6.315   8.016 -0.2592  0.1440  0.3332
  168SOPE  H16R18959   4.665   6.408   8.069 -1.5820 -0.7294  2.6269
  168SOPE  H16S18960   4.708   6.309   7.930 -0.8527 -0.0048 -0.1472
  168SOPE  C21718961   4.666   6.181   8.088  0.0507 -0.2817  0.0175
  168SOPE  H17R18962   4.777   6.170   8.085  0.1159 -0.0377  1.4940
  168SOPE  H17S18963   4.615   6.103   8.028 -0.9289 -1.2873  2.1114
  168SOPE  C21818964   4.615   6.185   8.230 -0.2393 -0.3964 -0.1519
  168SOPE  H18R18965   4.665   6.265   8.289  1.7193 -1.7851  0.1494
  168SOPE  H18S18966   4.625   6.087   8.283  1.5683 -0.6847 -0.9969
  168SOPE  H18T18967   4.506   6.202   8.237 -0.2518 -0.5829  0.1537
  168SOPE   C3318968   4.041   7.133   7.157  0.0220 -0.0835 -0.4628
  168SOPE   H3X18969   3.934   7.152   7.133 -0.3888  0.6645  1.7776
  168SOPE   H3Y18970   4.102   7.224   7.173 -0.5870  0.0506  1.3225
  168SOPE   C3418971   4.053   7.049   7.288  0.4185 -0.2507  0.0139
  168SOPE   H4X18972   4.157   7.022   7.315  0.3500  0.2170  0.7614
  168SOPE   H4Y18973   3.996   6.953   7.280  0.2617 -0.2638  1.1447
  168SOPE   C3518974   4.001   7.126   7.412  0.1529  0.7835 -0.1360
  168SOPE   H5X18975   3.894   7.157   7.404 -1.1140 -2.7946  1.8803
  168SOPE   H5Y18976   4.058   7.219   7.434  0.3497  1.1021 -1.8946
  168SOPE   C3618977   4.000   7.030   7.536 -0.2421 -0.6597  0.0526
  168SOPE   H6X18978   4.101   6.985   7.548  0.0454  0.1409  0.7780
  168SOPE   H6Y18979   3.937   6.941   7.516 -2.1003  0.1055  2.2673
  168SOPE   C3718980   3.958   7.108   7.662  1.2704  0.1119  0.6934
  168SOPE   H7X18981   3.847   7.109   7.663  1.2553  0.2753 -0.4065
  168SOPE   H7Y18982   3.988   7.215   7.651  0.8658  0.4176  2.4254
  168SOPE   C3818983   3.997   7.053   7.801  0.3122 -0.0699 -0.1814
  168SOPE   H8X18984   3.940   6.961   7.826  1.7729 -0.7804  0.5925
  168SOPE   H8Y18985   3.949   7.118   7.877 -0.8255 -2.7211  1.4350
  168SOPE   C3918986   4.144   7.054   7.843  0.3612  0.2594  0.1000
  168SOPE   H9X18987   4.193   7.145   7.802  1.9291 -0.3532  0.5903
  168SOPE   H9Y18988   4.194   6.963   7.804 -0.3848 -0.6352  1.2330
  168SOPE  C31018989   4.169   7.058   7.998 -0.4637  1.1524 -0.5729
  168SOPE  H10X18990   4.111   7.143   8.040 -0.7188  1.3013 -1.2279
  168SOPE  H10Y18991   4.277   7.071   8.022 -0.2649 -3.2340  1.2903
  168SOPE  C31118992   4.131   6.928   8.072  0.5581 -0.2380 -0.0547
  168SOPE  H11X18993   4.189   6.841   8.033 -0.8116 -1.7334  1.1585
  168SOPE  H11Y18994   4.024   6.901   8.068  0.5203  0.0851 -1.2485
  168SOPE  C31218995   4.169   6.940   8.220 -0.4667 -0.2007 -0.0571
  168SOPE  H12X18996   4.112   7.025   8.261 -0.4621  0.5958 -1.6508
  168SOPE  H12Y18997   4.279   6.951   8.228 -0.2694 -0.9385 -1.5178
  168SOPE  C31318998   4.142   6.807   8.298  0.1966 -0.4192 -0.5878
  168SOPE  H13X18999   4.203   6.726   8.253  0.6149  2.1062 -4.8797
  168SOPE  H13Y19000   4.033   6.792   8.282 -0.1953 -1.8873  3.0393
  168SOPE  C31419001   4.154   6.813   8.447 -0.4256 -0.5278 -0.5991
  168SOPE  H14X19002   4.097   6.895   8.494  3.7137  1.5613  1.0464
  168SOPE  H14Y19003   4.257   6.845   8.474 -1.0108 -0.2967  1.4753
  168SOPE  C31519004   4.122   6.684   8.517 -0.4345  0.3646 -0.1357
  168SOPE  H15X19005   4.169   6.594   8.470 -1.1460 -0.4559  0.6957
  168SOPE  H15Y19006   4.015   6.658   8.504 -0.3028 -0.5346  0.5044
  168SOPE  C31619007   4.177   6.671   8.657 -0.1644  0.4114  0.2266
  168SOPE  H16X19008   4.127   6.583   8.703 -0.5727 -0.4720 -1.8262
  168SOPE  H16Y19009   4.168   6.768   8.710  1.8554  0.8643 -0.2332
  168SOPE  C31719010   4.330   6.642   8.660  0.8428  0.0745  0.0983
  168SOPE  H17X19011   4.384   6.729   8.617  0.4615  0.1311 -0.2708
  168SOPE  H17Y19012   4.347   6.562   8.585 -3.3388 -1.4424  0.6322
  168SOPE  C31819013   4.383   6.593   8.798  0.2857  0.6762 -0.0600
  168SOPE  H18X19014   4.375   6.679   8.868 -1.3615  0.6713 -0.2184
  168SOPE  H18Y19015   4.490   6.564   8.796  0.1839  0.3420 -1.1738
  168SOPE  H18Z19016   4.320   6.516   8.846  0.0599  0.4330 -0.7439
  169SOPE     N19017   5.834   2.761   6.299 -0.2633 -0.0800 -0.5961
  169SOPE   HN119018   5.768   2.777   6.220 -1.5226 -2.5014 -0.0908
  169SOPE   HN219019   5.792   2.823   6.371 -1.7720 -0.7466 -0.8821
  169SOPE   HN319020   5.929   2.795   6.275  0.0032 -2.0023 -2.3642
  169SOPE   C1219021   5.821   2.615   6.348 -0.3552  0.1087 -0.0943
  169SOPE  H12A19022   5.918   2.567   6.323 -0.8525 -1.5635  1.0818
  169SOPE  H12B19023   5.735   2.569   6.296 -0.1768 -0.1069 -0.1955
  169SOPE   C1119024   5.824   2.599   6.498  0.7520 -0.2740 -0.0463
  169SOPE  H11A19025   5.730   2.635   6.546  0.5204  0.1399 -0.7938
  169SOPE  H11B19026   5.917   2.642   6.541  0.1878  0.4176  0.4994
  169SOPE     P19027   5.950   2.369   6.508  0.0010 -0.0476  0.3596
  169SOPE   O1319028   6.069   2.454   6.499 -0.3612 -0.2359 -0.0044
  169SOPE   O1419029   5.921   2.287   6.389  0.5534  0.0197 -0.8057
  169SOPE   O1219030   5.826   2.459   6.533 -0.2760 -0.4476 -0.0621
  169SOPE   O1119031   5.964   2.284   6.638  0.2429 -0.2396 -0.3456
  169SOPE    C119032   5.994   2.352   6.757  0.3459 -0.2061 -0.1993
  169SOPE    HA19033   5.916   2.322   6.830  0.7651  0.8724  0.7070
  169SOPE    HB19034   5.996   2.463   6.751 -0.0214 -0.2524 -1.2613
  169SOPE    C219035   6.128   2.300   6.798 -0.1847  0.1450 -0.2399
  169SOPE    HS19036   6.202   2.329   6.721 -3.2051  1.0643 -2.8661
  169SOPE   O2119037   6.118   2.157   6.812 -0.1539  0.1969 -0.4042
  169SOPE   C2119038   6.239   2.100   6.787 -0.2876  0.3630 -0.5581
  169SOPE   O2219039   6.345   2.159   6.773 -0.1202 -0.4510  0.2241
  169SOPE   C2219040   6.223   1.946   6.783 -0.0123  0.0207  0.2075
  169SOPE   H2R19041   6.210   1.912   6.678  0.3686  0.6085 -0.0347
  169SOPE   H2S19042   6.130   1.915   6.836  0.1053 -0.5935  0.0580
  169SOPE    C319043   6.176   2.372   6.929 -0.3568 -0.4383 -0.5757
  169SOPE    HX19044   6.184   2.483   6.922  0.0586 -0.2814  1.9044
  169SOPE    HY19045   6.282   2.340   6.940  0.4698  2.2610 -0.2767
  169SOPE   O3119046   6.094   2.349   7.045 -0.4880 -0.2791 -0.4135
  169SOPE   C3119047   6.152   2.322   7.154  0.1580  0.5192  0.0625
  169SOPE   O3219048   6.271   2.343   7.181  0.1215 -0.3176  0.4890
  169SOPE   C3219049   6.055   2.254   7.245  0.1805 -0.4970  0.4032
  169SOPE   H2X19050   6.086   2.147   7.242 -1.3653 -0.9438 -0.5595
  169SOPE   H2Y19051   5.955   2.276   7.202  0.3500  0.3195  0.4188
  169SOPE   C2319052   6.344   1.868   6.854 -0.1935  0.4105 -0.0248
  169SOPE   H3R19053   6.433   1.889   6.791  0.4547 -1.7714  0.1254
  169SOPE   H3S19054   6.327   1.759   6.843 -1.5032  0.7290 -1.3569
  169SOPE   C2419055   6.365   1.916   7.002  0.3139  0.6276 -1.3086
  169SOPE   H4R19056   6.445   1.850   7.041 -0.5382 -0.4572 -1.3751
  169SOPE   H4S19057   6.412   2.017   7.010  1.2433  0.2037 -1.3894
  169SOPE   C2519058   6.242   1.902   7.093 -0.0024 -0.0289 -0.8611
  169SOPE   H5R19059   6.167   1.973   7.053 -0.1683  1.0880  1.3361
  169SOPE   H5S19060   6.191   1.805   7.074 -1.0667  0.0623  1.3737
  169SOPE   C2619061   6.260   1.914   7.247 -0.4264  0.0091 -0.0648
  169SOPE   H6R19062   6.359   1.876   7.279 -0.3127 -0.4980 -1.0197
  169SOPE   H6S19063   6.271   2.019   7.282  0.9378 -0.9124  2.4430
  169SOPE   C2719064   6.145   1.848   7.324 -0.1049 -0.4962  0.5401
  169SOPE   H7R19065   6.052   1.910   7.324  0.0273 -0.2910 -0.3329
  169SOPE   H7S19066   6.128   1.747   7.283 -3.2525  0.6480 -1.2275
  169SOPE   C2819067   6.175   1.844   7.472 -0.2896  0.0209 -0.2146
  169SOPE   H8R19068   6.282   1.815   7.486  0.4015  2.2240 -0.8041
  169SOPE   H8S19069   6.162   1.942   7.521  0.8535  0.4484 -0.7407
  169SOPE   C2919070   6.085   1.737   7.531 -0.2456  0.7999  0.2326
  169SOPE   H9119071   6.071   1.639   7.483 -0.7037  0.7959  0.3658
  169SOPE  C21019072   6.010   1.741   7.641  0.1635  0.1087 -0.1291
  169SOPE  H10119073   5.954   1.650   7.667  1.5933 -0.6698  0.2302
  169SOPE  C21119074   6.018   1.858   7.745 -0.6336 -0.7214 -0.6133
  169SOPE  H11R19075   5.923   1.916   7.737  0.4441  0.9764 -1.2830
  169SOPE  H11S19076   6.106   1.925   7.737  0.8945 -2.5489  0.5061
  169SOPE  C21219077   6.006   1.812   7.892  0.1021  0.3310 -0.1934
  169SOPE  H12R19078   5.924   1.738   7.904  0.0477  0.4119 -0.0758
  169SOPE  H12S19079   5.979   1.895   7.961 -2.0770 -1.5540  1.2999
  169SOPE  C21319080   6.141   1.770   7.953  0.1825  0.9651 -0.5059
  169SOPE  H13R19081   6.217   1.850   7.943  0.5593  1.0201  2.4409
  169SOPE  H13S19082   6.181   1.689   7.889  0.0806  1.1053 -0.7471
  169SOPE  C21419083   6.119   1.734   8.103 -0.8075  0.4637  0.0642
  169SOPE  H14R19084   6.016   1.695   8.106 -0.5927 -0.0907  0.3282
  169SOPE  H14S19085   6.135   1.816   8.177 -2.0235  0.0106  0.8425
  169SOPE  C21519086   6.224   1.627   8.155 -0.5851 -0.5647  0.1416
  169SOPE  H15R19087   6.229   1.536   8.092 -1.4065  0.4943 -1.5002
  169SOPE  H15S19088   6.175   1.588   8.247  1.0046 -1.6521  0.5442
  169SOPE  C21619089   6.370   1.670   8.188  0.3962  0.4686 -0.6056
  169SOPE  H16R19090   6.416   1.576   8.228  0.8414  1.1007  0.4043
  169SOPE  H16S19091   6.360   1.744   8.270  1.7621  1.8692 -1.6849
  169SOPE  C21719092   6.442   1.730   8.071  0.4351  0.3914 -0.6799
  169SOPE  H17R19093   6.393   1.823   8.034  0.2085  0.1990 -0.8653
  169SOPE  H17S19094   6.447   1.663   7.983 -2.3269 -3.8146  2.2177
  169SOPE  C21819095   6.569   1.785   8.119 -0.5204  1.1727 -0.2269
  169SOPE  H18R19096   6.643   1.821   8.045  1.5632  1.8288  2.0895
  169SOPE  H18S19097   6.620   1.712   8.185 -1.5157  2.2115  1.7315
  169SOPE  H18T19098   6.555   1.874   8.184  1.1523  2.1437 -1.1796
  169SOPE   C3319099   6.047   2.313   7.395  0.2679  0.7771 -0.7822
  169SOPE   H3X19100   5.991   2.409   7.390  1.3546  1.4775  0.3525
  169SOPE   H3Y19101   6.147   2.327   7.441 -0.1528 -0.9966  0.7557
  169SOPE   C3419102   5.963   2.225   7.488 -0.0566  0.4288 -0.6174
  169SOPE   H4X19103   6.021   2.132   7.507  2.0877  1.9537  0.5446
  169SOPE   H4Y19104   5.875   2.189   7.431 -1.7265  2.0858  0.8559
  169SOPE   C3519105   5.927   2.302   7.614 -0.2002 -0.1078  0.2845
  169SOPE   H5X19106   5.869   2.395   7.595 -0.4227  0.0392  1.6387
  169SOPE   H5Y19107   6.024   2.322   7.665  0.0114 -0.5911  0.0738
  169SOPE   C3619108   5.830   2.217   7.710 -0.5524  0.0806 -0.0329
  169SOPE   H6X19109   5.875   2.121   7.742 -0.5363  0.0332 -0.2013
  169SOPE   H6Y19110   5.741   2.187   7.652 -0.1110  0.7615 -1.0685
  169SOPE   C3719111   5.806   2.286   7.843 -0.1830 -0.1134  0.0797
  169SOPE   H7X19112   5.764   2.383   7.808  1.9297  0.3697 -1.2382
  169SOPE   H7Y19113   5.904   2.306   7.892 -1.5326  1.4025  2.2834
  169SOPE   C3819114   5.717   2.210   7.936 -0.0075  0.1988 -0.4078
  169SOPE   H8X19115   5.629   2.181   7.875 -0.3789  2.0284 -0.7667
  169SOPE   H8Y19116   5.767   2.117   7.971  0.1093  1.2117  2.2205
  169SOPE   C3919117   5.676   2.280   8.067 -0.2045  0.3877  0.0969
  169SOPE   H9X19118   5.603   2.216   8.121  1.8975 -1.3971  0.9057
  169SOPE   H9Y19119   5.617   2.372   8.045 -0.2604  0.5786  1.0103
  169SOPE  C31019120   5.803   2.299   8.157 -0.1829  0.4804 -0.5882
  169SOPE  H10X19121   5.885   2.335   8.092 -0.2405  3.1393  0.7258
  169SOPE  H10Y19122   5.829   2.204   8.208  0.7393  2.3885  2.6648
  169SOPE  C31119123   5.785   2.388   8.276  0.4643  0.0870 -0.3423
  169SOPE  H11X19124   5.882   2.393   8.330  0.2872 -0.2713  0.0137
  169SOPE  H11Y19125   5.720   2.346   8.356  0.1901  0.0335 -0.5950
  169SOPE  C31219126   5.724   2.523   8.250 -0.0589 -0.0566 -0.6459
  169SOPE  H12X19127   5.621   2.505   8.212 -1.6607  1.3559  2.8914
  169SOPE  H12Y19128   5.775   2.573   8.165  0.3130 -0.2456 -0.5380
  169SOPE  C31319129   5.728   2.614   8.370  0.0999 -0.4032 -0.3627
  169SOPE  H13X19130   5.819   2.605   8.433  1.2139  1.5667 -1.6200
  169SOPE  H13Y19131   5.650   2.577   8.439  0.2954  2.9528  1.7888
  169SOPE  C31419132   5.708   2.764   8.340  0.2661 -0.0210 -0.4017
  169SOPE  H14X19133   5.641   2.766   8.252 -1.2693  4.1470  0.7397
  169SOPE  H14Y19134   5.807   2.813   8.323 -0.0260  0.1321 -1.7242
  169SOPE  C31519135   5.626   2.844   8.447 -0.3399 -0.3276  0.0192
  169SOPE  H15X19136   5.612   2.948   8.411  1.4963 -0.9531 -2.6848
  169SOPE  H15Y19137   5.691   2.842   8.536  0.1494  1.5234 -0.2721
  169SOPE  C31619138   5.484   2.788   8.474  0.0383  0.1084 -0.2502
  169SOPE  H16X19139   5.430   2.878   8.510 -0.3312 -0.5775  0.9233
  169SOPE  H16Y19140   5.476   2.717   8.559  3.1551 -1.0506 -0.8822
  169SOPE  C31719141   5.394   2.736   8.357  0.8608 -0.6516 -0.1386
  169SOPE  H17X19142   5.300   2.692   8.395  1.1080 -2.5357 -1.6186
  169SOPE  H17Y19143   5.449   2.655   8.305  0.3834 -0.8794 -0.2869
  169SOPE  C31819144   5.361   2.853   8.255  0.0059  0.5081  0.4237
  169SOPE  H18X19145   5.456   2.892   8.213  0.2793  0.6240  1.1424
  169SOPE  H18Y19146   5.310   2.938   8.305 -1.1311 -0.3094  0.6846
  169SOPE  H18Z19147   5.290   2.816   8.178  0.6485 -0.7126  0.3884
  170SOPE     N19148   0.492   6.806   6.341  0.0675 -0.1412 -0.2117
  170SOPE   HN119149   0.594   6.800   6.361 -0.1287  2.2161  1.8165
  170SOPE   HN219150   0.453   6.710   6.347  0.0257 -0.0118  1.7936
  170SOPE   HN319151   0.482   6.850   6.247  1.0747 -0.5424 -0.5093
  170SOPE   C1219152   0.424   6.876   6.454  0.7238 -0.5814 -0.1450
  170SOPE  H12A19153   0.457   6.982   6.444 -1.4773  0.1492  0.0190
  170SOPE  H12B19154   0.457   6.828   6.549  2.0257  2.4564  1.0083
  170SOPE   C1119155   0.282   6.906   6.415 -0.4897  0.0220  0.2447
  170SOPE  H11A19156   0.207   6.824   6.418 -0.4371 -0.1651 -2.1177
  170SOPE  H11B19157   0.281   6.943   6.310 -0.9330 -0.6547  0.0059
  170SOPE     P19158   0.238   7.151   6.484 -0.9182 -0.1558  0.2003
  170SOPE   O1319159   0.200   7.182   6.342  0.0370  0.1676 -0.2685
  170SOPE   O1419160   0.374   7.200   6.528  0.7047 -0.2263  0.1772
  170SOPE   O1219161   0.234   7.000   6.505  0.6538  0.2071  0.4071
  170SOPE   O1119162   0.127   7.206   6.578 -0.2607 -0.3582  0.2184
  170SOPE    C119163  -0.002   7.152   6.589 -0.4288 -0.7756  0.5323
  170SOPE    HA19164  -0.025   7.076   6.511 -0.6084 -1.5611  1.3319
  170SOPE    HB19165  -0.073   7.237   6.577  0.4287 -0.0998  0.2112
  170SOPE    C219166  -0.033   7.077   6.721 -1.0429 -0.3618  0.2359
  170SOPE    HS19167  -0.064   7.160   6.788  1.7941 -0.1480  1.3425
  170SOPE   O2119168   0.080   7.010   6.766 -1.4985 -0.1800 -0.2032
  170SOPE   C2119169   0.155   7.078   6.855  0.3033  0.4005  0.0677
  170SOPE   O2219170   0.116   7.172   6.921 -0.2387  0.0942 -0.8399
  170SOPE   C2219171   0.291   6.998   6.866  0.8550  0.3909  0.5869
  170SOPE   H2R19172   0.369   7.066   6.825 -1.3642  2.0679 -0.9668
  170SOPE   H2S19173   0.298   6.921   6.787 -1.4465  2.0718 -1.3140
  170SOPE    C319174  -0.152   6.981   6.707 -0.3313  0.0829  0.7268
  170SOPE    HX19175  -0.119   6.893   6.648 -1.1068  0.2233  0.0820
  170SOPE    HY19176  -0.230   7.026   6.642  0.1082 -2.8704 -1.9180
  170SOPE   O3119177  -0.209   6.943   6.832 -0.0227  0.0366  0.6507
  170SOPE   C3119178  -0.144   6.850   6.900 -0.0288 -0.7518 -0.1345
  170SOPE   O3219179  -0.044   6.790   6.869  0.8002 -0.4584  0.4946
  170SOPE   C3219180  -0.205   6.838   7.031  0.4519 -0.3495 -0.3002
  170SOPE   H2X19181  -0.233   6.732   7.047  0.9555 -0.7229 -1.8662
  170SOPE   H2Y19182  -0.293   6.907   7.035  0.2901 -0.5057 -1.1989
  170SOPE   C2319183   0.317   6.932   7.002 -0.0589 -0.1548  0.0122
  170SOPE   H3R19184   0.250   6.846   7.022  0.9595 -0.4389  2.3935
  170SOPE   H3S19185   0.304   7.015   7.074 -1.7984  0.4829 -1.0143
  170SOPE   C2419186   0.460   6.878   7.020  0.2381 -0.0883  0.1183
  170SOPE   H4R19187   0.470   6.792   6.951  0.5486 -0.2118  0.3166
  170SOPE   H4S19188   0.526   6.957   6.978 -0.2574 -0.1796 -0.8379
  170SOPE   C2519189   0.492   6.843   7.162  0.1175  0.6690 -0.6180
  170SOPE   H5R19190   0.595   6.801   7.155 -0.4016 -0.2984 -3.3732
  170SOPE   H5S19191   0.505   6.931   7.227  1.8902 -0.3895  0.5031
  170SOPE   C2619192   0.402   6.747   7.249 -0.0007  0.2158 -0.5898
  170SOPE   H6R19193   0.296   6.779   7.256 -0.0691 -0.1959  0.2521
  170SOPE   H6S19194   0.388   6.650   7.197 -0.8380 -0.3400  0.6688
  170SOPE   C2719195   0.463   6.724   7.391  0.0438  0.2238 -0.1156
  170SOPE   H7R19196   0.556   6.671   7.363  0.3704  1.1464 -0.7938
  170SOPE   H7S19197   0.501   6.822   7.425  0.7993 -0.9223  2.4307
  170SOPE   C2819198   0.371   6.656   7.494  0.7336 -1.0707 -0.4132
  170SOPE   H8R19199   0.279   6.718   7.495 -0.7412 -3.2248 -0.1039
  170SOPE   H8S19200   0.333   6.558   7.459 -0.9784 -0.0404 -1.4619
  170SOPE   C2919201   0.442   6.657   7.629 -0.1331 -0.1741  0.4072
  170SOPE   H9119202   0.519   6.580   7.641  1.2307  1.5815  3.4485
  170SOPE  C21019203   0.412   6.748   7.724  0.2048  0.5285 -0.8246
  170SOPE  H10119204   0.465   6.742   7.820  0.8204  0.1109 -1.1898
  170SOPE  C21119205   0.311   6.859   7.717  0.3151  0.3169 -0.4626
  170SOPE  H11R19206   0.268   6.877   7.616  0.2384  1.4589 -0.2364
  170SOPE  H11S19207   0.349   6.960   7.742 -0.3477  0.5577 -0.4081
  170SOPE  C21219208   0.194   6.822   7.810 -0.7816 -0.4250 -0.1452
  170SOPE  H12R19209   0.154   6.722   7.781  2.5489 -1.8301 -0.1700
  170SOPE  H12S19210   0.120   6.904   7.803 -1.9205 -1.2591  1.8675
  170SOPE  C21319211   0.229   6.821   7.966 -0.1259  0.1308 -0.8507
  170SOPE  H13R19212   0.284   6.915   7.986  0.0452  0.1443 -1.3690
  170SOPE  H13S19213   0.285   6.728   7.988  0.2810 -0.3246 -3.5855
  170SOPE  C21419214   0.106   6.826   8.052  0.7561 -0.3546  0.3594
  170SOPE  H14R19215   0.038   6.739   8.037  3.0621 -2.4879  1.8145
  170SOPE  H14S19216   0.055   6.923   8.033  2.6304  0.9215  1.7181
  170SOPE  C21519217   0.135   6.826   8.213  0.1678  0.3566 -0.4874
  170SOPE  H15R19218   0.205   6.908   8.241  0.9044 -0.5143  0.2511
  170SOPE  H15S19219   0.192   6.734   8.239 -0.0798 -0.5477 -3.0250
  170SOPE  C21619220   0.009   6.842   8.294  0.1226  0.5725 -0.5157
  170SOPE  H16R19221  -0.044   6.745   8.305  1.8325 -0.2438  0.7674
  170SOPE  H16S19222  -0.051   6.916   8.237 -3.2800 -2.0683 -0.5114
  170SOPE  C21719223   0.030   6.907   8.433 -0.0576  0.3096  0.8709
  170SOPE  H17R19224   0.067   7.009   8.409  2.1609 -0.0867  2.4265
  170SOPE  H17S19225   0.112   6.850   8.482  1.3819  0.0949 -1.6568
  170SOPE  C21819226  -0.095   6.915   8.524  0.2076  0.3885  0.4311
  170SOPE  H18R19227  -0.184   6.947   8.467  0.3314  0.8643  0.5020
  170SOPE  H18S19228  -0.087   6.999   8.597 -1.0642  0.2004  0.8010
  170SOPE  H18T19229  -0.115   6.817   8.573 -0.7466  0.1241 -0.4713
  170SOPE   C3319230  -0.108   6.884   7.139 -0.0923 -0.0127 -0.9147
  170SOPE   H3X19231  -0.111   6.995   7.134 -3.3490  0.0255  0.7894
  170SOPE   H3Y19232  -0.007   6.847   7.111  0.7472  0.5838  1.1663
  170SOPE   C3419233  -0.134   6.843   7.289 -0.5133  0.1268  1.1916
  170SOPE   H4X19234  -0.040   6.871   7.340  0.7648  0.4927 -1.2972
  170SOPE   H4Y19235  -0.157   6.736   7.303 -2.5695  0.5526  1.3486
  170SOPE   C3519236  -0.258   6.910   7.363  0.2870 -0.6980  0.1023
  170SOPE   H5X19237  -0.341   6.866   7.303 -0.3303 -2.6142  2.2867
  170SOPE   H5Y19238  -0.243   7.018   7.345 -2.4081 -0.3605 -0.2301
  170SOPE   C3619239  -0.266   6.873   7.511 -0.3029 -0.3330  0.2670
  170SOPE   H6X19240  -0.280   6.764   7.525  0.6251 -0.4008  0.7121
  170SOPE   H6Y19241  -0.361   6.920   7.546 -0.5810 -1.0102  0.4312
  170SOPE   C3719242  -0.158   6.940   7.601  0.6516 -0.5372  0.4600
  170SOPE   H7X19243  -0.150   7.050   7.608  0.5941 -0.5544  0.7995
  170SOPE   H7Y19244  -0.059   6.910   7.561  0.9747  0.7893  0.2489
  170SOPE   C3819245  -0.181   6.875   7.734 -0.3507 -0.7441  0.4705
  170SOPE   H8X19246  -0.084   6.868   7.787 -0.2069  0.4543  0.3640
  170SOPE   H8Y19247  -0.218   6.772   7.713  1.7550 -1.3818 -0.2301
  170SOPE   C3919248  -0.278   6.957   7.815  0.1815 -0.3867 -0.3172
  170SOPE   H9X19249  -0.377   6.950   7.765 -0.2235 -1.9269  0.6645
  170SOPE   H9Y19250  -0.257   7.066   7.812 -0.1394 -0.3580 -1.9335
  170SOPE  C31019251  -0.295   6.909   7.961 -0.3689 -0.4725  0.3852
  170SOPE  H10X19252  -0.384   6.960   8.004 -1.7920 -0.8505 -2.0015
  170SOPE  H10Y19253  -0.209   6.941   8.023  0.2765 -0.6405 -0.4224
  170SOPE  C31119254  -0.299   6.758   7.979  0.0262 -0.3611 -0.1441
  170SOPE  H11X19255  -0.200   6.717   7.954  0.6278  0.5467  0.6998
  170SOPE  H11Y19256  -0.362   6.725   7.894 -0.9639  0.6139  0.1953
  170SOPE  C31219257  -0.349   6.703   8.120  0.2503 -0.7481  0.0445
  170SOPE  H12X19258  -0.295   6.760   8.198  0.4324  0.8197 -1.2080
  170SOPE  H12Y19259  -0.318   6.597   8.133  0.7141 -0.5512  0.5716
  170SOPE  C31319260  -0.499   6.712   8.147 -0.1706 -0.0441  0.3200
  170SOPE  H13X19261  -0.552   6.636   8.086 -1.5589  0.7201  0.5599
  170SOPE  H13Y19262  -0.546   6.810   8.122  0.6933  0.0055 -1.2052
  170SOPE  C31419263  -0.542   6.681   8.295 -0.0290  0.5191 -0.0458
  170SOPE  H14X19264  -0.545   6.570   8.300 -2.5675  0.6162  1.5085
  170SOPE  H14Y19265  -0.649   6.707   8.310  0.0391  0.1267  1.2322
  170SOPE  C31519266  -0.468   6.744   8.422  0.4755  0.6443 -0.3547
  170SOPE  H15X19267  -0.474   6.854   8.407 -0.6974  0.5412 -0.7150
  170SOPE  H15Y19268  -0.363   6.713   8.407  0.1631 -1.2540  1.2411
  170SOPE  C31619269  -0.526   6.695   8.551 -0.6536 -0.2500 -0.3888
  170SOPE  H16X19270  -0.502   6.589   8.575 -1.4111 -0.3951 -0.2606
  170SOPE  H16Y19271  -0.635   6.710   8.564 -0.2200  1.3415  1.8175
  170SOPE  C31719272  -0.463   6.764   8.673 -0.3519 -0.1288  0.3741
  170SOPE  H17X19273  -0.495   6.870   8.672  0.4919  0.1356  0.6570
  170SOPE  H17Y19274  -0.353   6.763   8.686  0.0314 -0.2469 -2.4442
  170SOPE  C31819275  -0.501   6.702   8.808  0.2979 -0.3148  0.1927
  170SOPE  H18X19276  -0.465   6.599   8.831 -0.9674 -1.2529 -1.9048
  170SOPE  H18Y19277  -0.608   6.710   8.836  0.5030  0.3011  0.8055
  170SOPE  H18Z19278  -0.467   6.751   8.901  0.2420  0.1603 -0.0401
  171SOPE     N19279   6.287   3.933   6.454  0.0230  0.6394 -0.4116
  171SOPE   HN119280   6.219   3.854   6.463 -1.0475  1.4648 -1.1732
  171SOPE   HN219281   6.379   3.889   6.473 -0.4657 -0.2287  0.0220
  171SOPE   HN319282   6.260   3.999   6.530  0.6448  0.5206 -0.0826
  171SOPE   C1219283   6.280   3.989   6.321  1.6425  0.2807 -0.3331
  171SOPE  H12A19284   6.198   4.063   6.315  0.2989 -1.2212 -0.8735
  171SOPE  H12B19285   6.262   3.900   6.257  0.5610  1.5097 -1.7820
  171SOPE   C1119286   6.415   4.056   6.296 -0.4430 -0.5491 -1.1353
  171SOPE  H11A19287   6.434   4.130   6.377 -1.6062  0.7898 -2.0634
  171SOPE  H11B19288   6.416   4.112   6.201  0.8416 -0.3945 -1.0389
  171SOPE     P19289   6.684   4.004   6.285  0.0058  0.0733  0.4168
  171SOPE   O1319290   6.691   4.125   6.197 -0.0703 -0.4438 -0.7015
  171SOPE   O1419291   6.761   3.887   6.242  0.3555  0.1044  0.3922
  171SOPE   O1219292   6.526   3.956   6.294  0.4193  0.3727  0.5786
  171SOPE   O1119293   6.719   4.045   6.433 -0.5962 -0.2903  0.3643
  171SOPE    C119294   6.658   3.962   6.536  0.6599 -0.0186 -0.7283
  171SOPE    HA19295   6.630   3.861   6.501  2.3757 -1.1004  0.9123
  171SOPE    HB19296   6.570   4.013   6.579  0.6401 -0.4813 -0.2164
  171SOPE    C219297   6.756   3.935   6.648 -0.6854 -0.3385 -0.0398
  171SOPE    HS19298   6.692   3.881   6.721 -0.4147 -0.6868 -0.0574
  171SOPE   O2119299   6.808   4.057   6.706 -0.1057 -0.0583  0.4290
  171SOPE   C2119300   6.861   4.047   6.829 -0.9377  0.5136  0.1170
  171SOPE   O2219301   6.847   3.952   6.906 -0.1363 -0.5670  0.3318
  171SOPE   C2219302   6.922   4.187   6.872 -0.4944  0.1219  0.4331
  171SOPE   H2R19303   6.842   4.234   6.933 -1.6846  0.6717 -1.5026
  171SOPE   H2S19304   6.934   4.251   6.781 -0.0961 -0.5964 -0.0262
  171SOPE    C319305   6.876   3.853   6.592  0.1757  0.0274  0.3302
  171SOPE    HX19306   6.926   3.917   6.515  1.8921 -2.9336 -1.1030
  171SOPE    HY19307   6.819   3.775   6.538  1.5976 -0.2745 -0.7903
  171SOPE   O3119308   6.973   3.798   6.691  0.1672  0.0029  0.6324
  171SOPE   C3119309   7.002   3.674   6.676 -0.4986 -0.1965  0.0827
  171SOPE   O3219310   6.947   3.603   6.594  0.3926  0.2565 -0.0915
  171SOPE   C3219311   7.092   3.626   6.789 -0.1745 -0.3359  1.1915
  171SOPE   H2X19312   7.035   3.645   6.883 -0.6576 -1.2538  1.0844
  171SOPE   H2Y19313   7.181   3.693   6.791  0.9148 -1.7804  2.2788
  171SOPE   C2319314   7.057   4.172   6.946 -0.4882 -0.2462  0.0157
  171SOPE   H3R19315   7.030   4.094   7.021  0.1882  0.0138  0.5313
  171SOPE   H3S19316   7.069   4.272   6.992  0.5824 -0.4929  0.2784
  171SOPE   C2419317   7.181   4.127   6.870  0.8381 -0.2175  0.4321
  171SOPE   H4R19318   7.143   4.048   6.801  0.9662 -0.2387  0.3862
  171SOPE   H4S19319   7.222   4.205   6.803  0.6510 -0.1302  0.4205
  171SOPE   C2519320   7.293   4.079   6.961 -0.6227 -0.0512  0.4191
  171SOPE   H5R19321   7.381   4.047   6.902 -1.2386 -0.5126 -0.2617
  171SOPE   H5S19322   7.325   4.167   7.020  0.2887  0.5312 -0.9136
  171SOPE   C2619323   7.251   3.962   7.045  0.2612  0.7355  0.1944
  171SOPE   H6R19324   7.179   3.988   7.125  0.9409 -2.1557  1.8277
  171SOPE   H6S19325   7.205   3.887   6.977  1.2597  0.7871 -0.5606
  171SOPE   C2719326   7.363   3.893   7.111  0.1762  0.1270 -0.0987
  171SOPE   H7R19327   7.405   3.821   7.038  1.5826  0.1412  0.6814
  171SOPE   H7S19328   7.443   3.960   7.148  0.7286 -0.1329 -0.8043
  171SOPE   C2819329   7.314   3.800   7.220 -0.1614  0.0623  0.3310
  171SOPE   H8R19330   7.228   3.740   7.183 -1.7601  2.2015  0.4372
  171SOPE   H8S19331   7.402   3.732   7.225  0.9120  1.3633 -0.6391
  171SOPE   C2919332   7.280   3.876   7.352 -0.0922 -0.1078 -0.4399
  171SOPE   H9119333   7.368   3.899   7.414 -0.0735  0.4437 -0.6666
  171SOPE  C21019334   7.161   3.915   7.400  0.0682  0.3001 -1.0723
  171SOPE  H10119335   7.144   3.958   7.500  0.0583  0.0199 -0.9529
  171SOPE  C21119336   7.027   3.901   7.329 -0.2796  0.3250 -0.2307
  171SOPE  H11R19337   6.975   3.817   7.380  2.4134  0.4191  2.9083
  171SOPE  H11S19338   7.043   3.862   7.227  0.3895  0.6919 -0.2707
  171SOPE  C21219339   6.937   4.024   7.325  1.0086 -0.5674 -0.3198
  171SOPE  H12R19340   6.850   3.994   7.263  0.3630  0.2427  0.1978
  171SOPE  H12S19341   6.991   4.108   7.277 -0.4966  0.3805 -0.3656
  171SOPE  C21319342   6.894   4.077   7.469 -0.2004 -0.0734  0.3053
  171SOPE  H13R19343   6.912   4.186   7.452 -0.6712 -0.2762 -1.6748
  171SOPE  H13S19344   6.962   4.042   7.549  0.9565  2.0880  0.3097
  171SOPE  C21419345   6.756   4.038   7.510  0.7775  0.4808 -0.1383
  171SOPE  H14R19346   6.758   3.927   7.500 -3.2117  0.3671 -0.5133
  171SOPE  H14S19347   6.682   4.080   7.439 -0.7686 -1.5515  0.2033
  171SOPE  C21519348   6.724   4.071   7.650  0.5666 -0.5139  0.4140
  171SOPE  H15R19349   6.753   4.177   7.667 -1.6216  0.3066 -0.7039
  171SOPE  H15S19350   6.797   4.017   7.713  0.1124  0.0211  1.4142
  171SOPE  C21619351   6.573   4.044   7.698  0.0539 -0.4873 -0.2024
  171SOPE  H16R19352   6.540   3.938   7.693  0.1910 -0.4462 -2.5632
  171SOPE  H16S19353   6.505   4.089   7.623  2.4089  1.3484 -1.2753
  171SOPE  C21719354   6.544   4.101   7.836  0.2053  0.2343 -0.0096
  171SOPE  H17R19355   6.434   4.107   7.851  0.1302  1.6747 -0.9574
  171SOPE  H17S19356   6.573   4.208   7.839 -0.8556  0.5140  0.5244
  171SOPE  C21819357   6.602   4.010   7.949  0.0003 -0.1546 -0.1309
  171SOPE  H18R19358   6.561   3.907   7.954  1.6626 -0.7840  0.9358
  171SOPE  H18S19359   6.578   4.040   8.053  2.0792  0.3671  0.2210
  171SOPE  H18T19360   6.713   4.008   7.943  0.0893 -0.4670  1.4856
  171SOPE   C3319361   7.138   3.476   6.786  0.5288  0.0158 -0.0530
  171SOPE   H3X19362   7.163   3.459   6.680 -1.0438 -0.4400 -0.3703
  171SOPE   H3Y19363   7.049   3.410   6.797  1.7923 -1.8638 -1.0027
  171SOPE   C3419364   7.253   3.443   6.880 -0.4123 -0.1100 -0.0409
  171SOPE   H4X19365   7.340   3.496   6.835 -1.7563  0.6038 -1.8921
  171SOPE   H4Y19366   7.280   3.335   6.882 -1.2083 -0.2878  1.0172
  171SOPE   C3519367   7.247   3.496   7.024  0.0171  0.3148 -0.0944
  171SOPE   H5X19368   7.178   3.582   7.031 -1.4092 -0.4097 -3.8756
  171SOPE   H5Y19369   7.342   3.548   7.049 -0.5474  0.2959  2.2204
  171SOPE   C3619370   7.223   3.384   7.119 -0.1699  0.5266 -0.3241
  171SOPE   H6X19371   7.283   3.293   7.099 -1.6673 -0.9808  1.7572
  171SOPE   H6Y19372   7.120   3.343   7.125 -0.3921  0.7770 -2.2445
  171SOPE   C3719373   7.253   3.426   7.268  0.0539  0.2333  0.4126
  171SOPE   H7X19374   7.184   3.506   7.303  1.3232  0.3559  2.6810
  171SOPE   H7Y19375   7.358   3.459   7.281  0.2197 -0.4385  0.7995
  171SOPE   C3819376   7.251   3.310   7.365  0.2070  0.5110  0.1924
  171SOPE   H8X19377   7.312   3.224   7.331  1.3547  1.1024  0.7311
  171SOPE   H8Y19378   7.147   3.275   7.345  0.5051 -1.9402  2.7014
  171SOPE   C3919379   7.265   3.341   7.513 -0.1722  0.1162  0.4249
  171SOPE   H9X19380   7.186   3.418   7.529 -0.2646  0.1936 -0.3859
  171SOPE   H9Y19381   7.362   3.391   7.533  1.0792 -1.9411 -0.3374
  171SOPE  C31019382   7.254   3.219   7.609 -0.1826  0.1572 -0.1539
  171SOPE  H10X19383   7.317   3.139   7.564 -0.7312 -1.0115  1.1002
  171SOPE  H10Y19384   7.152   3.174   7.609 -0.2660  0.2712  3.1075
  171SOPE  C31119385   7.280   3.256   7.756 -0.1712 -0.3306 -0.5059
  171SOPE  H11X19386   7.202   3.332   7.776 -0.8980 -1.2952  0.4165
  171SOPE  H11Y19387   7.385   3.284   7.779 -0.4129 -1.9344  2.8781
  171SOPE  C31219388   7.241   3.150   7.862 -0.1153 -1.1943  0.6974
  171SOPE  H12X19389   7.291   3.051   7.854  2.5014  0.0230  1.2735
  171SOPE  H12Y19390   7.131   3.142   7.853 -0.2803  0.3332  1.2251
  171SOPE  C31319391   7.275   3.200   8.006 -0.1620 -0.1465  0.6178
  171SOPE  H13X19392   7.384   3.204   8.026 -0.0076  0.0598 -0.2382
  171SOPE  H13Y19393   7.220   3.125   8.068  1.0432  0.1084  2.0172
  171SOPE  C31419394   7.226   3.339   8.036  0.7706 -0.3931 -0.6231
  171SOPE  H14X19395   7.136   3.363   7.975 -0.1780  2.1540  1.7096
  171SOPE  H14Y19396   7.311   3.409   8.018 -0.9432  1.6590 -0.8547
  171SOPE  C31519397   7.166   3.349   8.177  0.2602 -0.0486  0.8328
  171SOPE  H15X19398   7.241   3.304   8.245 -0.6851 -0.5439  1.5496
  171SOPE  H15Y19399   7.073   3.289   8.170  0.5190 -0.1504 -2.4968
  171SOPE  C31619400   7.132   3.500   8.218 -0.8933  0.1220  0.4573
  171SOPE  H16X19401   7.046   3.536   8.157 -0.8028  0.7469  0.6983
  171SOPE  H16Y19402   7.216   3.572   8.209 -0.7228 -0.2521 -1.0957
  171SOPE  C31719403   7.078   3.503   8.363 -1.3707 -0.5278  0.1820
  171SOPE  H17X19404   7.154   3.462   8.433 -3.1418 -1.2486  1.7390
  171SOPE  H17Y19405   6.996   3.428   8.372 -1.3068 -0.7100 -0.7595
  171SOPE  C31819406   7.027   3.640   8.409 -0.7125  0.4528  0.2676
  171SOPE  H18X19407   6.932   3.677   8.364 -1.8424  0.8384  2.8410
  171SOPE  H18Y19408   7.103   3.720   8.393  0.9950 -1.1059  0.4360
  171SOPE  H18Z19409   7.007   3.641   8.518  0.3431  2.7506  0.4772
  172SOPE     N19410   1.306   5.853   6.514 -0.2489  0.6354  0.0855
  172SOPE   HN119411   1.386   5.873   6.578  0.3012 -1.0792 -0.0334
  172SOPE   HN219412   1.252   5.941   6.504 -2.7726 -0.7207  1.1092
  172SOPE   HN319413   1.229   5.796   6.556  0.4576  0.9966  1.9331
  172SOPE   C1219414   1.344   5.785   6.388 -0.1423  1.1067  0.8034
  172SOPE  H12A19415   1.363   5.864   6.313  4.9244  0.5793  1.3364
  172SOPE  H12B19416   1.259   5.720   6.357 -0.2288  1.8063 -0.4569
  172SOPE   C1119417   1.468   5.698   6.402 -0.0407 -0.0653  0.2597
  172SOPE  H11A19418   1.553   5.769   6.413  0.5996 -0.9615  1.1953
  172SOPE  H11B19419   1.503   5.638   6.315  0.8935  0.4207  0.2852
  172SOPE     P19420   1.520   5.486   6.538 -0.3862  0.0545  0.0015
  172SOPE   O1319421   1.660   5.478   6.486  0.0932 -0.8383 -0.0268
  172SOPE   O1419422   1.431   5.389   6.473 -0.2705  0.1220  0.0008
  172SOPE   O1219423   1.462   5.626   6.522  0.2557 -0.0664 -0.6230
  172SOPE   O1119424   1.519   5.457   6.695 -0.8626 -0.3279 -0.0504
  172SOPE    C119425   1.548   5.562   6.779 -0.4724  0.6490 -0.2828
  172SOPE    HA19426   1.571   5.660   6.732  0.5383  0.4964 -0.1265
  172SOPE    HB19427   1.632   5.530   6.844 -0.6169 -0.4040 -0.6048
  172SOPE    C219428   1.447   5.593   6.893  0.1391  0.5515 -0.5888
  172SOPE    HS19429   1.500   5.658   6.966  0.8532  0.1406 -0.7362
  172SOPE   O2119430   1.412   5.467   6.966 -0.4477  0.0474 -0.3801
  172SOPE   C2119431   1.331   5.376   6.912  0.4448  0.0330  0.8171
  172SOPE   O2219432   1.271   5.387   6.807  0.1310  0.2392 -0.1142
  172SOPE   C2219433   1.307   5.250   7.002 -0.4513  0.2793 -0.7113
  172SOPE   H2R19434   1.387   5.180   6.968 -1.1446 -1.6882  1.5561
  172SOPE   H2S19435   1.208   5.206   6.980 -0.1865 -1.6949  1.7584
  172SOPE    C319436   1.321   5.666   6.847  0.0019 -0.0602  0.3517
  172SOPE    HX19437   1.269   5.615   6.763  1.3091 -1.6489  0.4808
  172SOPE    HY19438   1.354   5.765   6.808  0.7544  0.1486  1.4792
  172SOPE   O3119439   1.222   5.681   6.952  0.8645  0.0978 -0.0725
  172SOPE   C3119440   1.243   5.776   7.042 -0.6183 -0.4049 -1.4463
  172SOPE   O3219441   1.341   5.854   7.039  0.6209  0.4318 -0.0114
  172SOPE   C3219442   1.125   5.797   7.138 -0.5160  0.2176  0.3631
  172SOPE   H2X19443   1.041   5.830   7.073  1.1875 -1.2771 -2.6851
  172SOPE   H2Y19444   1.145   5.882   7.207  0.8850 -0.2445  0.5545
  172SOPE   C2319445   1.339   5.279   7.153  0.5858 -0.2061 -0.0737
  172SOPE   H3R19446   1.244   5.322   7.191  0.6104 -0.6814  0.5353
  172SOPE   H3S19447   1.426   5.347   7.164  0.0262  0.5027  0.0281
  172SOPE   C2419448   1.352   5.153   7.234 -0.5241  0.1437  0.3056
  172SOPE   H4R19449   1.262   5.090   7.216  1.2249 -2.0890 -0.9551
  172SOPE   H4S19450   1.446   5.100   7.208 -1.0245 -0.7499  0.3083
  172SOPE   C2519451   1.351   5.199   7.382  0.0080  0.1498 -0.0660
  172SOPE   H5R19452   1.454   5.232   7.406 -0.5797  0.8533  1.5586
  172SOPE   H5S19453   1.279   5.284   7.390 -1.2235 -0.7642 -1.2084
  172SOPE   C2619454   1.291   5.085   7.478  0.3150 -0.1464 -0.5185
  172SOPE   H6R19455   1.188   5.060   7.446 -1.3137  3.0278  2.0013
  172SOPE   H6S19456   1.351   4.991   7.476  0.1933 -0.2138 -0.9142
  172SOPE   C2719457   1.278   5.141   7.621  0.0357 -0.8720  0.0910
  172SOPE   H7R19458   1.368   5.197   7.652 -0.0193 -0.4936 -0.4213
  172SOPE   H7S19459   1.191   5.210   7.618  0.2336 -0.5994  0.6507
  172SOPE   C2819460   1.250   5.038   7.722  0.1923  0.5273  0.3864
  172SOPE   H8R19461   1.165   4.974   7.691  0.4275  0.0668  0.6840
  172SOPE   H8S19462   1.343   4.979   7.736  0.7442  1.6421  1.5711
  172SOPE   C2919463   1.213   5.103   7.851 -0.4607  0.7897 -0.5112
  172SOPE   H9119464   1.112   5.147   7.857 -1.3682 -0.9762 -2.2115
  172SOPE  C21019465   1.285   5.111   7.964 -0.5642 -0.1055 -0.0444
  172SOPE  H10119466   1.257   5.183   8.043  1.8665  0.2016  0.6033
  172SOPE  C21119467   1.429   5.053   7.979 -0.0064  0.0703  0.1438
  172SOPE  H11R19468   1.499   5.136   7.957  2.3778 -1.5738  1.3925
  172SOPE  H11S19469   1.448   4.972   7.905  0.4712 -0.0856  0.4387
  172SOPE  C21219470   1.460   4.990   8.117  0.0522  0.3332  0.0713
  172SOPE  H12R19471   1.482   5.076   8.183  0.2086 -0.5075  1.1148
  172SOPE  H12S19472   1.556   4.934   8.111 -0.3187 -0.4514  1.2716
  172SOPE  C21319473   1.359   4.894   8.172  0.1361  0.7363 -0.6914
  172SOPE  H13R19474   1.339   4.811   8.102  0.5815 -1.0798  1.2590
  172SOPE  H13S19475   1.265   4.950   8.192  0.7892  0.6196  3.2004
  172SOPE  C21419476   1.388   4.833   8.310 -0.1788 -0.2922  0.4168
  172SOPE  H14R19477   1.409   4.917   8.380  2.0630  1.7112 -2.5384
  172SOPE  H14S19478   1.479   4.769   8.306 -0.2346 -0.3159 -0.6036
  172SOPE  C21519479   1.268   4.761   8.364 -0.5007 -0.2832 -0.2563
  172SOPE  H15R19480   1.234   4.692   8.284  0.1330 -0.8261 -0.0660
  172SOPE  H15S19481   1.187   4.836   8.372  0.3826  0.8057 -1.3294
  172SOPE  C21619482   1.309   4.677   8.490 -0.2462  0.1313 -0.3052
  172SOPE  H16R19483   1.361   4.585   8.457  0.4944 -0.5221  2.5782
  172SOPE  H16S19484   1.216   4.658   8.547  0.4048  1.3596  1.2030
  172SOPE  C21719485   1.396   4.759   8.583 -0.3580 -1.0585 -0.4013
  172SOPE  H17R19486   1.346   4.851   8.618  0.7036 -0.6600  0.0883
  172SOPE  H17S19487   1.489   4.780   8.526 -1.4048  1.6077 -1.1773
  172SOPE  C21819488   1.433   4.686   8.717 -0.4127 -0.5647 -0.8987
  172SOPE  H18R19489   1.467   4.580   8.706  3.3378  0.2823  1.4224
  172SOPE  H18S19490   1.341   4.683   8.778  0.9060 -1.0181  1.1396
  172SOPE  H18T19491   1.514   4.744   8.767 -1.4660 -0.3911  0.6147
  172SOPE   C3319492   1.083   5.670   7.223  0.4780  0.0624 -0.2794
  172SOPE   H3X19493   1.096   5.580   7.160 -1.4541  0.6601 -1.5899
  172SOPE   H3Y19494   0.974   5.679   7.244  0.3502  1.7545 -1.5693
  172SOPE   C3419495   1.175   5.644   7.348  0.2173  0.4448 -0.2758
  172SOPE   H4X19496   1.202   5.741   7.395  1.1363 -1.5953  3.6176
  172SOPE   H4Y19497   1.263   5.581   7.327  0.6267  1.2339 -0.9624
  172SOPE   C3519498   1.092   5.574   7.458  0.7495  0.4871 -0.8710
  172SOPE   H5X19499   1.047   5.481   7.416 -1.7497  0.5892  1.4605
  172SOPE   H5Y19500   1.018   5.643   7.504  0.8178 -1.1212  1.7392
  172SOPE   C3619501   1.176   5.530   7.584  0.5682 -0.4442 -0.1867
  172SOPE   H6X19502   1.258   5.606   7.590  0.6667 -0.5280 -0.4763
  172SOPE   H6Y19503   1.227   5.433   7.568  0.0765 -1.0885  1.9527
  172SOPE   C3719504   1.085   5.517   7.709 -0.3043 -0.0188  0.3253
  172SOPE   H7X19505   1.001   5.450   7.683 -0.2342 -0.3548  0.9577
  172SOPE   H7Y19506   1.045   5.616   7.738 -0.4843  0.9938 -3.2198
  172SOPE   C3819507   1.155   5.466   7.833 -0.0591 -0.1815  1.3547
  172SOPE   H8X19508   1.251   5.515   7.858 -0.0147  0.0598  0.7324
  172SOPE   H8Y19509   1.191   5.364   7.806 -0.6659  0.0312 -0.3075
  172SOPE   C3919510   1.064   5.446   7.950  0.4913  0.5620  0.0569
  172SOPE   H9X19511   1.101   5.372   8.024  0.4713  0.7922  0.3003
  172SOPE   H9Y19512   0.966   5.407   7.916  0.4816  1.2018 -0.6709
  172SOPE  C31019513   1.046   5.572   8.037  0.1465 -0.1538 -0.4428
  172SOPE  H10X19514   0.972   5.639   7.989  1.2731 -0.1244 -2.1684
  172SOPE  H10Y19515   1.142   5.626   8.053 -0.1181 -0.0948  1.0550
  172SOPE  C31119516   0.990   5.532   8.171 -0.1899 -0.6817  0.4597
  172SOPE  H11X19517   1.051   5.446   8.208  1.4659 -1.1936 -3.2263
  172SOPE  H11Y19518   0.891   5.487   8.153 -0.0136 -0.4937 -1.0382
  172SOPE  C31219519   0.981   5.624   8.290 -0.4810 -0.0050 -0.1124
  172SOPE  H12X19520   0.916   5.708   8.255 -0.6859 -0.7865 -1.6752
  172SOPE  H12Y19521   1.075   5.678   8.313  0.4556 -1.3663 -0.7265
  172SOPE  C31319522   0.920   5.562   8.414 -0.0513  0.8466  0.2661
  172SOPE  H13X19523   0.828   5.506   8.387  0.9517 -0.1623 -1.1218
  172SOPE  H13Y19524   0.897   5.634   8.495 -0.1459 -0.1918  1.1759
  172SOPE  C31419525   1.017   5.455   8.472 -1.1152 -0.3994 -0.2571
  172SOPE  H14X19526   1.107   5.504   8.515 -2.9864  1.9806  1.1055
  172SOPE  H14Y19527   1.056   5.380   8.401  0.6559  0.0199  0.2584
  172SOPE  C31519528   0.945   5.382   8.591  0.2162 -0.4799 -0.2716
  172SOPE  H15X19529   0.849   5.343   8.550  0.6648 -0.0190 -1.7885
  172SOPE  H15Y19530   0.910   5.450   8.671  0.5874 -0.5032 -0.0926
  172SOPE  C31619531   1.024   5.266   8.650  0.4010 -0.3561  0.0641
  172SOPE  H16X19532   1.129   5.302   8.646 -0.1848  1.3488 -0.2706
  172SOPE  H16Y19533   1.013   5.180   8.580  1.5090  0.5659 -1.2585
  172SOPE  C31719534   0.986   5.234   8.794  0.7193  0.3050 -0.8054
  172SOPE  H17X19535   0.987   5.333   8.845  1.5473  0.5384 -1.2600
  172SOPE  H17Y19536   1.059   5.171   8.848 -0.3326  0.0065  0.2889
  172SOPE  C31819537   0.847   5.169   8.816 -0.2730 -0.2821 -0.9154
  172SOPE  H18X19538   0.769   5.230   8.767 -1.6530 -0.6035  0.8579
  172SOPE  H18Y19539   0.834   5.174   8.926  0.3490 -0.6777 -0.8205
  172SOPE  H18Z19540   0.842   5.063   8.782 -1.5230 -0.0630 -1.4199
  173SAPI   C1219541   3.190   1.899  10.939 -0.3547  0.1053 -0.4206
  173SAPI    H219542   3.160   1.864  10.838 -0.9029  0.4742 -0.3896
  173SAPI    O219543   3.081   1.949  11.011  0.7181 -0.0489 -0.3093
  173SAPI   HO219544   3.019   1.985  10.947  0.6619  0.2541 -0.0817
  173SAPI   C1319545   3.259   1.791  11.025  0.7116 -0.3664  0.6549
  173SAPI    H319546   3.353   1.775  10.968 -0.1869 -0.7579 -0.7603
  173SAPI    O319547   3.179   1.677  11.035 -0.0839 -0.3779 -0.9662
  173SAPI   HO319548   3.090   1.714  11.042 -0.1071 -0.8193  1.4393
  173SAPI   C1419549   3.297   1.849  11.154 -0.6506  0.3216  0.6573
  173SAPI    H419550   3.207   1.887  11.206 -0.5510  1.0953  0.2738
  173SAPI    O419551   3.360   1.753  11.242  1.0319  1.3091  0.6225
  173SAPI   HO419552   3.437   1.710  11.204  0.0996  0.6536 -0.5368
  173SAPI   C1519553   3.388   1.976  11.133 -0.2427  0.4802 -0.4528
  173SAPI    H519554   3.476   1.939  11.075  0.5361  0.4380  0.7274
  173SAPI    O519555   3.435   2.037  11.255  0.3505  0.6566 -0.2853
  173SAPI   HO519556   3.523   2.070  11.240  1.5664 -1.5852  1.5915
  173SAPI   C1619557   3.326   2.081  11.045 -0.2555  0.1634  0.1166
  173SAPI    H619558   3.240   2.129  11.097 -0.3813 -1.5047  1.5154
  173SAPI    O619559   3.420   2.182  11.003  0.5477  0.4127  0.6244
  173SAPI   HO619560   3.375   2.228  10.933  0.4850 -1.4950 -0.6312
  173SAPI   C1119561   3.281   2.012  10.917 -0.3394 -1.0241  0.3155
  173SAPI    H119562   3.369   1.973  10.863 -0.1689 -0.7076  0.3606
  173SAPI     P19563   3.243   2.147  10.686 -0.0320 -0.0851 -0.0043
  173SAPI   O1319564   3.386   2.176  10.662 -0.1307  0.2863  0.0830
  173SAPI   O1419565   3.154   2.254  10.639 -0.4050 -0.2965  0.5596
  173SAPI   O1219566   3.208   2.108  10.842 -0.4890 -0.0629 -0.3275
  173SAPI   O1119567   3.208   2.016  10.610  0.2186 -0.0233 -0.3991
  173SAPI    C119568   3.086   1.992  10.534 -0.6351 -0.0233 -0.4214
  173SAPI    HA19569   3.060   1.887  10.560  0.0194  0.0010  0.3597
  173SAPI    HB19570   3.005   2.061  10.567  1.5804  2.4734 -0.0342
  173SAPI    C219571   3.121   1.982  10.388 -0.5491  0.7808 -0.2680
  173SAPI    HS19572   3.215   1.928  10.367 -0.5193  1.1789 -1.1889
  173SAPI   O2119573   3.138   2.116  10.338 -0.1970  0.4976  0.1690
  173SAPI   C2119574   3.255   2.162  10.324  0.7989  0.3830 -0.6542
  173SAPI   O2219575   3.360   2.094  10.330 -0.0078  0.0360  0.1752
  173SAPI   C2219576   3.255   2.306  10.297  0.3665  0.0546  0.1621
  173SAPI   H2R19577   3.155   2.350  10.278 -0.0013 -0.0098  1.8421
  173SAPI   H2S19578   3.303   2.350  10.387 -1.7581  0.5255  1.1170
  173SAPI    C319579   3.011   1.914  10.314  0.0723 -0.6542 -0.4981
  173SAPI    HX19580   2.925   1.982  10.327  1.4998  0.7831  1.7353
  173SAPI    HY19581   2.980   1.826  10.374 -1.3383 -0.3881 -0.8251
  173SAPI   O3119582   3.044   1.894  10.179 -0.7195 -0.8000  0.1710
  173SAPI   C3119583   2.988   1.965  10.088 -0.2750 -0.6216  0.0123
  173SAPI   O3219584   2.910   2.058  10.100 -0.0077  0.0492 -0.0352
  173SAPI   C3219585   3.017   1.899   9.953 -0.6468  0.7932 -0.1885
  173SAPI   H2X19586   2.922   1.846   9.929  0.6758 -1.4791 -0.5988
  173SAPI   H2Y19587   3.101   1.827   9.963 -1.5826 -0.3043 -0.0644
  173SAPI   C2319588   3.350   2.339  10.183  0.7232 -0.0921 -0.0644
  173SAPI   H3R19589   3.452   2.296  10.191  1.6804  2.0837 -0.3530
  173SAPI   H3S19590   3.359   2.449  10.196 -0.7956  0.0349 -0.0591
  173SAPI   C2419591   3.287   2.307  10.042 -0.0452  0.4209  0.7764
  173SAPI   H4R19592   3.187   2.353  10.029 -0.4956 -0.6158  0.4535
  173SAPI   H4S19593   3.256   2.200  10.049 -1.1473  0.8005  1.8128
  173SAPI   C2519594   3.379   2.325   9.928 -0.2765 -1.0067  0.0375
  173SAPI   H5R19595   3.481   2.290   9.953  0.0083 -0.2310 -0.0499
  173SAPI   C2619596   3.356   2.405   9.822 -0.4885 -0.6792 -0.7381
  173SAPI   H6R19597   3.444   2.418   9.757  0.5241  0.9773  0.9062
  173SAPI   C2719598   3.231   2.483   9.785 -0.1335 -0.0361  0.2291
  173SAPI   H7R19599   3.257   2.591   9.783 -2.8738  0.6483 -0.4973
  173SAPI   H7S19600   3.137   2.474   9.845 -0.3515 -0.1699 -0.1311
  173SAPI   C2819601   3.176   2.435   9.659  0.2189  0.1012  0.3642
  173SAPI   H8R19602   3.153   2.330   9.639 -2.6809  1.1407 -2.1245
  173SAPI   C2919603   3.152   2.513   9.549 -0.6160 -0.6527 -0.0359
  173SAPI   H9R19604   3.101   2.465   9.464 -3.0875  1.9366 -0.1139
  173SAPI  C21019605   3.180   2.658   9.535 -0.6156  0.4298 -0.0702
  173SAPI  H10R19606   3.275   2.675   9.589 -1.1007 -0.6387  1.1387
  173SAPI  H10S19607   3.105   2.715   9.593  0.4184  0.1316  1.5902
  173SAPI  C21119608   3.199   2.707   9.393 -0.5761  0.5977  0.4244
  173SAPI  H11R19609   3.109   2.763   9.360 -1.8489 -1.8894 -0.4316
  173SAPI  C21219610   3.320   2.703   9.326  0.4046 -0.4210  0.7680
  173SAPI  H12R19611   3.315   2.740   9.223 -1.2480 -0.8353  0.6968
  173SAPI  C21319612   3.456   2.649   9.371 -0.4073 -0.3188 -0.1747
  173SAPI  H13R19613   3.489   2.608   9.274  0.1399  0.7622 -0.4549
  173SAPI  H13S19614   3.432   2.568   9.443  0.7631 -1.2846 -0.8704
  173SAPI  C21419615   3.557   2.749   9.423  0.4708 -0.3084  0.1101
  173SAPI  H14R19616   3.507   2.814   9.496 -0.7243 -0.9954 -0.0878
  173SAPI  C21519617   3.689   2.751   9.391  0.1151  0.0079 -0.2521
  173SAPI  H15R19618   3.747   2.838   9.427 -2.6091  1.3933  0.9533
  173SAPI  C21619619   3.760   2.662   9.292 -0.0946 -0.0730  0.5886
  173SAPI  H16R19620   3.706   2.565   9.295  1.1986 -0.7639  2.9385
  173SAPI  H16S19621   3.855   2.633   9.342  1.1511 -0.8508 -2.1520
  173SAPI  C21719622   3.792   2.732   9.155 -0.8582  0.1024  0.5504
  173SAPI  H17R19623   3.877   2.801   9.173 -0.5550 -0.1174 -0.0165
  173SAPI  H17S19624   3.704   2.787   9.116 -1.5546  0.0832  2.0801
  173SAPI  C21819625   3.828   2.635   9.040  0.1630 -0.0023  0.5586
  173SAPI  H18R19626   3.751   2.555   9.047  0.5136 -0.4606 -0.7052
  173SAPI  H18S19627   3.928   2.590   9.057  0.6263  0.0952 -1.7943
  173SAPI  C21919628   3.841   2.716   8.907  0.2134 -0.2837 -0.3927
  173SAPI  H19R19629   3.911   2.662   8.839 -0.5706 -0.2593 -1.2317
  173SAPI  H19S19630   3.898   2.809   8.926  0.6732 -0.9180  1.4487
  173SAPI  C22019631   3.717   2.752   8.822 -0.3887 -0.1799 -0.3928
  173SAPI  H20R19632   3.734   2.835   8.750  3.2931 -1.5241 -1.1527
  173SAPI  H20S19633   3.634   2.781   8.891 -1.1308 -0.8863 -0.9810
  173SAPI  H20T19634   3.695   2.657   8.769  0.4298 -1.2336  1.1179
  173SAPI   C3319635   3.052   1.995   9.844 -0.1677  0.0328 -0.8600
  173SAPI   H3X19636   3.163   1.995   9.839 -0.2385 -0.9219 -2.9141
  173SAPI   H3Y19637   3.028   2.098   9.878 -1.0196 -0.2802 -0.4952
  173SAPI   C3419638   2.980   1.975   9.713 -0.2354 -0.2451  0.7177
  173SAPI   H4X19639   2.870   1.991   9.721 -0.3172 -1.2115  1.6191
  173SAPI   H4Y19640   3.009   1.872   9.684  1.0453 -0.0516  1.2934
  173SAPI   C3519641   3.023   2.074   9.601 -0.5560 -0.0775  0.3506
  173SAPI   H5X19642   3.133   2.079   9.588 -0.6713 -2.1935 -2.0295
  173SAPI   H5Y19643   2.990   2.178   9.623  1.3418  0.5065  0.5190
  173SAPI   C3619644   2.969   2.041   9.460  0.1990  0.7773 -0.2967
  173SAPI   H6X19645   3.001   2.120   9.388  2.0867  1.1430  0.9010
  173SAPI   H6Y19646   2.860   2.059   9.467 -0.2377 -0.6829 -2.8178
  173SAPI   C3719647   3.007   1.900   9.409 -0.3071 -0.1726  0.1368
  173SAPI   H7X19648   2.977   1.820   9.481  0.9433 -0.6642  0.1370
  173SAPI   H7Y19649   3.117   1.906   9.396 -0.8724  1.4911 -4.8192
  173SAPI   C3819650   2.947   1.885   9.276  0.2780 -0.1733  0.5749
  173SAPI   H8X19651   2.924   1.980   9.222  0.8029 -0.2655  0.1785
  173SAPI   H8Y19652   2.850   1.832   9.284  0.5686 -0.8144 -0.0836
  173SAPI   C3919653   3.035   1.797   9.182  0.1477 -0.4526 -0.3982
  173SAPI   H9X19654   2.980   1.758   9.093  2.5422 -1.9338 -1.2770
  173SAPI   H9Y19655   3.051   1.702   9.237  2.0595 -0.1203 -0.3518
  173SAPI  C31019656   3.163   1.863   9.133 -0.5650  0.1486  0.4402
  173SAPI  H10X19657   3.186   1.959   9.183  0.9958  0.7555 -1.3511
  173SAPI  H10Y19658   3.160   1.892   9.025  1.1106 -0.2811  0.2586
  173SAPI  C31119659   3.287   1.771   9.138  0.1270  0.3326  0.6313
  173SAPI  H11X19660   3.309   1.755   9.246  0.7527  0.4002  0.5152
  173SAPI  H11Y19661   3.368   1.837   9.099 -0.4491  0.9139  0.4233
  173SAPI  C31219662   3.262   1.638   9.063 -0.5007  0.3848  0.8347
  173SAPI  H12X19663   3.259   1.658   8.953  2.2054 -0.1342  0.6340
  173SAPI  H12Y19664   3.161   1.600   9.093  0.1419 -1.7454  0.3918
  173SAPI  C31319665   3.379   1.538   9.088  0.3844  0.0088 -0.1180
  173SAPI  H13X19666   3.383   1.536   9.199 -0.0370  2.1410 -0.0566
  173SAPI  H13Y19667   3.466   1.581   9.034 -0.6029 -0.0836 -1.8495
  173SAPI  C31419668   3.356   1.388   9.042  0.5296 -0.4516 -1.1984
  173SAPI  H14X19669   3.258   1.355   9.082 -0.3248  2.7108 -0.5152
  173SAPI  H14Y19670   3.433   1.326   9.093  0.9491  0.5368 -0.6142
  173SAPI  C31519671   3.345   1.365   8.893 -0.4631 -0.0861 -0.0169
  173SAPI  H15X19672   3.449   1.390   8.862 -0.1265  2.7032  3.0119
  173SAPI  H15Y19673   3.271   1.426   8.837  0.5047  1.7937  0.6916
  173SAPI  C31619674   3.329   1.212   8.862 -0.3833  0.0412  0.2363
  173SAPI  H16X19675   3.233   1.179   8.908 -1.8229 -0.6892 -3.1256
  173SAPI  H16Y19676   3.410   1.160   8.917  0.4717  2.1836  1.0178
  173SAPI  C31719677   3.326   1.177   8.713  0.1398 -0.3597  0.0857
  173SAPI  H17X19678   3.421   1.209   8.667  0.2522  0.6497  1.0156
  173SAPI  H17Y19679   3.249   1.235   8.657  1.6011  2.0444  0.5155
  173SAPI  C31819680   3.303   1.037   8.671 -0.1787  0.6122 -0.2097
  173SAPI  H18X19681   3.388   0.970   8.699 -0.2375  0.5025 -0.2903
  173SAPI  H18Y19682   3.290   1.027   8.561  0.2473 -0.1296 -0.2014
  173SAPI  H18Z19683   3.215   0.990   8.720  1.2475 -1.4725  0.4402
  174SAPI   C1219684   5.422   2.695  11.032  0.6871  0.0441 -0.2554
  174SAPI    H219685   5.414   2.805  11.025 -0.8233  0.0046  0.5200
  174SAPI    O219686   5.437   2.655  11.167 -0.2886  0.3187 -0.1479
  174SAPI   HO219687   5.513   2.699  11.204  0.5335 -0.5649 -0.7624
  174SAPI   C1319688   5.307   2.631  10.963  0.3157  0.3645 -0.0803
  174SAPI    H319689   5.295   2.666  10.859 -1.0831  1.5832  0.4765
  174SAPI    O319690   5.187   2.680  11.022  0.4475  0.3074  0.2053
  174SAPI   HO319691   5.179   2.648  11.112  0.5364 -2.1569 -0.6109
  174SAPI   C1419692   5.317   2.483  10.964 -0.8304 -0.4704  0.0054
  174SAPI    H419693   5.328   2.453  11.070 -0.4262  1.3256  0.4859
  174SAPI    O419694   5.208   2.413  10.906 -0.7912  0.6539 -0.1707
  174SAPI   HO419695   5.140   2.387  10.968 -2.0915  2.2971 -0.8761
  174SAPI   C1519696   5.448   2.441  10.894  0.0264  0.0142  0.0635
  174SAPI    H519697   5.434   2.465  10.787  0.3882 -1.7271 -0.3850
  174SAPI    O519698   5.460   2.299  10.908 -0.4236  0.9423  0.1134
  174SAPI   HO519699   5.384   2.266  10.859  1.0994 -1.0432 -0.9843
  174SAPI   C1619700   5.569   2.509  10.958 -0.8578  0.0466 -0.5861
  174SAPI    H619701   5.583   2.463  11.058  0.2842  2.0016  0.1884
  174SAPI    O619702   5.700   2.479  10.905  0.7108 -0.0443 -0.1220
  174SAPI   HO619703   5.765   2.543  10.935  0.0357  2.1589 -3.2320
  174SAPI   C1119704   5.550   2.662  10.967  0.7816 -0.0147 -0.0847
  174SAPI    H119705   5.540   2.697  10.862  0.0134  1.5855  0.5192
  174SAPI     P19706   5.710   2.883  10.974  0.1795  0.1409  0.4059
  174SAPI   O1319707   5.806   2.938  11.075 -0.6806  0.1355  0.5903
  174SAPI   O1419708   5.592   2.964  10.929 -0.0292 -0.0267 -0.3219
  174SAPI   O1219709   5.658   2.731  11.033  0.3946 -0.3530 -0.1930
  174SAPI   O1119710   5.797   2.840  10.852 -0.1395 -0.2198  0.2127
  174SAPI    C119711   5.750   2.827  10.719  0.5973 -0.3385  0.2435
  174SAPI    HA19712   5.732   2.720  10.692  1.4907 -0.5190  0.3422
  174SAPI    HB19713   5.656   2.883  10.697  1.2469  0.7241  0.1407
  174SAPI    C219714   5.852   2.888  10.620 -1.0081 -0.2618 -0.1774
  174SAPI    HS19715   5.802   2.880  10.521 -0.8200 -1.3435 -0.1975
  174SAPI   O2119716   5.986   2.825  10.624 -0.5814 -0.5213  0.4329
  174SAPI   C2119717   5.989   2.703  10.572 -0.0703 -0.1971 -0.2321
  174SAPI   O2219718   5.896   2.656  10.506 -0.5830  0.3682 -0.3383
  174SAPI   C2219719   6.122   2.633  10.583 -0.1913  0.0159  0.0257
  174SAPI   H2R19720   6.126   2.608  10.691  1.3526 -1.1388 -0.2811
  174SAPI   H2S19721   6.122   2.536  10.529  1.1584  0.3199 -0.5267
  174SAPI    C319722   5.878   3.041  10.639 -0.3309 -1.2493  0.3247
  174SAPI    HX19723   5.937   3.057  10.732 -0.4681  1.1543  0.0441
  174SAPI    HY19724   5.784   3.098  10.655 -0.7663 -1.1348 -2.3382
  174SAPI   O3119725   5.937   3.094  10.517 -0.4672 -0.5338  0.6541
  174SAPI   C3119726   6.056   3.137  10.525 -0.1867  0.7327 -0.1747
  174SAPI   O3219727   6.119   3.148  10.627 -0.5621  0.2855  0.6425
  174SAPI   C3219728   6.108   3.180  10.389  0.4031 -0.0700  0.6061
  174SAPI   H2X19729   6.030   3.245  10.344  0.2315  0.1687  1.2397
  174SAPI   H2Y19730   6.110   3.090  10.324  1.2409 -0.5531  1.2867
  174SAPI   C2319731   6.248   2.703  10.534 -0.7298  0.2624 -0.1056
  174SAPI   H3R19732   6.326   2.657  10.598  2.0617  2.0791 -2.0848
  174SAPI   H3S19733   6.253   2.810  10.561 -0.7149  0.1447  0.3514
  174SAPI   C2419734   6.286   2.672  10.393 -0.0297  0.1796  0.4238
  174SAPI   H4R19735   6.309   2.563  10.391 -2.2420 -0.3593  1.6282
  174SAPI   H4S19736   6.378   2.725  10.363  1.2045 -1.7883  0.6308
  174SAPI   C2519737   6.184   2.697  10.284  0.2277 -0.2310  0.6101
  174SAPI   H5R19738   6.093   2.640  10.308 -0.0836  0.2909  0.6766
  174SAPI   C2619739   6.189   2.763  10.171 -0.7045  0.1639  0.8681
  174SAPI   H6R19740   6.106   2.743  10.101  0.8987  0.0499 -1.0544
  174SAPI   C2719741   6.303   2.841  10.110  0.3672  0.9002 -0.0741
  174SAPI   H7R19742   6.350   2.911  10.182 -1.9382 -0.3610  2.7462
  174SAPI   H7S19743   6.264   2.905  10.028 -2.5112 -1.1733 -0.3977
  174SAPI   C2819744   6.413   2.747  10.051 -0.0154  0.0665 -0.6186
  174SAPI   H8R19745   6.497   2.715  10.115 -1.2272  0.5039  1.2351
  174SAPI   C2919746   6.430   2.705   9.925 -0.7158  0.2679 -0.6560
  174SAPI   H9R19747   6.520   2.643   9.909 -0.6836  0.0393  0.4196
  174SAPI  C21019748   6.336   2.734   9.808 -0.3473 -0.8822  1.0416
  174SAPI  H10R19749   6.243   2.778   9.851 -0.0770  0.1422  0.5985
  174SAPI  H10S19750   6.330   2.638   9.752 -1.8492 -1.0788  1.5050
  174SAPI  C21119751   6.396   2.844   9.716 -0.2733  0.3271 -0.1900
  174SAPI  H11R19752   6.381   2.949   9.744 -0.1770  0.3854 -0.3559
  174SAPI  C21219753   6.457   2.822   9.596 -0.2972  1.1985 -0.6944
  174SAPI  H12R19754   6.498   2.910   9.545 -0.3145  2.0044  0.6536
  174SAPI  C21319755   6.482   2.692   9.522 -0.3361  0.3806 -0.1410
  174SAPI  H13R19756   6.458   2.720   9.418 -1.3115 -1.7747 -0.5066
  174SAPI  H13S19757   6.396   2.626   9.545  1.5295 -2.3735 -0.8418
  174SAPI  C21419758   6.615   2.618   9.543 -0.1291 -0.4317  0.8980
  174SAPI  H14R19759   6.619   2.551   9.631 -0.0603 -1.5927  0.0185
  174SAPI  C21519760   6.722   2.649   9.470  0.0559 -0.1289  0.4760
  174SAPI  H15R19761   6.818   2.604   9.497  0.0564 -0.3030  0.1956
  174SAPI  C21619762   6.731   2.746   9.357 -0.3778 -0.0185 -0.5484
  174SAPI  H16R19763   6.829   2.796   9.371  0.5510 -0.9784 -3.3808
  174SAPI  H16S19764   6.654   2.826   9.361  0.0044  0.4023 -1.3836
  174SAPI  C21719765   6.716   2.684   9.219 -0.4506  0.6870  0.7906
  174SAPI  H17R19766   6.631   2.614   9.206 -0.1806  0.6282 -0.8079
  174SAPI  H17S19767   6.804   2.618   9.202  0.2824  1.3967  1.7643
  174SAPI  C21819768   6.734   2.789   9.106  0.4045 -0.1839  0.4722
  174SAPI  H18R19769   6.830   2.844   9.123  1.0262 -0.7083 -1.2294
  174SAPI  H18S19770   6.653   2.864   9.109 -0.1131 -0.7215  0.0231
  174SAPI  C21919771   6.728   2.737   8.953  0.1297  0.0976 -0.2182
  174SAPI  H19R19772   6.783   2.641   8.950 -0.1413 -0.0220 -2.6728
  174SAPI  H19S19773   6.797   2.802   8.896  0.0274 -0.8128 -1.3924
  174SAPI  C22019774   6.592   2.737   8.885 -0.2267  0.0622  0.1695
  174SAPI  H20R19775   6.536   2.821   8.929 -0.5260  0.5939 -1.1997
  174SAPI  H20S19776   6.538   2.645   8.915  1.2436  0.1864  3.4076
  174SAPI  H20T19777   6.591   2.741   8.773 -0.8156 -3.1243  0.0032
  174SAPI   C3319778   6.247   3.247  10.388  0.3193 -0.8519 -1.0271
  174SAPI   H3X19779   6.326   3.170  10.375  1.8470  0.7009 -1.1208
  174SAPI   H3Y19780   6.258   3.311  10.478  0.3663  0.5643 -2.0160
  174SAPI   C3419781   6.240   3.357  10.276  0.2003  0.4216  0.3667
  174SAPI   H4X19782   6.343   3.398  10.266  1.4603 -2.5322  0.7677
  174SAPI   H4Y19783   6.166   3.439  10.285  1.0860  1.1806  0.8263
  174SAPI   C3519784   6.209   3.291  10.138 -0.2345 -0.2489  1.0075
  174SAPI   H5X19785   6.104   3.263  10.113  0.3366  0.9322 -2.9381
  174SAPI   H5Y19786   6.275   3.202  10.128 -1.4781 -1.2005  1.0708
  174SAPI   C3619787   6.250   3.384  10.013 -0.7185 -0.4332 -0.2821
  174SAPI   H6X19788   6.333   3.455  10.032 -0.2574 -0.8653 -0.6810
  174SAPI   H6Y19789   6.161   3.451   9.999 -0.2235  0.5266  1.0592
  174SAPI   C3719790   6.291   3.294   9.897 -0.0607  0.4367  0.2850
  174SAPI   H7X19791   6.193   3.268   9.851  0.9493  0.3134 -1.8982
  174SAPI   H7Y19792   6.344   3.203   9.933  0.7427  1.0728  0.7057
  174SAPI   C3819793   6.377   3.378   9.800 -0.5204 -0.0757 -0.4958
  174SAPI   H8X19794   6.482   3.384   9.837 -0.4570 -2.4736 -0.2371
  174SAPI   H8Y19795   6.336   3.481   9.805 -1.8309 -0.6340  0.3983
  174SAPI   C3919796   6.374   3.323   9.662  0.9930  0.2107 -0.4921
  174SAPI   H9X19797   6.284   3.261   9.643  0.1113  1.1231  0.6605
  174SAPI   H9Y19798   6.451   3.243   9.658 -0.7804 -1.5559  0.1014
  174SAPI  C31019799   6.397   3.431   9.554  0.7215  0.3734 -0.5987
  174SAPI  H10X19800   6.461   3.513   9.594  0.2054  0.6354 -0.3177
  174SAPI  H10Y19801   6.301   3.475   9.522  0.2034 -0.0367  0.3812
  174SAPI  C31119802   6.458   3.374   9.422 -0.5243 -0.2780 -0.5543
  174SAPI  H11X19803   6.388   3.300   9.378  1.2353 -0.3625 -3.3233
  174SAPI  H11Y19804   6.552   3.323   9.452 -2.3078 -2.0435  2.3400
  174SAPI  C31219805   6.481   3.471   9.315 -0.0708  0.0379  0.1252
  174SAPI  H12X19806   6.582   3.514   9.330 -0.4660  0.1979  2.4499
  174SAPI  H12Y19807   6.403   3.549   9.306 -1.7655 -1.9416 -3.7187
  174SAPI  C31319808   6.473   3.409   9.173 -0.3325  0.4231  0.0399
  174SAPI  H13X19809   6.379   3.361   9.138  1.3317 -1.1444 -2.5714
  174SAPI  H13Y19810   6.542   3.322   9.177  0.2036  0.8007 -0.7298
  174SAPI  C31419811   6.511   3.518   9.068 -0.3805  0.5737  0.6412
  174SAPI  H14X19812   6.611   3.560   9.093  0.9975 -1.4217 -1.2967
  174SAPI  H14Y19813   6.427   3.590   9.068 -0.8735  0.0197 -0.9489
  174SAPI  C31519814   6.495   3.457   8.928 -0.2495 -0.2854  0.2495
  174SAPI  H15X19815   6.404   3.392   8.929 -0.8074  0.4943  0.9098
  174SAPI  H15Y19816   6.581   3.387   8.916  0.0918  0.0449  0.7814
  174SAPI  C31619817   6.489   3.551   8.811  0.7348  0.4975 -0.1625
  174SAPI  H16X19818   6.589   3.597   8.794  1.0378 -0.1324 -0.0670
  174SAPI  H16Y19819   6.410   3.629   8.824 -1.4092 -1.5226 -0.7844
  174SAPI  C31719820   6.463   3.471   8.684  0.4924 -0.2883  0.1409
  174SAPI  H17X19821   6.446   3.540   8.598  0.2002 -2.1482 -1.3273
  174SAPI  H17Y19822   6.374   3.404   8.682  1.1129 -1.1034 -2.9951
  174SAPI  C31819823   6.591   3.391   8.639  0.0084  0.4797 -0.5564
  174SAPI  H18X19824   6.605   3.301   8.703  0.9824  0.7865 -0.3295
  174SAPI  H18Y19825   6.686   3.446   8.626  0.3158  0.0671 -0.0528
  174SAPI  H18Z19826   6.563   3.351   8.539  0.3936  1.3022 -0.9888
  175SAPI   C1219827   1.474   2.601   6.218 -0.3440 -0.6686  0.9721
  175SAPI    H219828   1.370   2.593   6.257  0.0792  0.6171  2.4439
  175SAPI    O219829   1.478   2.552   6.084  0.3321  0.1903 -0.7728
  175SAPI   HO219830   1.492   2.458   6.097 -2.1541  0.0280  1.0515
  175SAPI   C1319831   1.501   2.753   6.225  0.0923 -0.6587  0.0229
  175SAPI    H319832   1.483   2.772   6.333 -0.6366  1.8986 -0.5104
  175SAPI    O319833   1.397   2.834   6.157 -0.2178  0.3127  0.5138
  175SAPI   HO319834   1.379   2.804   6.067  1.0836 -1.1537  0.7115
  175SAPI   C1419835   1.637   2.788   6.189  0.2547  0.0912 -0.5879
  175SAPI    H419836   1.644   2.752   6.084  0.8979 -0.2340 -0.4404
  175SAPI    O419837   1.656   2.930   6.198  0.1393  0.4549 -0.0975
  175SAPI   HO419838   1.623   2.950   6.286  0.8080  0.1187  0.2290
  175SAPI   C1519839   1.744   2.713   6.268  0.1045 -0.1946  0.2133
  175SAPI    H519840   1.744   2.745   6.374  2.8211 -0.9786  0.4947
  175SAPI    O519841   1.880   2.743   6.216 -0.2454  0.0754  0.2730
  175SAPI   HO519842   1.935   2.730   6.294 -0.9532 -1.4425  0.5298
  175SAPI   C1619843   1.720   2.568   6.258 -0.0461  0.2831  0.0615
  175SAPI    H619844   1.737   2.535   6.153 -0.1314  0.9144 -0.1540
  175SAPI    O619845   1.812   2.497   6.335 -0.7587 -0.5872 -0.5474
  175SAPI   HO619846   1.780   2.407   6.339  0.4859 -1.1235 -2.4027
  175SAPI   C1119847   1.584   2.534   6.307  0.6067  0.4069  0.0067
  175SAPI    H119848   1.576   2.562   6.414 -0.5049 -1.9421  0.5539
  175SAPI     P19849   1.451   2.306   6.383 -0.1127 -0.2072 -0.5712
  175SAPI   O1319850   1.408   2.190   6.292 -0.6756  0.2415 -0.3192
  175SAPI   O1419851   1.343   2.398   6.426  0.2221 -0.0126 -0.2364
  175SAPI   O1219852   1.562   2.390   6.288 -0.0650  0.7915  0.0491
  175SAPI   O1119853   1.536   2.250   6.513  0.2912 -0.4353  0.8388
  175SAPI    C119854   1.485   2.163   6.610 -0.1330 -0.0368  0.1848
  175SAPI    HA19855   1.387   2.121   6.580 -0.9964  0.0253  2.8474
  175SAPI    HB19856   1.550   2.073   6.613 -1.4307 -1.0234 -0.8289
  175SAPI    C219857   1.477   2.213   6.755 -0.3796 -0.3020  0.1201
  175SAPI    HS19858   1.430   2.129   6.811  2.0877 -1.5352  0.3799
  175SAPI   O2119859   1.396   2.329   6.775  0.0397 -0.5280 -0.2744
  175SAPI   C2119860   1.260   2.309   6.756 -0.1775  0.4335  0.5527
  175SAPI   O2219861   1.215   2.208   6.711  0.4232 -0.0812  0.0245
  175SAPI   C2219862   1.188   2.432   6.796  0.0115  0.4813 -0.7856
  175SAPI   H2R19863   1.217   2.509   6.722  1.9457 -1.7531 -2.4470
  175SAPI   H2S19864   1.080   2.409   6.795  0.6035 -2.5837  0.3696
  175SAPI    C319865   1.618   2.244   6.819 -0.0895 -0.1956  0.2714
  175SAPI    HX19866   1.669   2.331   6.772 -2.1819  1.3734  0.8334
  175SAPI    HY19867   1.672   2.148   6.806  0.9135  0.3950  0.0160
  175SAPI   O3119868   1.609   2.266   6.965 -0.7103 -0.0923 -0.0275
  175SAPI   C3119869   1.604   2.386   7.000  0.8677  0.9338 -0.3903
  175SAPI   O3219870   1.601   2.488   6.936  0.0093  0.0017  0.0184
  175SAPI   C3219871   1.591   2.393   7.155  0.7983  0.5929 -0.4497
  175SAPI   H2X19872   1.638   2.302   7.197  0.9275 -0.4706 -2.7964
  175SAPI   H2Y19873   1.482   2.393   7.179  0.9915  0.9757  0.4387
  175SAPI   C2319874   1.223   2.490   6.936 -0.3903 -0.0073 -0.0875
  175SAPI   H3R19875   1.214   2.599   6.914 -1.6284  0.2477  1.6288
  175SAPI   H3S19876   1.328   2.464   6.963 -0.3763  0.5280  0.3907
  175SAPI   C2419877   1.117   2.462   7.046  0.4523 -0.0266 -0.2866
  175SAPI   H4R19878   1.015   2.477   7.003 -0.4060 -0.9485  1.3904
  175SAPI   H4S19879   1.136   2.537   7.126 -1.4842  0.1908  0.0040
  175SAPI   C2519880   1.128   2.322   7.100 -0.1513 -0.9728 -0.5980
  175SAPI   H5R19881   1.098   2.251   7.021 -0.0872  0.6375 -2.0978
  175SAPI   C2619882   1.162   2.278   7.229  0.3662  0.8947  0.3222
  175SAPI   H6R19883   1.175   2.170   7.240 -1.0956  0.7240  0.3823
  175SAPI   C2719884   1.209   2.368   7.339  0.0922 -0.1624  0.0149
  175SAPI   H7R19885   1.120   2.415   7.387 -1.2437 -0.0096 -2.5496
  175SAPI   H7S19886   1.271   2.451   7.298 -0.9613  0.6119 -0.0444
  175SAPI   C2819887   1.302   2.300   7.434  0.6662 -0.1420  0.2059
  175SAPI   H8R19888   1.393   2.269   7.381 -0.0041  0.3183 -1.2542
  175SAPI   C2919889   1.280   2.293   7.564 -0.5512 -0.1346  0.0736
  175SAPI   H9R19890   1.338   2.222   7.624  1.1879  0.5979 -0.7178
  175SAPI  C21019891   1.156   2.341   7.635 -0.3664 -0.1685  0.1927
  175SAPI  H10R19892   1.059   2.340   7.581 -0.7777 -0.1224  0.9227
  175SAPI  H10S19893   1.171   2.448   7.660  0.2227 -0.4008  0.8289
  175SAPI  C21119894   1.136   2.259   7.757  0.1612  0.0993  0.3312
  175SAPI  H11R19895   1.100   2.157   7.735 -1.6536  0.6288  0.7257
  175SAPI  C21219896   1.172   2.281   7.878 -0.5828 -0.6771 -0.9112
  175SAPI  H12R19897   1.144   2.199   7.945  1.1147  0.7535  1.6127
  175SAPI  C21319898   1.257   2.401   7.930  0.8783  0.0621 -0.7447
  175SAPI  H13R19899   1.230   2.412   8.037 -0.5768 -0.8905 -0.9978
  175SAPI  H13S19900   1.233   2.496   7.880  0.3175 -1.0636 -2.6556
  175SAPI  C21419901   1.397   2.374   7.902  0.0928 -0.2282  0.0924
  175SAPI  H14R19902   1.424   2.410   7.801  0.7899 -0.1791  0.2934
  175SAPI  C21519903   1.487   2.324   7.986 -0.1532  0.3761 -0.4400
  175SAPI  H15R19904   1.594   2.318   7.961  0.1428  2.7067  0.1549
  175SAPI  C21619905   1.458   2.289   8.132  0.0384  0.6563  0.7677
  175SAPI  H16R19906   1.353   2.261   8.155 -0.1464  0.5847 -0.1628
  175SAPI  H16S19907   1.482   2.375   8.199  1.4001  0.5809  0.4010
  175SAPI  C21719908   1.536   2.163   8.173  0.1266 -0.5981  0.6711
  175SAPI  H17R19909   1.647   2.172   8.167  0.0987  0.1609  1.2605
  175SAPI  H17S19910   1.502   2.084   8.103  0.2945  0.5383 -0.7178
  175SAPI  C21819911   1.497   2.125   8.317  0.7588 -0.8808  0.1013
  175SAPI  H18R19912   1.386   2.112   8.318  0.3995  1.8920  1.4613
  175SAPI  H18S19913   1.516   2.218   8.374 -0.6234  0.0419 -0.9069
  175SAPI  C21919914   1.579   2.010   8.367 -0.2047 -0.4666  0.2427
  175SAPI  H19R19915   1.681   2.048   8.393  0.9257 -2.7403 -0.7223
  175SAPI  H19S19916   1.586   1.952   8.273  0.4561  2.2030 -1.4156
  175SAPI  C22019917   1.528   1.929   8.485 -0.2993  0.5212 -0.0931
  175SAPI  H20R19918   1.560   1.976   8.580  1.4147  1.1330 -0.9532
  175SAPI  H20S19919   1.577   1.830   8.489 -0.2407  0.6178  2.5123
  175SAPI  H20T19920   1.421   1.901   8.478 -0.2725  0.8195 -1.9456
  175SAPI   C3319921   1.668   2.516   7.219  0.1442  0.4077  0.5674
  175SAPI   H3X19922   1.629   2.612   7.179 -1.8178  0.0191  1.5324
  175SAPI   H3Y19923   1.778   2.526   7.202  0.0258  2.0479  0.6510
  175SAPI   C3419924   1.644   2.522   7.372  0.1063  0.4900 -0.5638
  175SAPI   H4X19925   1.536   2.524   7.398 -0.3514  0.3305 -2.4533
  175SAPI   H4Y19926   1.683   2.621   7.405  0.6026  0.2480 -0.4130
  175SAPI   C3519927   1.710   2.411   7.453  0.5387 -0.3060 -0.0454
  175SAPI   H5X19928   1.815   2.400   7.418  0.8884  0.6851  0.6810
  175SAPI   H5Y19929   1.654   2.317   7.434 -1.8052  1.0538 -0.1006
  175SAPI   C3619930   1.701   2.438   7.599  0.2343 -0.4526  0.5891
  175SAPI   H6X19931   1.704   2.341   7.652 -2.0796 -0.6058  0.4517
  175SAPI   H6Y19932   1.605   2.490   7.620 -0.7060 -1.6863 -0.5708
  175SAPI   C3719933   1.819   2.533   7.648  0.1824  0.2053  0.3766
  175SAPI   H7X19934   1.820   2.616   7.575  0.7508 -0.2057 -0.0987
  175SAPI   H7Y19935   1.918   2.485   7.628  0.3829  0.7615  0.0182
  175SAPI   C3819936   1.816   2.572   7.799 -0.0965 -0.1894  0.6127
  175SAPI   H8X19937   1.709   2.600   7.814  0.8951  4.7716 -0.8851
  175SAPI   H8Y19938   1.869   2.668   7.814 -0.7308  0.0109  1.6170
  175SAPI   C3919939   1.870   2.480   7.907  0.0184 -0.8478  0.0737
  175SAPI   H9X19940   1.977   2.453   7.893  0.7381  2.4007 -1.1624
  175SAPI   H9Y19941   1.810   2.387   7.900 -1.3189 -0.2257  2.5447
  175SAPI  C31019942   1.834   2.532   8.046  0.5019  0.5961 -0.6663
  175SAPI  H10X19943   1.724   2.528   8.064  0.3776  3.8014 -0.5338
  175SAPI  H10Y19944   1.873   2.634   8.060 -1.6246  1.5130 -1.2055
  175SAPI  C31119945   1.885   2.441   8.159 -0.5232 -0.1863 -0.7129
  175SAPI  H11X19946   1.996   2.441   8.159 -0.5162  0.3917  0.5913
  175SAPI  H11Y19947   1.867   2.333   8.137  1.3555 -0.8529  0.8243
  175SAPI  C31219948   1.829   2.461   8.302 -0.2663 -0.6852 -0.2025
  175SAPI  H12X19949   1.722   2.432   8.299 -1.0462  1.9228  0.9576
  175SAPI  H12Y19950   1.838   2.571   8.318 -1.2158 -0.4161 -1.4084
  175SAPI  C31319951   1.916   2.380   8.396 -0.3722 -0.2288  0.4665
  175SAPI  H13X19952   1.933   2.275   8.363  0.7278  0.5288 -1.4875
  175SAPI  H13Y19953   1.853   2.379   8.487  0.9978 -1.3196  1.4340
  175SAPI  C31419954   2.046   2.453   8.432 -0.3762 -0.1985  0.2356
  175SAPI  H14X19955   2.030   2.560   8.456 -0.6256  0.1181 -1.3065
  175SAPI  H14Y19956   2.098   2.459   8.334  1.1520  0.7805  1.0840
  175SAPI  C31519957   2.132   2.387   8.538  0.5525 -0.1809 -0.3302
  175SAPI  H15X19958   2.064   2.363   8.622  0.7065 -0.3153 -0.2414
  175SAPI  H15Y19959   2.207   2.462   8.572 -0.6389  1.5570 -1.4457
  175SAPI  C31619960   2.208   2.257   8.482  0.2098  0.0934 -0.5127
  175SAPI  H16X19961   2.142   2.186   8.428 -1.5857  0.1213  1.5565
  175SAPI  H16Y19962   2.260   2.200   8.563 -0.5955  0.4390  0.2588
  175SAPI  C31719963   2.322   2.288   8.375  0.3859 -0.3665  0.1287
  175SAPI  H17X19964   2.405   2.333   8.433 -1.3673  0.1454  2.3097
  175SAPI  H17Y19965   2.289   2.336   8.281  1.0603 -3.3915 -1.7394
  175SAPI  C31819966   2.394   2.157   8.335  0.6833 -0.5306  0.4025
  175SAPI  H18X19967   2.486   2.184   8.279 -0.8623  1.3110 -1.3362
  175SAPI  H18Y19968   2.339   2.090   8.266 -0.7587 -0.8351  1.8179
  175SAPI  H18Z19969   2.422   2.112   8.433 -0.9856  2.8831  2.5662
  176SAPI   C1219970   1.020   0.928   6.296 -1.0865 -0.4319  0.7191
  176SAPI    H219971   1.037   1.010   6.369  2.2072  1.2267 -1.7132
  176SAPI    O219972   0.918   0.844   6.344  0.8422 -0.6786 -0.4009
  176SAPI   HO219973   0.832   0.884   6.331  0.9026 -0.6927 -0.8503
  176SAPI   C1319974   0.979   0.996   6.171 -0.7284 -0.0672 -0.2767
  176SAPI    H319975   1.062   1.059   6.135 -1.5376  1.0904 -0.1426
  176SAPI    O319976   0.866   1.082   6.195 -0.1545 -0.6167 -0.2031
  176SAPI   HO319977   0.883   1.169   6.158  3.0041 -0.9193  0.3804
  176SAPI   C1419978   0.957   0.894   6.061  0.6182  0.1273  0.0694
  176SAPI    H419979   0.876   0.829   6.102  0.7789 -0.3820 -0.4003
  176SAPI    O419980   0.922   0.966   5.944  0.3877 -0.4939  0.0509
  176SAPI   HO419981   0.854   1.031   5.964 -0.8083 -2.0436  1.1015
  176SAPI   C1519982   1.075   0.803   6.046  0.2758  0.4615 -0.1054
  176SAPI    H519983   1.155   0.870   6.009 -1.1376  2.0001 -0.4636
  176SAPI    O519984   1.051   0.699   5.952  0.3216 -0.1829  0.1888
  176SAPI   HO519985   1.125   0.685   5.892 -0.6806  0.5893 -1.2731
  176SAPI   C1619986   1.113   0.743   6.177  0.7454  0.5788  0.2368
  176SAPI    H619987   1.028   0.684   6.218 -0.6125  1.7088 -0.9172
  176SAPI    O619988   1.231   0.660   6.162  0.2223  0.0626 -0.1229
  176SAPI   HO619989   1.262   0.636   6.250  0.2707 -2.2329 -0.7411
  176SAPI   C1119990   1.152   0.855   6.272  0.3939  0.3574  0.7927
  176SAPI    H119991   1.225   0.923   6.223  0.5647 -1.0552 -0.9437
  176SAPI     P19992   1.264   0.904   6.506 -0.4188 -0.3957  0.3110
  176SAPI   O1319993   1.301   1.026   6.433  0.1975 -0.5150  0.3947
  176SAPI   O1419994   1.375   0.841   6.577 -0.5599 -0.2593 -0.0255
  176SAPI   O1219995   1.204   0.800   6.400  0.1196 -0.2995 -0.2659
  176SAPI   O1119996   1.151   0.939   6.607 -0.0245  0.0343  0.1635
  176SAPI    C119997   1.077   0.843   6.678  0.3782  0.3569 -0.3337
  176SAPI    HA19998   0.982   0.897   6.696  0.2580 -0.6373  2.1871
  176SAPI    HB19999   1.046   0.758   6.613  1.6056  0.0788 -0.5717
  176SAPI    C220000   1.154   0.793   6.806  0.2068 -0.1564  0.4151
  176SAPI    HS20001   1.216   0.706   6.776  2.0360  0.6093  1.9306
  176SAPI   O2120002   1.064   0.755   6.912 -0.0062 -0.2385  0.2240
  176SAPI   C2120003   0.982   0.661   6.903  0.4349 -0.2429 -0.3974
  176SAPI   O2220004   0.958   0.596   6.803  0.2462 -0.5256 -0.2602
  176SAPI   C2220005   0.923   0.621   7.044  0.7915 -0.4087 -0.4753
  176SAPI   H2R20006   0.860   0.707   7.075 -1.2085 -2.2447  0.7095
  176SAPI   H2S20007   0.855   0.537   7.018  0.3980 -0.6904  1.4103
  176SAPI    C320008   1.255   0.895   6.867 -0.4588 -0.5341  0.8309
  176SAPI    HX20009   1.199   0.990   6.858  1.5817  0.7556  1.4356
  176SAPI    HY20010   1.343   0.924   6.806 -1.5546  0.9889 -0.0343
  176SAPI   O3120011   1.283   0.874   7.005  0.2573 -0.0323 -0.1094
  176SAPI   C3120012   1.353   0.766   7.026 -0.2017  0.4978  0.8632
  176SAPI   O3220013   1.392   0.688   6.941 -0.1530  0.1243  0.6054
  176SAPI   C3220014   1.390   0.748   7.168 -0.2813  0.1481  0.1508
  176SAPI   H2X20015   1.298   0.712   7.219  0.3070 -4.7829 -1.9009
  176SAPI   H2Y20016   1.417   0.852   7.196 -0.9495 -0.1818  2.0940
  176SAPI   C2320017   1.037   0.567   7.139 -0.0835  0.0259 -0.5697
  176SAPI   H3R20018   1.009   0.561   7.246  1.2084 -0.0725 -0.2292
  176SAPI   H3S20019   1.120   0.641   7.134  0.6381 -0.6798  0.5367
  176SAPI   C2420020   1.069   0.426   7.096  0.7646  0.3269  0.2165
  176SAPI   H4R20021   1.085   0.426   6.986  0.3778  0.5022  0.1612
  176SAPI   H4S20022   0.983   0.357   7.111  0.2587  1.0369  0.6066
  176SAPI   C2520023   1.198   0.368   7.154 -0.7927  0.3472 -0.6000
  176SAPI   H5R20024   1.288   0.368   7.090  0.0604  1.1308  0.5863
  176SAPI   C2620025   1.212   0.309   7.277  0.0312 -0.7111 -1.0087
  176SAPI   H6R20026   1.308   0.264   7.306  0.3910  0.2781 -0.6468
  176SAPI   C2720027   1.092   0.294   7.373 -0.2907  0.2028 -0.2236
  176SAPI   H7R20028   1.114   0.200   7.428  1.1499  0.9722  0.5345
  176SAPI   H7S20029   1.002   0.267   7.313  0.0385 -2.6733  0.5107
  176SAPI   C2820030   1.070   0.414   7.462  0.3444  0.0837  1.0370
  176SAPI   H8R20031   1.100   0.508   7.414 -1.2107  1.6583  3.0403
  176SAPI   C2920032   1.032   0.411   7.596  0.0312 -1.1641  0.2341
  176SAPI   H9R20033   1.037   0.500   7.660 -0.0279 -2.5673  2.2420
  176SAPI  C21020034   1.009   0.286   7.674 -0.7791  0.3196 -0.4084
  176SAPI  H10R20035   1.044   0.195   7.621  0.4327  0.1876  0.5983
  176SAPI  H10S20036   0.898   0.282   7.678 -0.7083 -0.6634  1.1602
  176SAPI  C21120037   1.065   0.280   7.817 -0.2211  0.6696  0.5644
  176SAPI  H11R20038   1.174   0.269   7.821 -0.5205 -2.4814  1.0162
  176SAPI  C21220039   0.995   0.307   7.930  0.1203  0.1636 -0.1452
  176SAPI  H12R20040   1.045   0.303   8.028  3.5666  0.6713 -1.7951
  176SAPI  C21320041   0.851   0.350   7.943  0.0687 -0.1553 -0.4920
  176SAPI  H13R20042   0.807   0.266   8.001 -0.5456 -0.3724 -1.2783
  176SAPI  H13S20043   0.797   0.333   7.848 -0.3969 -0.3990 -0.1853
  176SAPI  C21420044   0.812   0.483   8.006 -0.4087 -0.3308 -0.0956
  176SAPI  H14R20045   0.834   0.566   7.937 -0.5652 -1.3693 -1.4124
  176SAPI  C21520046   0.787   0.509   8.131 -0.5396 -0.2162 -0.0581
  176SAPI  H15R20047   0.744   0.609   8.149 -2.2656 -0.7495 -1.0138
  176SAPI  C21620048   0.765   0.409   8.248  0.6557  0.5027 -0.2039
  176SAPI  H16R20049   0.858   0.393   8.308  0.5521  1.0722  0.1050
  176SAPI  H16S20050   0.735   0.309   8.210  0.7248  1.0963 -1.8819
  176SAPI  C21720051   0.661   0.460   8.349  0.2046  0.3549  0.2395
  176SAPI  H17R20052   0.692   0.547   8.411  1.3668  0.8121 -0.9571
  176SAPI  H17S20053   0.646   0.377   8.421  0.1814  0.1418 -0.0111
  176SAPI  C21820054   0.523   0.490   8.287  0.0967  0.5627  0.2805
  176SAPI  H18R20055   0.472   0.393   8.269 -2.1761  1.5874  1.0746
  176SAPI  H18S20056   0.536   0.540   8.189  0.6740 -0.3363 -0.1089
  176SAPI  C21920057   0.433   0.581   8.382 -0.1885  0.5488  0.4289
  176SAPI  H19R20058   0.492   0.673   8.405 -0.3060  0.7578 -0.0950
  176SAPI  H19S20059   0.410   0.539   8.482  1.6855 -0.3429  0.5026
  176SAPI  C22020060   0.308   0.619   8.308  0.1951  0.7561  0.1033
  176SAPI  H20R20061   0.254   0.702   8.357  1.1433  1.8057 -0.5912
  176SAPI  H20S20062   0.243   0.531   8.290  1.2340 -0.5165  2.4599
  176SAPI  H20T20063   0.339   0.657   8.208  0.4579  1.8416  0.5925
  176SAPI   C3320064   1.513   0.648   7.193 -0.1386  0.4932 -0.3844
  176SAPI   H3X20065   1.596   0.690   7.132 -0.2347 -0.5429 -1.2216
  176SAPI   H3Y20066   1.500   0.544   7.158  0.3431  0.8167 -1.5413
  176SAPI   C3420067   1.550   0.636   7.339  0.9951 -0.6301  0.2566
  176SAPI   H4X20068   1.575   0.739   7.373  2.6683 -1.1462  0.6357
  176SAPI   H4Y20069   1.646   0.580   7.342  1.0154 -0.5559  1.0331
  176SAPI   C3520070   1.459   0.563   7.436 -0.5871 -0.1126 -0.5718
  176SAPI   H5X20071   1.437   0.461   7.398 -2.5259  0.4639 -1.0469
  176SAPI   H5Y20072   1.357   0.599   7.460 -1.7837 -2.0623 -2.5287
  176SAPI   C3620073   1.527   0.536   7.563  1.0813  0.6902  0.2992
  176SAPI   H6X20074   1.557   0.632   7.611  2.7927  0.8333 -1.0047
  176SAPI   H6Y20075   1.634   0.508   7.546  0.4973 -0.3999 -1.8025
  176SAPI   C3720076   1.455   0.438   7.657  0.0953 -0.2032 -0.6774
  176SAPI   H7X20077   1.467   0.337   7.612  0.5087 -0.9745  1.1380
  176SAPI   H7Y20078   1.345   0.456   7.656  0.0700 -0.1712  1.1971
  176SAPI   C3820079   1.511   0.444   7.795 -0.7340  0.0726  0.2616
  176SAPI   H8X20080   1.459   0.380   7.870 -0.0643  0.8813  1.4347
  176SAPI   H8Y20081   1.492   0.547   7.832  0.1868  0.4827 -0.3850
  176SAPI   C3920082   1.661   0.404   7.815  0.4540 -0.3762 -0.6214
  176SAPI   H9X20083   1.724   0.445   7.733  1.9721 -1.5735 -0.0756
  176SAPI   H9Y20084   1.673   0.294   7.809 -0.3222 -0.5401  0.5806
  176SAPI  C31020085   1.708   0.450   7.948  0.0428  0.0606 -0.3343
  176SAPI  H10X20086   1.687   0.557   7.973  1.2635  0.3685 -0.6117
  176SAPI  H10Y20087   1.817   0.439   7.965 -0.1674 -0.0794  1.0047
  176SAPI  C31120088   1.650   0.375   8.068  0.1956 -0.0902 -0.0243
  176SAPI  H11X20089   1.665   0.267   8.048 -1.8989 -0.4482  0.1782
  176SAPI  H11Y20090   1.540   0.385   8.081  0.4601  0.1271  2.1084
  176SAPI  C31220091   1.732   0.399   8.198 -0.1052  0.4388 -0.3782
  176SAPI  H12X20092   1.837   0.371   8.175  0.3799  1.8944  0.0295
  176SAPI  H12Y20093   1.700   0.319   8.268 -0.1709  0.8887  0.1109
  176SAPI  C31320094   1.700   0.531   8.259 -0.2103  0.2986 -0.0596
  176SAPI  H13X20095   1.596   0.566   8.245  0.3800  2.3894  0.5075
  176SAPI  H13Y20096   1.768   0.603   8.207 -1.9874  1.2277 -1.1275
  176SAPI  C31420097   1.745   0.541   8.406  0.2040  0.2101  0.2971
  176SAPI  H14X20098   1.850   0.504   8.408 -0.7422 -2.9522 -3.6445
  176SAPI  H14Y20099   1.693   0.472   8.475  0.1781 -1.0540 -0.9751
  176SAPI  C31520100   1.733   0.684   8.459  0.3642 -0.1417  0.3765
  176SAPI  H15X20101   1.783   0.760   8.396  1.2942 -1.4349 -0.4822
  176SAPI  H15Y20102   1.785   0.688   8.558 -1.0066 -1.2458  1.1458
  176SAPI  C31620103   1.586   0.733   8.487  0.6716  0.5467  0.7215
  176SAPI  H16X20104   1.528   0.653   8.539 -0.4256  0.4357 -0.6461
  176SAPI  H16Y20105   1.547   0.734   8.383  0.9444 -0.0492  0.6131
  176SAPI  C31720106   1.586   0.869   8.562  0.4065 -0.1549  0.1328
  176SAPI  H17X20107   1.664   0.932   8.515  2.0935 -1.6113  0.9306
  176SAPI  H17Y20108   1.600   0.867   8.672 -4.6413 -1.1841  0.8953
  176SAPI  C31820109   1.446   0.935   8.531  0.1176  0.5471  0.3657
  176SAPI  H18X20110   1.457   1.044   8.512  1.4640  1.0996  3.9392
  176SAPI  H18Y20111   1.365   0.922   8.607 -1.9574  0.4090 -1.8238
  176SAPI  H18Z20112   1.421   0.894   8.431  1.7168  0.9300 -0.1942
  177SLPC     N20113   0.642   3.914  10.951 -0.2010 -0.9836 -0.2303
  177SLPC   C1320114   0.710   3.870  11.076 -0.3353  0.6152  0.3888
  177SLPC  H13A20115   0.643   3.814  11.140  0.8023 -1.0703  0.1326
  177SLPC  H13B20116   0.789   3.801  11.050  1.2736  1.7484  2.1734
  177SLPC  H13C20117   0.763   3.949  11.126 -1.8663  1.4213  0.7928
  177SLPC   C1420118   0.741   4.003  10.872 -0.3490  0.2023 -0.3383
  177SLPC  H14A20119   0.832   3.948  10.854 -0.4154 -0.7068  1.9133
  177SLPC  H14B20120   0.700   4.038  10.778  0.4599 -0.7903 -1.0653
  177SLPC  H14C20121   0.762   4.086  10.939  0.6184 -0.1925 -0.1451
  177SLPC   C1520122   0.521   4.006  10.980  0.3015  0.5076  1.3338
  177SLPC  H15A20123   0.480   4.040  10.886  0.6021  0.8120  1.3142
  177SLPC  H15B20124   0.445   3.941  11.021 -0.6506 -0.4987 -1.9135
  177SLPC  H15C20125   0.546   4.092  11.039 -0.0883  1.9856 -0.6219
  177SLPC   C1220126   0.590   3.791  10.871  0.7450  0.2831 -0.2613
  177SLPC  H12A20127   0.671   3.725  10.843 -1.6982 -2.6475 -0.6602
  177SLPC  H12B20128   0.543   3.824  10.779 -0.6904  1.1462  0.7585
  177SLPC   C1120129   0.486   3.698  10.951  0.1209 -0.4760 -0.2785
  177SLPC  H11A20130   0.421   3.647  10.878  0.7049 -1.2684 -0.2527
  177SLPC  H11B20131   0.431   3.767  11.018 -2.4925 -2.8351  0.0743
  177SLPC     P20132   0.626   3.480  10.961  0.7210 -0.1169 -0.2104
  177SLPC   O1320133   0.764   3.463  11.017 -0.4830  0.7426  0.0164
  177SLPC   O1420134   0.537   3.365  10.979  0.2509  0.3765 -0.0947
  177SLPC   O1220135   0.559   3.604  11.027 -0.6566  0.7120  0.3681
  177SLPC   O1120136   0.640   3.519  10.804  0.1717 -0.2020  0.7303
  177SLPC    C120137   0.546   3.482  10.706 -0.7492 -0.3866 -0.0726
  177SLPC    HA20138   0.534   3.372  10.714 -1.4180 -0.4195 -1.3204
  177SLPC    HB20139   0.452   3.543  10.708  0.1687  1.0791 -0.8770
  177SLPC    C220140   0.605   3.502  10.562 -0.0431  1.3894 -0.3647
  177SLPC    HS20141   0.678   3.419  10.557 -0.8635  0.6967 -1.2499
  177SLPC   O2120142   0.667   3.628  10.543 -0.6033 -0.0391  0.7270
  177SLPC   C2120143   0.798   3.629  10.581 -0.8551  0.1455 -0.1437
  177SLPC   O2220144   0.857   3.528  10.631 -0.3839  0.2108 -0.0630
  177SLPC   C2220145   0.878   3.757  10.566 -0.6272  0.2736  0.1020
  177SLPC   H2R20146   0.807   3.843  10.569 -0.8647  0.0588  4.4548
  177SLPC   H2S20147   0.927   3.772  10.665  0.0017  1.0316 -0.3247
  177SLPC    C320148   0.494   3.478  10.452  0.5783  0.0456  0.4265
  177SLPC    HX20149   0.409   3.549  10.459  0.0739 -0.5036 -0.1105
  177SLPC    HY20150   0.457   3.374  10.468 -1.6253  0.4581 -1.8423
  177SLPC   O3120151   0.547   3.481  10.315  0.8665 -0.1562  0.1394
  177SLPC   C3120152   0.468   3.555  10.225  0.2386 -0.2711  0.3959
  177SLPC   O3220153   0.354   3.593  10.249  0.1776  0.0422 -0.1605
  177SLPC   C3220154   0.542   3.562  10.085  0.8791  0.3542 -0.6515
  177SLPC   H2X20155   0.579   3.460  10.060 -0.7651 -0.2560 -0.6513
  177SLPC   H2Y20156   0.630   3.629  10.094 -0.0324  1.4419  0.3509
  177SLPC   C2320157   0.968   3.748  10.444  0.1713  0.1435  0.5802
  177SLPC   H3R20158   1.029   3.655  10.444  0.2226  0.1758  1.6648
  177SLPC   H3S20159   1.035   3.836  10.434 -3.2530  2.4870 -3.7925
  177SLPC   C2420160   0.877   3.767  10.319 -0.3367 -0.8840  0.0853
  177SLPC   H4R20161   0.800   3.843  10.343  2.3444  1.6872  0.8752
  177SLPC   H4S20162   0.834   3.666  10.303 -2.2768 -0.0525 -0.0851
  177SLPC   C2520163   0.947   3.820  10.190 -0.4422 -0.4769 -0.4328
  177SLPC   H5R20164   1.033   3.754  10.163  0.6570  0.1276  1.4577
  177SLPC   H5S20165   0.996   3.915  10.221 -0.8470 -0.0955 -0.9556
  177SLPC   C2620166   0.854   3.833  10.074 -0.4715  0.2480 -0.2011
  177SLPC   H6R20167   0.782   3.912  10.105  0.0357  0.7135 -0.1920
  177SLPC   H6S20168   0.801   3.737  10.063  0.5407 -0.3503  0.0339
  177SLPC   C2720169   0.915   3.871   9.938  0.2758 -1.1495 -0.3215
  177SLPC   H7R20170   1.007   3.811   9.920  0.7136 -0.3565 -0.7667
  177SLPC   H7S20171   0.950   3.976   9.943 -0.6231 -0.8695  0.1642
  177SLPC   C2820172   0.810   3.856   9.827 -0.0496  0.8194  0.1645
  177SLPC   H8R20173   0.820   3.937   9.752 -2.3138  1.5786  0.6562
  177SLPC   H8S20174   0.716   3.880   9.881 -1.2441 -2.2192 -0.4705
  177SLPC   C2920175   0.795   3.716   9.770 -0.4616  0.1453  1.2148
  177SLPC   H9R20176   0.769   3.639   9.844  0.7634 -1.6967 -0.2382
  177SLPC  C21020177   0.813   3.691   9.639  0.1732  0.2695 -0.6491
  177SLPC  H10R20178   0.794   3.593   9.593 -2.0653  0.6743 -0.6390
  177SLPC  C21120179   0.846   3.793   9.528 -0.0388  0.7075 -0.6506
  177SLPC  H11R20180   0.781   3.883   9.532  0.2757  0.8519  2.2826
  177SLPC  H11S20181   0.949   3.831   9.541  0.3867 -0.7226  0.2682
  177SLPC  C21220182   0.839   3.755   9.382  0.2153  0.1404  0.1877
  177SLPC  H12R20183   0.741   3.726   9.340  0.8865 -1.5270 -0.2519
  177SLPC  C21320184   0.935   3.750   9.288 -0.5451 -0.5533  0.3788
  177SLPC  H13R20185   0.894   3.715   9.192 -3.0372 -0.4885  1.3897
  177SLPC  C21420186   1.082   3.784   9.298  0.1240 -0.6340  0.1360
  177SLPC  H14R20187   1.143   3.698   9.263 -0.6490 -1.0755 -0.1266
  177SLPC  H14S20188   1.106   3.812   9.403 -3.6169  0.0491  0.8735
  177SLPC  C21520189   1.107   3.893   9.193 -0.4192 -0.5964  0.5071
  177SLPC  H15R20190   1.213   3.921   9.206  0.0827 -2.1205 -0.0852
  177SLPC  H15S20191   1.038   3.979   9.186  0.8034  0.3488 -0.1975
  177SLPC  C21620192   1.106   3.839   9.043 -0.2521  0.5657  0.7429
  177SLPC  H16R20193   1.003   3.859   9.004 -0.1729  0.5783  0.5400
  177SLPC  H16S20194   1.130   3.731   9.051 -0.4605  0.6881  3.3527
  177SLPC  C21720195   1.206   3.908   8.950 -0.2328  0.4253 -0.4374
  177SLPC  H17R20196   1.311   3.886   8.979 -0.6891 -0.2893  0.7031
  177SLPC  H17S20197   1.183   4.016   8.934  0.4459  0.3764 -1.8275
  177SLPC  C21820198   1.186   3.841   8.818 -0.0049  0.1548 -0.1224
  177SLPC  H18R20199   1.227   3.738   8.820 -1.1115 -0.3382 -1.9108
  177SLPC  H18S20200   1.255   3.889   8.745 -0.5969 -2.1260 -2.2235
  177SLPC  H18T20201   1.086   3.830   8.772 -0.4176  1.9190  0.3000
  177SLPC   C3320202   0.446   3.613   9.976 -0.2790 -0.2773  0.1834
  177SLPC   H3X20203   0.453   3.723   9.966  1.7649 -0.3470  0.6736
  177SLPC   H3Y20204   0.340   3.588   9.998  0.0591 -0.9107  1.1614
  177SLPC   C3420205   0.479   3.538   9.846 -0.1148  0.1360 -0.1361
  177SLPC   H4X20206   0.436   3.436   9.845 -1.8283  0.8528 -2.3985
  177SLPC   H4Y20207   0.589   3.530   9.827 -0.1768  0.4937 -0.6676
  177SLPC   C3520208   0.439   3.612   9.719 -0.2940  0.5407  1.0366
  177SLPC   H5X20209   0.511   3.696   9.720 -0.9691  1.1201  0.9803
  177SLPC   H5Y20210   0.333   3.645   9.714 -1.3075 -2.7096 -0.5520
  177SLPC   C3620211   0.470   3.521   9.598  0.2223 -0.1069  0.4671
  177SLPC   H6X20212   0.421   3.424   9.617 -1.1074  0.5543  0.4581
  177SLPC   H6Y20213   0.581   3.511   9.594  0.4652  1.7584  1.4922
  177SLPC   C3720214   0.431   3.595   9.466 -0.1503  0.6356  0.1721
  177SLPC   H7X20215   0.432   3.706   9.477  1.0871  0.5196  1.3088
  177SLPC   H7Y20216   0.331   3.571   9.424 -0.0133 -1.0234  0.7769
  177SLPC   C3820217   0.526   3.562   9.348  0.0393 -0.1114  0.2641
  177SLPC   H8X20218   0.503   3.456   9.325 -0.4128 -0.6609  3.0255
  177SLPC   H8Y20219   0.633   3.568   9.376  0.4986 -3.2088 -0.6650
  177SLPC   C3920220   0.495   3.645   9.227 -0.1713 -0.6388  0.4317
  177SLPC   H9X20221   0.517   3.749   9.256  0.0634 -0.7740  0.7332
  177SLPC   H9Y20222   0.389   3.634   9.196 -0.4820  4.5704 -0.8110
  177SLPC  C31020223   0.574   3.606   9.102  0.4201 -1.0196  0.3328
  177SLPC  H10X20224   0.563   3.497   9.084  2.0136 -0.9688 -1.1509
  177SLPC  H10Y20225   0.683   3.616   9.118  0.4239  0.2949 -0.4837
  177SLPC  C31120226   0.549   3.687   8.970  0.0562 -0.3855 -0.4227
  177SLPC  H11X20227   0.594   3.784   9.000  1.6153 -2.3646  4.0620
  177SLPC  H11Y20228   0.439   3.686   8.952 -0.0022 -0.3516 -0.0726
  177SLPC  C31220229   0.623   3.629   8.850 -0.1588 -0.5042  0.7847
  177SLPC  H12X20230   0.612   3.519   8.849 -1.3731 -0.4021 -1.1314
  177SLPC  H12Y20231   0.732   3.648   8.860 -0.2656  0.4008  0.3420
  177SLPC  C31320232   0.581   3.676   8.708 -0.2245  0.0285 -0.1448
  177SLPC  H13X20233   0.572   3.785   8.689  1.6749 -0.0239 -1.4922
  177SLPC  H13Y20234   0.481   3.636   8.678 -0.9548  1.5816  0.1339
  177SLPC  C31420235   0.683   3.615   8.604 -0.5492  0.3222 -0.1468
  177SLPC  H14X20236   0.687   3.504   8.612  1.6543  0.3784 -0.2654
  177SLPC  H14Y20237   0.782   3.660   8.625 -0.6792  0.4924  0.0982
  177SLPC  C31520238   0.650   3.621   8.458  0.1207 -0.3584 -0.1858
  177SLPC  H15X20239   0.546   3.581   8.445  0.1340 -0.8244  1.0685
  177SLPC  H15Y20240   0.713   3.549   8.402  0.1530 -0.3739 -0.1297
  177SLPC  C31620241   0.667   3.760   8.390  0.4174 -0.5138  0.0391
  177SLPC  H16X20242   0.773   3.786   8.411  0.4141 -0.9866  0.6857
  177SLPC  H16Y20243   0.613   3.821   8.465 -0.6365 -1.5965  0.1827
  177SLPC  C31720244   0.613   3.774   8.249  0.1222 -0.5027 -0.1075
  177SLPC  H17X20245   0.624   3.881   8.220 -1.3070 -0.0678  0.9001
  177SLPC  H17Y20246   0.506   3.746   8.236 -0.1389  0.1535  0.5891
  177SLPC  C31820247   0.678   3.689   8.142  0.2170 -0.1008  0.7488
  177SLPC  H18X20248   0.675   3.581   8.168  1.8300 -0.2180  0.5070
  177SLPC  H18Y20249   0.783   3.720   8.123 -0.0131  0.1412 -0.1451
  177SLPC  H18Z20250   0.629   3.707   8.043  2.2468  1.7365  0.0436
  178SLPC     N20251   2.312   5.314  10.818  0.2859  0.5719 -0.1054
  178SLPC   C1320252   2.433   5.366  10.747  0.2328  0.1250 -0.3774
  178SLPC  H13A20253   2.490   5.281  10.713 -0.2639 -0.9015  1.2616
  178SLPC  H13B20254   2.414   5.439  10.670 -1.2429 -0.9567 -1.0625
  178SLPC  H13C20255   2.484   5.416  10.828 -1.0644 -1.4120  1.4570
  178SLPC   C1420256   2.344   5.192  10.904 -0.1958  0.4130  0.1946
  178SLPC  H14A20257   2.254   5.135  10.922  0.5403 -1.0852 -0.7660
  178SLPC  H14B20258   2.413   5.119  10.865 -0.0558  1.1295 -0.9035
  178SLPC  H14C20259   2.385   5.223  10.999 -0.4431 -2.0165  1.1155
  178SLPC   C1520260   2.218   5.265  10.719 -0.3472  0.1219  0.3499
  178SLPC  H15A20261   2.223   5.321  10.627  1.1027 -0.4852  0.0402
  178SLPC  H15B20262   2.246   5.163  10.697  1.2720 -0.2763  3.8898
  178SLPC  H15C20263   2.118   5.270  10.759  0.4670  1.4517  2.2862
  178SLPC   C1220264   2.244   5.415  10.901 -0.0475 -0.2618 -0.6480
  178SLPC  H12A20265   2.164   5.362  10.950  1.8523 -0.9076  1.8585
  178SLPC  H12B20266   2.191   5.475  10.829  0.1332  2.3884  1.3788
  178SLPC   C1120267   2.330   5.492  11.001  0.0715  0.3016  0.5420
  178SLPC  H11A20268   2.387   5.422  11.066 -0.1854  0.1067  0.5609
  178SLPC  H11B20269   2.267   5.547  11.075 -1.1818 -1.0166  0.4932
  178SLPC     P20270   2.488   5.708  10.985  0.0173 -0.0331 -0.3287
  178SLPC   O1320271   2.483   5.720  11.132 -0.2709  0.8838 -0.4265
  178SLPC   O1420272   2.627   5.727  10.928  0.0808 -0.1740  0.6244
  178SLPC   O1220273   2.417   5.581  10.940 -0.5120  0.0501 -0.5282
  178SLPC   O1120274   2.407   5.828  10.916  0.3056 -0.1064 -0.2816
  178SLPC    C120275   2.316   5.792  10.809  0.1208 -0.2583 -0.7819
  178SLPC    HA20276   2.238   5.719  10.841  2.1874 -2.2525 -0.1666
  178SLPC    HB20277   2.264   5.886  10.782  1.4167  1.0699  1.2362
  178SLPC    C220278   2.383   5.736  10.683  0.2418  0.2902 -0.3347
  178SLPC    HS20279   2.410   5.629  10.696  0.8054  0.5287  0.4622
  178SLPC   O2120280   2.493   5.820  10.658 -0.3957 -0.2776  0.2787
  178SLPC   C2120281   2.584   5.778  10.582 -0.9681 -0.0772  0.3637
  178SLPC   O2220282   2.594   5.662  10.542 -0.4573  0.4734  0.0106
  178SLPC   C2220283   2.686   5.884  10.565  0.2859 -0.0292 -0.1789
  178SLPC   H2R20284   2.642   5.966  10.504  0.7838 -0.5076 -1.1915
  178SLPC   H2S20285   2.711   5.923  10.666 -1.7810 -0.4569  0.5405
  178SLPC    C320286   2.274   5.740  10.560 -0.1963  0.0629 -0.5615
  178SLPC    HX20287   2.233   5.843  10.564 -3.6231 -1.3128  2.5798
  178SLPC    HY20288   2.192   5.669  10.581 -1.0052 -0.2275 -4.3485
  178SLPC   O3120289   2.340   5.724  10.436 -0.5760  1.3393 -0.2302
  178SLPC   C3120290   2.343   5.596  10.392 -0.6562 -0.1569 -0.2529
  178SLPC   O3220291   2.298   5.500  10.455  0.1314  0.3352  0.5941
  178SLPC   C3220292   2.407   5.586  10.255  0.5842 -0.4988  0.1729
  178SLPC   H2X20293   2.492   5.657  10.257  0.6771 -0.6025 -0.2513
  178SLPC   H2Y20294   2.328   5.619  10.184  0.5181 -0.0153  0.4722
  178SLPC   C2320295   2.812   5.819  10.505  0.6274 -1.1318  0.5312
  178SLPC   H3R20296   2.781   5.753  10.422  2.0168 -0.4894 -0.5143
  178SLPC   H3S20297   2.863   5.758  10.582  0.3628  0.8744  2.3483
  178SLPC   C2420298   2.921   5.926  10.465 -0.2576  1.2212  0.3603
  178SLPC   H4R20299   3.004   5.865  10.424 -2.8251  0.5349 -4.2539
  178SLPC   H4S20300   2.952   5.983  10.555  0.8438  1.0827  0.0825
  178SLPC   C2520301   2.881   6.027  10.347  0.6815  0.7912 -0.1250
  178SLPC   H5R20302   2.964   6.101  10.356  1.0354  0.2657  0.9211
  178SLPC   H5S20303   2.797   6.097  10.368  0.1958  0.3504 -0.6049
  178SLPC   C2620304   2.858   5.971  10.204 -0.4616 -1.0952  0.1062
  178SLPC   H6R20305   2.933   5.893  10.179 -2.3539 -3.0756  0.5013
  178SLPC   H6S20306   2.871   6.061  10.140  1.3565 -1.3976  0.0201
  178SLPC   C2720307   2.715   5.922  10.176 -0.0556  0.3672 -0.2513
  178SLPC   H7R20308   2.649   6.002  10.216  1.7430  1.1886  1.0861
  178SLPC   H7S20309   2.697   5.828  10.232  0.3815 -0.3747 -1.3278
  178SLPC   C2820310   2.658   5.900  10.033  0.5242 -0.2128 -0.5890
  178SLPC   H8R20311   2.667   6.003   9.993  0.3848  0.6012  1.4436
  178SLPC   H8S20312   2.552   5.870  10.048  0.7053  0.3044  1.8250
  178SLPC   C2920313   2.730   5.794   9.956 -0.1060 -0.2564  0.6878
  178SLPC   H9R20314   2.755   5.706  10.017 -1.3320 -1.4587 -0.5118
  178SLPC  C21020315   2.771   5.805   9.826 -0.2852  0.2203 -0.4037
  178SLPC  H10R20316   2.813   5.714   9.781 -0.6273 -0.1912  0.0929
  178SLPC  C21120317   2.754   5.921   9.728 -0.0701  0.2681 -0.7322
  178SLPC  H11R20318   2.702   6.008   9.774 -1.6485  0.3747 -2.6163
  178SLPC  H11S20319   2.690   5.878   9.648 -1.9881  0.6961  0.5378
  178SLPC  C21220320   2.888   5.946   9.657  0.0821  1.0659  0.4200
  178SLPC  H12R20321   2.946   6.019   9.715 -0.1460  2.6338 -1.3003
  178SLPC  C21320322   2.938   5.885   9.547  0.4966  0.1222 -0.3576
  178SLPC  H13R20323   3.039   5.916   9.517 -0.5041  1.4811 -2.4771
  178SLPC  C21420324   2.872   5.779   9.460 -0.0142  0.0596 -0.1137
  178SLPC  H14R20325   2.799   5.729   9.527  0.2569  1.0843  0.9557
  178SLPC  H14S20326   2.957   5.712   9.435 -0.3574  0.5812 -2.8934
  178SLPC  C21520327   2.793   5.835   9.335  0.0630 -0.0959 -0.0384
  178SLPC  H15R20328   2.697   5.886   9.357 -0.8617 -0.2721 -3.3974
  178SLPC  H15S20329   2.769   5.742   9.278  0.3046 -0.7192  0.8678
  178SLPC  C21620330   2.872   5.930   9.244 -1.1148  0.6210 -0.4401
  178SLPC  H16R20331   2.936   5.870   9.176 -0.3270 -2.2747  2.7140
  178SLPC  H16S20332   2.938   5.996   9.303 -0.0154 -1.3671  0.6199
  178SLPC  C21720333   2.782   6.011   9.147  0.0559 -0.8194  0.2814
  178SLPC  H17R20334   2.843   6.100   9.121 -1.8036  0.2890 -0.3348
  178SLPC  H17S20335   2.688   6.058   9.182 -0.2435 -1.7982  0.8016
  178SLPC  C21820336   2.737   5.927   9.025  0.0631  0.3134 -0.1204
  178SLPC  H18R20337   2.817   5.862   8.982 -0.7236 -1.0819  0.4968
  178SLPC  H18S20338   2.698   5.991   8.943  0.5288  0.4611 -0.2305
  178SLPC  H18T20339   2.657   5.857   9.057  0.5886  0.2303  1.0255
  178SLPC   C3320340   2.452   5.442  10.220  0.1241 -0.2625 -0.1801
  178SLPC   H3X20341   2.364   5.374  10.208 -0.2916  0.2575 -0.0914
  178SLPC   H3Y20342   2.510   5.413  10.310  2.1891  3.0665 -0.3670
  178SLPC   C3420343   2.545   5.445  10.101 -0.2905  0.0290  0.0482
  178SLPC   H4X20344   2.603   5.350  10.106 -4.9588 -2.9625  0.4699
  178SLPC   H4Y20345   2.609   5.536  10.107 -1.9752  1.4668 -2.6683
  178SLPC   C3520346   2.462   5.460   9.969 -0.3126  0.5752 -0.5984
  178SLPC   H5X20347   2.377   5.532   9.978 -1.5453 -1.0005  0.5585
  178SLPC   H5Y20348   2.423   5.357   9.959  0.6257  0.2397 -0.8029
  178SLPC   C3620349   2.548   5.496   9.857  0.6412 -0.2336 -0.3874
  178SLPC   H6X20350   2.623   5.415   9.849  2.2266  1.1906 -0.1809
  178SLPC   H6Y20351   2.609   5.586   9.883  0.5548  0.0585 -1.1856
  178SLPC   C3720352   2.472   5.518   9.731  0.0733 -0.2573  0.7165
  178SLPC   H7X20353   2.393   5.594   9.751  0.3617  0.2459 -0.0381
  178SLPC   H7Y20354   2.437   5.417   9.701 -1.2165  1.1106 -2.6395
  178SLPC   C3820355   2.558   5.568   9.617 -0.3667  0.6959  0.2809
  178SLPC   H8X20356   2.639   5.493   9.611 -0.8862  0.3150 -2.7914
  178SLPC   H8Y20357   2.601   5.669   9.637  0.4897  0.4661 -0.3770
  178SLPC   C3920358   2.488   5.574   9.484  0.0209 -0.1075 -0.6075
  178SLPC   H9X20359   2.448   5.675   9.462 -2.4845 -0.8029  0.6277
  178SLPC   H9Y20360   2.406   5.499   9.491 -0.3564  0.4932  1.7566
  178SLPC  C31020361   2.575   5.546   9.360 -0.3560  0.4840 -0.0238
  178SLPC  H10X20362   2.612   5.441   9.370 -2.0101 -0.3262 -2.0642
  178SLPC  H10Y20363   2.670   5.603   9.372 -1.0147  2.0497 -1.9012
  178SLPC  C31120364   2.509   5.560   9.215  0.5970  0.0305  0.3449
  178SLPC  H11X20365   2.470   5.664   9.215 -0.0747 -0.2217 -0.6124
  178SLPC  H11Y20366   2.422   5.491   9.211 -0.3707  0.9129  3.8587
  178SLPC  C31220367   2.600   5.519   9.096  0.3624 -0.0849 -0.4012
  178SLPC  H12X20368   2.634   5.415   9.113 -1.9492 -1.2027 -2.3641
  178SLPC  H12Y20369   2.697   5.568   9.120  0.3633 -0.2049 -0.1600
  178SLPC  C31320370   2.521   5.545   8.964 -0.0657  0.2355  0.3956
  178SLPC  H13X20371   2.499   5.653   8.962  2.4054  0.7296 -1.5306
  178SLPC  H13Y20372   2.433   5.477   8.960 -0.5263  0.8684 -0.2280
  178SLPC  C31420373   2.611   5.529   8.838 -0.0128  0.2244 -0.5009
  178SLPC  H14X20374   2.661   5.431   8.851  1.1904  1.0423  1.4531
  178SLPC  H14Y20375   2.691   5.607   8.837  1.5416 -1.2106  2.3988
  178SLPC  C31520376   2.528   5.543   8.707 -0.2174 -0.7316  0.5206
  178SLPC  H15X20377   2.473   5.448   8.691  1.0996 -1.7112  1.7785
  178SLPC  H15Y20378   2.459   5.626   8.733  0.3551  0.2552 -1.0004
  178SLPC  C31620379   2.606   5.586   8.589  0.3645 -0.4368 -0.9780
  178SLPC  H16X20380   2.664   5.675   8.620 -0.7332  0.3047 -1.0178
  178SLPC  H16Y20381   2.548   5.602   8.495  0.3841  0.8177 -0.7768
  178SLPC  C31720382   2.700   5.482   8.550  0.0980 -0.0199 -0.1292
  178SLPC  H17X20383   2.636   5.398   8.513  0.5322 -0.5268  0.2587
  178SLPC  H17Y20384   2.763   5.455   8.638 -0.9516 -3.6443 -0.4004
  178SLPC  C31820385   2.790   5.508   8.430  0.2184 -0.7335  0.4765
  178SLPC  H18X20386   2.835   5.610   8.436  1.3312 -1.2959  2.3429
  178SLPC  H18Y20387   2.735   5.498   8.334 -0.6019  0.4258  0.8034
  178SLPC  H18Z20388   2.873   5.434   8.434  0.0691 -1.0309 -1.6322
  179SLPC     N20389   5.039   2.237  10.237 -0.2981 -0.0494  0.4453
  179SLPC   C1320390   5.121   2.158  10.139 -0.2799 -0.3456  0.3850
  179SLPC  H13A20391   5.188   2.087  10.185 -1.5034 -2.9373 -1.7235
  179SLPC  H13B20392   5.060   2.100  10.071  0.2802 -1.4744  0.8330
  179SLPC  H13C20393   5.179   2.227  10.079 -1.4821  0.7132  0.4145
  179SLPC   C1420394   4.952   2.333  10.171 -0.5728 -0.0496 -0.1664
  179SLPC  H14A20395   4.991   2.433  10.179 -1.5902  0.1972  1.8305
  179SLPC  H14B20396   4.917   2.297  10.075 -3.6505 -1.1830  1.3132
  179SLPC  H14C20397   4.861   2.339  10.229 -1.5533 -0.8889 -1.5494
  179SLPC   C1520398   5.130   2.317  10.324 -0.2791  0.7760  0.6306
  179SLPC  H15A20399   5.238   2.315  10.312 -0.3009 -0.7489  0.6387
  179SLPC  H15B20400   5.109   2.422  10.310 -3.2911  0.0516 -0.6101
  179SLPC  H15C20401   5.109   2.284  10.425 -1.1585  1.8154  0.7967
  179SLPC   C1220402   4.960   2.145  10.322 -0.3960 -0.0494  0.3616
  179SLPC  H12A20403   5.047   2.095  10.362  0.5291  1.6866  0.5892
  179SLPC  H12B20404   4.902   2.079  10.259  1.3186  0.4260 -1.7695
  179SLPC   C1120405   4.879   2.205  10.436  0.9042 -0.4798 -0.3815
  179SLPC  H11A20406   4.935   2.269  10.508 -3.3621  4.1614 -0.9364
  179SLPC  H11B20407   4.837   2.120  10.494  0.9735 -0.7753 -0.7664
  179SLPC     P20408   4.641   2.225  10.338  0.2980 -0.1918  0.4410
  179SLPC   O1320409   4.669   2.097  10.268  0.1660  0.3260  0.1570
  179SLPC   O1420410   4.550   2.204  10.454  0.6622  0.4502 -0.2315
  179SLPC   O1220411   4.773   2.293  10.386  0.5354  0.4988 -0.5923
  179SLPC   O1120412   4.595   2.339  10.239 -0.2871 -0.3419 -0.4587
  179SLPC    C120413   4.553   2.458  10.297  0.0833  0.1203 -0.4825
  179SLPC    HA20414   4.512   2.446  10.400 -1.9285  1.4396 -1.1059
  179SLPC    HB20415   4.642   2.525  10.300  1.3876 -1.5979  0.3085
  179SLPC    C220416   4.453   2.527  10.197  0.5348 -0.9502 -0.3091
  179SLPC    HS20417   4.350   2.484  10.197 -0.2844  0.9449  0.8356
  179SLPC   O2120418   4.504   2.544  10.064  0.0654  0.0056 -0.0674
  179SLPC   C2120419   4.467   2.432   9.994 -0.1273  0.4559 -0.0834
  179SLPC   O2220420   4.387   2.348  10.034  0.2707  0.1729  0.3029
  179SLPC   C2220421   4.515   2.437   9.849 -0.2819  0.3437 -0.1694
  179SLPC   H2R20422   4.520   2.541   9.810 -1.9889  0.2434 -0.6778
  179SLPC   H2S20423   4.618   2.397   9.862 -0.6012  0.0393  1.5378
  179SLPC    C320424   4.411   2.664  10.259 -0.4719 -1.0909  0.1044
  179SLPC    HX20425   4.490   2.727  10.212 -0.8289 -0.5682  0.2063
  179SLPC    HY20426   4.412   2.668  10.370  1.3952 -1.0954  0.1155
  179SLPC   O3120427   4.290   2.720  10.206  0.0935 -0.5088 -0.2116
  179SLPC   C3120428   4.187   2.699  10.274 -0.6829  0.0303 -0.7075
  179SLPC   O3220429   4.186   2.652  10.393 -0.3486  0.1365 -1.0523
  179SLPC   C3220430   4.061   2.739  10.189  0.3871 -0.3669 -0.5209
  179SLPC   H2X20431   4.090   2.819  10.118  3.3955 -0.0696  0.9674
  179SLPC   H2Y20432   3.992   2.779  10.266  0.8111 -1.9833  0.7317
  179SLPC   C2320433   4.447   2.342   9.756  0.6197  0.0690  0.1002
  179SLPC   H3R20434   4.337   2.361   9.752  0.5389 -0.3023  0.5145
  179SLPC   H3S20435   4.458   2.234   9.778 -0.8417 -0.2352 -0.5737
  179SLPC   C2420436   4.497   2.369   9.608 -0.4380 -0.0002 -0.0815
  179SLPC   H4R20437   4.607   2.355   9.600 -0.5387 -0.1183 -1.3339
  179SLPC   H4S20438   4.487   2.479   9.595 -0.6524  0.3063  2.3872
  179SLPC   C2520439   4.412   2.295   9.512 -0.0048  0.3561 -0.8382
  179SLPC   H5R20440   4.307   2.331   9.517  0.0473  0.1419  3.1255
  179SLPC   H5S20441   4.410   2.187   9.540 -0.4569  0.4385 -0.5491
  179SLPC   C2620442   4.452   2.308   9.368  0.4889 -0.7264 -0.8580
  179SLPC   H6R20443   4.562   2.292   9.365  0.6868  0.7946 -3.1839
  179SLPC   H6S20444   4.435   2.414   9.339  0.9468 -0.5642 -0.5294
  179SLPC   C2720445   4.371   2.213   9.276  0.7989 -0.3664 -0.1568
  179SLPC   H7R20446   4.286   2.270   9.233  1.3204 -1.5403 -2.8764
  179SLPC   H7S20447   4.338   2.120   9.327  0.4654 -0.7280 -1.0195
  179SLPC   C2820448   4.464   2.144   9.174  0.0662  0.0576  0.7637
  179SLPC   H8R20449   4.416   2.066   9.111  1.0640 -1.3029  1.6534
  179SLPC   H8S20450   4.552   2.103   9.229  0.4404  2.4665  2.0157
  179SLPC   C2920451   4.518   2.239   9.069  0.1550 -0.2296  0.3660
  179SLPC   H9R20452   4.556   2.332   9.114  0.9303  0.6484 -2.0582
  179SLPC  C21020453   4.535   2.228   8.939  0.1190 -0.2979  0.3114
  179SLPC  H10R20454   4.572   2.318   8.887  1.5082 -0.3897  1.1181
  179SLPC  C21120455   4.507   2.110   8.851 -0.8014  0.2983 -0.2154
  179SLPC  H11R20456   4.438   2.031   8.887 -2.3810  1.5371 -0.4737
  179SLPC  H11S20457   4.602   2.055   8.838  0.1130  2.3969 -2.9811
  179SLPC  C21220458   4.469   2.127   8.709 -0.1124 -0.6284  0.1680
  179SLPC  H12R20459   4.381   2.071   8.675 -1.0552  2.3666 -2.5011
  179SLPC  C21320460   4.525   2.189   8.607 -0.8635  0.2154  0.5604
  179SLPC  H13R20461   4.481   2.177   8.508  0.2694 -1.3179  0.2301
  179SLPC  C21420462   4.657   2.266   8.614 -0.3673  0.4705 -1.0821
  179SLPC  H14R20463   4.740   2.199   8.583  0.1536 -0.8168  2.8567
  179SLPC  H14S20464   4.689   2.296   8.716  2.1551 -1.9495 -1.1208
  179SLPC  C21520465   4.654   2.385   8.519  0.7865  0.6086 -0.5334
  179SLPC  H15R20466   4.615   2.350   8.421  0.9720  0.8769 -0.7040
  179SLPC  H15S20467   4.759   2.420   8.510  1.0342 -0.1698 -0.7655
  179SLPC  C21620468   4.563   2.499   8.574 -0.6340 -0.3778 -0.2550
  179SLPC  H16R20469   4.618   2.550   8.656 -2.0610  0.9789 -0.1044
  179SLPC  H16S20470   4.471   2.457   8.621  0.3062  0.1574  2.1505
  179SLPC  C21720471   4.536   2.618   8.477 -0.4041 -0.0623  0.5185
  179SLPC  H17R20472   4.451   2.676   8.518 -1.9792 -2.2486  0.4528
  179SLPC  H17S20473   4.489   2.587   8.381  1.5183  0.9383 -0.7906
  179SLPC  C21820474   4.659   2.700   8.450  0.0317 -0.0339 -0.2661
  179SLPC  H18R20475   4.626   2.790   8.393 -0.4225 -0.3356 -0.4829
  179SLPC  H18S20476   4.743   2.647   8.402  1.5043  1.1693  0.9371
  179SLPC  H18T20477   4.693   2.740   8.548  1.1000  1.3574 -1.1919
  179SLPC   C3320478   4.001   2.612  10.131 -0.3055 -0.0005  0.3670
  179SLPC   H3X20479   3.902   2.653  10.101  0.6866  2.3547  0.1229
  179SLPC   H3Y20480   3.989   2.531  10.205 -0.1165  0.2649  0.6935
  179SLPC   C3420481   4.068   2.548  10.005  0.0929  0.0086 -0.5621
  179SLPC   H4X20482   4.013   2.452   9.985  0.8019 -0.2695 -1.2141
  179SLPC   H4Y20483   4.176   2.530  10.018  0.5642  1.0703 -2.7483
  179SLPC   C3520484   4.058   2.630   9.881 -1.1247 -0.7615 -0.3538
  179SLPC   H5X20485   4.105   2.731   9.886 -0.3652 -1.0375 -1.8141
  179SLPC   H5Y20486   3.950   2.641   9.857 -0.3376  2.5512 -2.7241
  179SLPC   C3620487   4.125   2.566   9.759 -0.6302  0.0469 -0.3062
  179SLPC   H6X20488   4.075   2.468   9.741 -1.1285  0.4435 -1.1055
  179SLPC   H6Y20489   4.231   2.540   9.779 -0.1896  1.6921 -0.5106
  179SLPC   C3720490   4.125   2.668   9.640 -0.0200 -0.0058 -0.2409
  179SLPC   H7X20491   4.194   2.754   9.652 -2.3691  1.9338 -0.1694
  179SLPC   H7Y20492   4.021   2.708   9.635 -0.4237 -1.0819 -0.5535
  179SLPC   C3820493   4.160   2.598   9.507  0.3522 -0.4483  0.6312
  179SLPC   H8X20494   4.098   2.507   9.487 -0.7914  0.4072  0.2412
  179SLPC   H8Y20495   4.265   2.562   9.505  0.5210  0.0419  0.6843
  179SLPC   C3920496   4.155   2.699   9.389 -0.2291 -0.6925 -0.3665
  179SLPC   H9X20497   4.212   2.792   9.409 -1.0865 -0.3801  0.7147
  179SLPC   H9Y20498   4.048   2.728   9.382 -0.0360 -0.0703 -0.7887
  179SLPC  C31020499   4.207   2.633   9.257  0.2477 -0.1949 -0.7284
  179SLPC  H10X20500   4.136   2.554   9.224  0.9728 -1.0319 -0.2914
  179SLPC  H10Y20501   4.298   2.580   9.289  1.1321  1.0836 -1.0776
  179SLPC  C31120502   4.235   2.738   9.143  0.6591 -0.3092 -0.1180
  179SLPC  H11X20503   4.324   2.798   9.172 -0.2703  1.1712 -0.2692
  179SLPC  H11Y20504   4.151   2.810   9.152 -1.3854 -2.3732 -1.8825
  179SLPC  C31220505   4.238   2.664   9.010 -0.0504 -0.4437  0.3654
  179SLPC  H12X20506   4.152   2.595   8.997 -1.5187  1.5486 -0.8181
  179SLPC  H12Y20507   4.324   2.595   9.016  0.1347 -0.3599 -1.0200
  179SLPC  C31320508   4.264   2.753   8.889 -0.1932 -0.5096 -0.0969
  179SLPC  H13X20509   4.196   2.840   8.897  1.3369  0.6403  0.6177
  179SLPC  H13Y20510   4.241   2.701   8.793  3.7824 -0.6850 -1.0559
  179SLPC  C31420511   4.411   2.812   8.886 -0.3748  0.0185 -0.0527
  179SLPC  H14X20512   4.479   2.727   8.863 -1.9740 -0.7905 -1.9283
  179SLPC  H14Y20513   4.445   2.863   8.979  1.0863  3.0361 -2.1476
  179SLPC  C31520514   4.435   2.910   8.776 -0.0823 -0.0464  0.0340
  179SLPC  H15X20515   4.384   3.004   8.804  2.2901  1.6275 -1.1110
  179SLPC  H15Y20516   4.390   2.862   8.686 -0.0559 -1.6768  0.8703
  179SLPC  C31620517   4.581   2.944   8.741 -0.7154  0.6709  0.1112
  179SLPC  H16X20518   4.626   2.846   8.714  0.2838  1.3348 -0.6225
  179SLPC  H16Y20519   4.638   2.984   8.828 -1.5143  0.2228  0.8494
  179SLPC  C31720520   4.601   3.032   8.623 -0.6027  0.3443  0.5609
  179SLPC  H17X20521   4.701   3.027   8.575  0.2457 -0.1469  2.3675
  179SLPC  H17Y20522   4.600   3.138   8.655  0.3884  0.4305  0.3176
  179SLPC  C31820523   4.496   3.023   8.509 -0.0756  0.1573 -0.0688
  179SLPC  H18X20524   4.396   3.054   8.544  0.2853  2.7848 -1.2423
  179SLPC  H18Y20525   4.482   2.926   8.455 -1.1783  0.5621 -0.5135
  179SLPC  H18Z20526   4.510   3.099   8.430 -3.1087 -1.7980 -2.6281
  180SLPC     N20527   4.981   0.289  11.233  0.4080  0.3021 -0.5609
  180SLPC   C1320528   4.967   0.299  11.383 -0.2484 -0.5804 -0.1836
  180SLPC  H13A20529   4.890   0.240  11.430 -3.6294  3.1256 -0.7977
  180SLPC  H13B20530   5.063   0.290  11.431  0.1593  2.1250 -0.4205
  180SLPC  H13C20531   4.930   0.400  11.391  2.9112  0.9001 -2.8305
  180SLPC   C1420532   5.076   0.401  11.189 -0.3476 -0.2831 -0.0627
  180SLPC  H14A20533   5.177   0.379  11.218 -0.0954 -0.2328 -0.8941
  180SLPC  H14B20534   5.076   0.411  11.082 -0.4367  1.1564  0.0723
  180SLPC  H14C20535   5.037   0.491  11.235 -0.3308 -0.4676  0.3170
  180SLPC   C1520536   4.846   0.324  11.169  0.0646  0.0499  0.1003
  180SLPC  H15A20537   4.805   0.420  11.195  0.2017  0.3571 -0.8089
  180SLPC  H15B20538   4.849   0.316  11.061 -2.9385  1.5956 -0.1518
  180SLPC  H15C20539   4.778   0.242  11.188  1.2172 -1.0546 -0.4590
  180SLPC   C1220540   5.023   0.152  11.183 -0.2581  0.0450  0.7387
  180SLPC  H12A20541   4.955   0.078  11.222  0.2460 -1.3835 -1.0035
  180SLPC  H12B20542   5.121   0.128  11.222  0.4179  0.6621 -0.5292
  180SLPC   C1120543   5.037   0.129  11.024  0.1710  0.0382 -0.1282
  180SLPC  H11A20544   4.945   0.170  10.978 -0.7623 -1.6295  0.1827
  180SLPC  H11B20545   5.044   0.020  11.001 -1.4742 -0.0670 -0.2210
  180SLPC     P20546   5.203   0.184  10.829  0.0277  0.5791  0.0386
  180SLPC   O1320547   5.114   0.268  10.740 -1.0053 -0.0356  0.8077
  180SLPC   O1420548   5.348   0.222  10.838  0.0426 -0.3332  0.5780
  180SLPC   O1220549   5.148   0.193  10.975 -0.6236 -0.1408 -0.1308
  180SLPC   O1120550   5.189   0.029  10.783  0.0979 -0.1294 -0.8477
  180SLPC    C120551   5.074  -0.022  10.712 -0.3386 -0.2826 -0.3925
  180SLPC    HA20552   5.034  -0.111  10.765 -0.0104 -0.6928 -0.8314
  180SLPC    HB20553   4.993   0.054  10.707  0.3081  0.3620 -1.2971
  180SLPC    C220554   5.113  -0.047  10.566 -0.2226  0.2150  0.9117
  180SLPC    HS20555   5.215  -0.089  10.577 -0.5452 -1.1399 -1.0104
  180SLPC   O2120556   5.112   0.081  10.497 -0.5566 -0.4822 -1.0642
  180SLPC   C2120557   5.199   0.097  10.396 -1.4635  0.0827  0.6248
  180SLPC   O2220558   5.296   0.032  10.374 -0.0830  0.5559 -0.2650
  180SLPC   C2220559   5.155   0.214  10.313  0.0698 -0.3574  0.4149
  180SLPC   H2R20560   5.059   0.250  10.355 -0.1242 -0.7664  0.3221
  180SLPC   H2S20561   5.233   0.294  10.315  1.3006 -1.5645  1.5125
  180SLPC    C320562   5.009  -0.148  10.493 -0.1284 -0.7566  0.4122
  180SLPC    HX20563   4.912  -0.100  10.472  0.1118 -0.5605 -0.2477
  180SLPC    HY20564   4.995  -0.240  10.555 -1.0458  0.5370  2.1671
  180SLPC   O3120565   5.057  -0.187  10.369 -0.2344  0.8224 -0.4238
  180SLPC   C3120566   5.167  -0.256  10.352 -0.0305  1.2339  0.6804
  180SLPC   O3220567   5.241  -0.293  10.440 -0.3630  0.0894  0.2112
  180SLPC   C3220568   5.172  -0.301  10.201 -0.0867 -0.2764  0.1852
  180SLPC   H2X20569   5.106  -0.235  10.141 -0.8413 -0.8481  0.3666
  180SLPC   H2Y20570   5.111  -0.394  10.191  3.2415 -2.5315 -0.0391
  180SLPC   C2320571   5.112   0.179  10.161 -0.0387  0.4375 -0.2478
  180SLPC   H3R20572   5.193   0.130  10.104  0.3752  0.2761  0.4781
  180SLPC   H3S20573   5.081   0.271  10.105 -1.2476  0.4923  0.4918
  180SLPC   C2420574   4.991   0.085  10.170 -0.2010  0.1695  0.3652
  180SLPC   H4R20575   4.912   0.117  10.240  0.3706 -1.3914  1.7724
  180SLPC   H4S20576   5.017  -0.009  10.223  2.1836  2.0436  2.6416
  180SLPC   C2520577   4.932   0.063  10.031  0.3445  0.3920  0.2880
  180SLPC   H5R20578   4.929   0.166   9.990 -0.7300  1.2136  2.3635
  180SLPC   H5S20579   4.824   0.037  10.042 -0.4135  2.0736 -2.5486
  180SLPC   C2620580   5.008  -0.033   9.935  1.1103 -0.1842 -0.8330
  180SLPC   H6R20581   5.006  -0.131   9.986  1.4028  0.4448  0.4055
  180SLPC   H6S20582   5.111   0.008   9.924  0.5755  1.5287  0.2088
  180SLPC   C2720583   4.934  -0.037   9.800  0.2639  0.4929 -0.0045
  180SLPC   H7R20584   4.876   0.055   9.777 -1.2633 -0.4150  0.1667
  180SLPC   H7S20585   4.851  -0.110   9.805  0.7280 -0.0425 -0.0755
  180SLPC   C2820586   5.041  -0.065   9.685 -0.8007  0.0162 -0.0150
  180SLPC   H8R20587   5.086  -0.165   9.704 -1.5163 -0.6765 -1.9054
  180SLPC   H8S20588   5.125   0.006   9.689  1.2664 -2.3016 -0.9074
  180SLPC   C2920589   4.989  -0.053   9.548  0.0408  0.4452 -0.4259
  180SLPC   H9R20590   4.943   0.044   9.525 -1.5784 -0.6577 -1.8718
  180SLPC  C21020591   4.988  -0.147   9.451 -0.5116  0.8144  0.9586
  180SLPC  H10R20592   4.967  -0.114   9.348 -0.0815 -0.0045  0.6018
  180SLPC  C21120593   5.047  -0.290   9.447  0.1177 -0.4911 -0.4125
  180SLPC  H11R20594   4.980  -0.351   9.383  2.4820  0.0829 -3.5342
  180SLPC  H11S20595   5.040  -0.338   9.547  0.6710 -2.2899 -1.2156
  180SLPC  C21220596   5.189  -0.294   9.391 -1.1128 -0.4009 -0.2714
  180SLPC  H12R20597   5.241  -0.198   9.374 -3.6332  0.9018 -0.8014
  180SLPC  C21320598   5.263  -0.405   9.368  0.1614 -0.1284  0.1429
  180SLPC  H13R20599   5.367  -0.393   9.334 -0.0964  1.4891 -0.0836
  180SLPC  C21420600   5.216  -0.546   9.375 -0.0768  0.3399 -0.2647
  180SLPC  H14R20601   5.292  -0.616   9.334  0.7903  0.8507  0.4590
  180SLPC  H14S20602   5.119  -0.557   9.321 -0.7653 -1.1736  1.2500
  180SLPC  C21520603   5.210  -0.600   9.519 -0.5310  0.3071 -0.4156
  180SLPC  H15R20604   5.162  -0.699   9.506  1.0325 -0.6041  0.6352
  180SLPC  H15S20605   5.144  -0.530   9.574  0.4331  0.0518  1.0836
  180SLPC  C21620606   5.343  -0.606   9.590  0.6111 -0.8368 -0.0334
  180SLPC  H16R20607   5.383  -0.503   9.599 -2.2227  0.1470  1.7928
  180SLPC  H16S20608   5.404  -0.666   9.520  0.8717 -0.5037 -0.0912
  180SLPC  C21720609   5.349  -0.672   9.729 -0.1345 -0.1292  0.3031
  180SLPC  H17R20610   5.455  -0.680   9.760  0.2651  0.2725 -0.9471
  180SLPC  H17S20611   5.303  -0.773   9.733  0.5313 -0.4049  1.2872
  180SLPC  C21820612   5.264  -0.592   9.835 -0.7249  0.4197  0.4990
  180SLPC  H18R20613   5.162  -0.586   9.792  0.0778  2.1597 -1.2214
  180SLPC  H18S20614   5.311  -0.491   9.841 -1.6043  0.9785 -1.7109
  180SLPC  H18T20615   5.275  -0.650   9.929  1.9238 -0.6046 -0.3946
  180SLPC   C3320616   5.318  -0.314  10.150  0.0037 -0.0133  0.0108
  180SLPC   H3X20617   5.324  -0.349  10.045 -2.2704 -1.3238  0.2737
  180SLPC   H3Y20618   5.373  -0.396  10.201 -0.1650  0.4334  0.9082
  180SLPC   C3420619   5.380  -0.176  10.147  0.1451 -0.6742  0.2925
  180SLPC   H4X20620   5.417  -0.160  10.250  1.5860 -0.3305 -0.2668
  180SLPC   H4Y20621   5.303  -0.096  10.135 -0.3166 -1.4780 -2.5959
  180SLPC   C3520622   5.502  -0.160  10.055 -0.1286  0.2345 -0.0907
  180SLPC   H5X20623   5.574  -0.245  10.059  1.4172  1.3137 -3.2477
  180SLPC   H5Y20624   5.571  -0.079  10.087  0.8842 -0.2138 -1.0764
  180SLPC   C3620625   5.459  -0.143   9.903 -0.1358 -0.4001 -0.3593
  180SLPC   H6X20626   5.402  -0.048   9.905 -3.1401 -2.1168 -1.3592
  180SLPC   H6Y20627   5.387  -0.224   9.875  1.1776 -2.2550  1.4379
  180SLPC   C3720628   5.565  -0.124   9.790  0.4013  0.3373 -0.4963
  180SLPC   H7X20629   5.615  -0.221   9.768 -1.7440 -0.5383 -1.7138
  180SLPC   H7Y20630   5.647  -0.060   9.827  1.0101 -0.0816 -1.1178
  180SLPC   C3820631   5.508  -0.079   9.651  0.3581 -0.3485 -0.5770
  180SLPC   H8X20632   5.459   0.020   9.663  1.1884  0.0652 -0.5348
  180SLPC   H8Y20633   5.427  -0.152   9.631  1.1023 -1.3583  0.0512
  180SLPC   C3920634   5.612  -0.075   9.536  0.3816  0.3169  0.3717
  180SLPC   H9X20635   5.646  -0.177   9.509 -1.0270  0.2675 -1.3108
  180SLPC   H9Y20636   5.696  -0.012   9.572  1.0146  0.7333 -1.7910
  180SLPC  C31020637   5.548  -0.004   9.411  0.1268  0.3790  0.6727
  180SLPC  H10X20638   5.512   0.089   9.460 -0.7555  0.4382 -0.0747
  180SLPC  H10Y20639   5.459  -0.061   9.377 -0.0384  0.6369  0.6701
  180SLPC  C31120640   5.645   0.029   9.295  0.6497 -0.0406  0.1840
  180SLPC  H11X20641   5.739   0.071   9.337 -0.3912 -0.8682  3.4034
  180SLPC  H11Y20642   5.599   0.099   9.221 -2.6503 -1.4446  0.8146
  180SLPC  C31220643   5.681  -0.102   9.218  0.7913  0.2267 -0.3615
  180SLPC  H12X20644   5.585  -0.142   9.180  0.2360  1.0934  0.1442
  180SLPC  H12Y20645   5.729  -0.180   9.281 -1.2521  2.0473  3.5656
  180SLPC  C31320646   5.785  -0.083   9.113 -0.3240 -0.1215  0.1417
  180SLPC  H13X20647   5.878  -0.044   9.159 -2.2467  0.8774  3.3783
  180SLPC  H13Y20648   5.750   0.003   9.051  1.1486 -0.7152 -1.5636
  180SLPC  C31420649   5.806  -0.203   9.021 -0.2140 -0.2009 -0.3843
  180SLPC  H14X20650   5.708  -0.211   8.969 -0.2603 -0.0331 -0.3253
  180SLPC  H14Y20651   5.830  -0.295   9.078  1.3286 -0.8759 -2.0792
  180SLPC  C31520652   5.916  -0.166   8.920  0.1678  0.0179 -0.5228
  180SLPC  H15X20653   6.003  -0.122   8.973 -0.2639 -0.4207  0.5658
  180SLPC  H15Y20654   5.876  -0.080   8.862 -1.1324  0.2566  0.6916
  180SLPC  C31620655   5.947  -0.272   8.819 -0.5415 -0.3376 -0.4732
  180SLPC  H16X20656   6.022  -0.233   8.746 -2.6079  2.1486 -1.3386
  180SLPC  H16Y20657   5.847  -0.292   8.776 -1.8406  2.4647  1.1404
  180SLPC  C31720658   5.990  -0.399   8.884 -0.3812 -0.2714  0.5193
  180SLPC  H17X20659   5.926  -0.420   8.972 -1.5148  0.3352 -0.1582
  180SLPC  H17Y20660   6.094  -0.383   8.920 -0.0022  0.0294 -0.6862
  180SLPC  C31820661   5.991  -0.524   8.800 -0.0131  1.0013  0.6067
  180SLPC  H18X20662   6.003  -0.620   8.855 -0.0159  1.6318  1.7376
  180SLPC  H18Y20663   6.061  -0.524   8.714 -1.1481 -1.9016 -0.3636
  180SLPC  H18Z20664   5.897  -0.540   8.743  0.6682 -0.5806 -0.0863
  181SLPC     N20665   1.711   3.733  11.097  0.5121 -0.3960 -0.0464
  181SLPC   C1320666   1.749   3.657  10.974  0.0623  0.0380 -0.2998
  181SLPC  H13A20667   1.672   3.659  10.899  1.0385  1.5189 -1.3031
  181SLPC  H13B20668   1.828   3.709  10.922 -0.5322 -0.1865 -1.4350
  181SLPC  H13C20669   1.773   3.558  11.010 -0.2050 -0.2805 -0.9892
  181SLPC   C1420670   1.824   3.718  11.187 -0.3808 -0.1736 -0.1929
  181SLPC  H14A20671   1.801   3.771  11.278 -4.5329  0.1105 -1.3241
  181SLPC  H14B20672   1.841   3.616  11.218  0.0829 -0.6229 -1.9069
  181SLPC  H14C20673   1.920   3.757  11.157 -0.1667 -0.3570  0.2476
  181SLPC   C1520674   1.595   3.676  11.159  0.8024  0.0996  0.1736
  181SLPC  H15A20675   1.563   3.737  11.242  0.7692 -0.4038  0.5296
  181SLPC  H15B20676   1.505   3.689  11.100  0.1493 -0.0553  1.1158
  181SLPC  H15C20677   1.613   3.578  11.200  0.3126 -0.0032  0.1487
  181SLPC   C1220678   1.700   3.882  11.060  0.0698  0.4458 -0.7073
  181SLPC  H12A20679   1.793   3.915  11.016 -0.5108  0.8739 -1.6342
  181SLPC  H12B20680   1.711   3.934  11.154 -1.2799 -1.9659  0.8544
  181SLPC   C1120681   1.574   3.932  10.984 -0.3701  0.6237 -0.0057
  181SLPC  H11A20682   1.575   3.875  10.888 -1.0821 -1.6672  1.3094
  181SLPC  H11B20683   1.589   4.041  10.966 -0.8737  0.6039 -0.5491
  181SLPC     P20684   1.384   4.019  11.161  0.2634  0.2951  0.2163
  181SLPC   O1320685   1.258   3.969  11.215  0.0264 -0.4088  0.6087
  181SLPC   O1420686   1.491   4.070  11.251  0.7789  0.2608 -0.2459
  181SLPC   O1220687   1.449   3.913  11.059  0.1656 -0.1919  0.2616
  181SLPC   O1120688   1.354   4.141  11.069 -0.0988 -0.3018 -0.2599
  181SLPC    C120689   1.275   4.134  10.957 -0.2106 -0.5896  0.6619
  181SLPC    HA20690   1.266   4.029  10.922 -1.3138 -0.1687 -0.3337
  181SLPC    HB20691   1.173   4.157  10.994 -0.7118 -0.8609 -0.5129
  181SLPC    C220692   1.316   4.236  10.842  0.2356 -0.1472  0.4147
  181SLPC    HS20693   1.298   4.339  10.879  0.7078  0.8798 -2.1096
  181SLPC   O2120694   1.249   4.200  10.722  0.1005 -0.4841  0.1147
  181SLPC   C2120695   1.122   4.229  10.706  0.1079 -0.0676  0.0177
  181SLPC   O2220696   1.044   4.267  10.794 -0.1331 -0.0859 -0.0837
  181SLPC   C2220697   1.080   4.188  10.566 -0.1799 -0.2754 -0.1240
  181SLPC   H2R20698   1.133   4.269  10.511 -1.7667  2.7149  2.5234
  181SLPC   H2S20699   1.115   4.086  10.541 -2.2013 -1.2143  0.7292
  181SLPC    C320700   1.467   4.221  10.813  0.2405 -0.3622  0.3514
  181SLPC    HX20701   1.492   4.133  10.750  0.4308  0.4000 -0.6490
  181SLPC    HY20702   1.518   4.210  10.911 -0.2775 -2.3439  0.4260
  181SLPC   O3120703   1.507   4.346  10.755 -0.2042  0.0765 -0.4392
  181SLPC   C3120704   1.636   4.348  10.733  0.4607  0.4101  0.8470
  181SLPC   O3220705   1.713   4.261  10.771 -0.3883  0.0388  0.1935
  181SLPC   C3220706   1.682   4.476  10.659  0.1672  0.1874 -0.3476
  181SLPC   H2X20707   1.791   4.472  10.677  0.0050 -0.5723  0.5031
  181SLPC   H2Y20708   1.643   4.561  10.721 -2.0337 -0.7485 -0.3948
  181SLPC   C2320709   0.929   4.202  10.540  0.4827 -0.3330  0.6202
  181SLPC   H3R20710   0.883   4.301  10.561 -1.1910 -1.4610  2.5041
  181SLPC   H3S20711   0.871   4.139  10.611 -1.1223 -1.0607 -1.3078
  181SLPC   C2420712   0.884   4.163  10.397 -0.5452 -0.3754  0.2646
  181SLPC   H4R20713   0.775   4.182  10.386 -0.2258  1.7190  0.5203
  181SLPC   H4S20714   0.883   4.052  10.393 -0.0262 -0.2883 -3.6980
  181SLPC   C2520715   0.969   4.237  10.299  0.1645 -0.2818 -0.3560
  181SLPC   H5R20716   1.069   4.189  10.304 -0.5285 -2.0777 -2.8340
  181SLPC   H5S20717   0.983   4.346  10.313  1.1754 -0.2151 -1.7755
  181SLPC   C2620718   0.912   4.213  10.154  0.0543 -0.0461 -0.4308
  181SLPC   H6R20719   0.806   4.246  10.163  0.2778  0.5309  0.1002
  181SLPC   H6S20720   0.907   4.103  10.138 -0.9053 -0.7016  3.7483
  181SLPC   C2720721   0.990   4.284  10.041 -0.0189 -0.5681  0.1369
  181SLPC   H7R20722   0.969   4.393  10.055 -0.8965 -0.6977 -0.1177
  181SLPC   H7S20723   0.943   4.262   9.943  0.3892 -1.4835  0.1511
  181SLPC   C2820724   1.139   4.247  10.029 -0.8999 -0.1816 -0.0835
  181SLPC   H8R20725   1.155   4.138  10.043  0.7677  0.0222 -0.2542
  181SLPC   H8S20726   1.177   4.306  10.115  1.5354  2.5246 -2.8865
  181SLPC   C2920727   1.206   4.306   9.911  0.0207 -0.0233 -0.4447
  181SLPC   H9R20728   1.283   4.380   9.937  0.2463  0.5763 -2.7289
  181SLPC  C21020729   1.193   4.262   9.788  0.2752  1.1096  0.4273
  181SLPC  H10R20730   1.243   4.320   9.709 -1.0652  1.7313  0.0101
  181SLPC  C21120731   1.105   4.149   9.739 -1.0382  0.0734 -0.1036
  181SLPC  H11R20732   1.016   4.183   9.683  0.3925  3.7871 -0.2701
  181SLPC  H11S20733   1.069   4.092   9.827 -2.0632  0.2233 -0.4288
  181SLPC  C21220734   1.169   4.039   9.658 -0.0987 -0.2572 -0.3781
  181SLPC  H12R20735   1.171   3.948   9.720 -1.0186 -0.0268 -0.0126
  181SLPC  C21320736   1.215   4.036   9.527  0.2976  0.0360  0.5752
  181SLPC  H13R20737   1.262   3.946   9.485 -0.5485 -0.0477 -0.2279
  181SLPC  C21420738   1.206   4.148   9.426 -0.5092  0.3255  0.3396
  181SLPC  H14R20739   1.195   4.255   9.454  3.0086  1.8673 -3.6298
  181SLPC  H14S20740   1.130   4.124   9.349 -0.4906  0.9406  0.1255
  181SLPC  C21520741   1.342   4.148   9.349  0.5939  0.0681 -0.7247
  181SLPC  H15R20742   1.363   4.056   9.290  0.7726 -0.1887 -0.2698
  181SLPC  H15S20743   1.418   4.165   9.429  1.1293  0.6542 -1.3501
  181SLPC  C21620744   1.353   4.269   9.262  0.3993 -0.6627 -0.0032
  181SLPC  H16R20745   1.353   4.361   9.324 -0.4543 -0.4778 -0.2681
  181SLPC  H16S20746   1.265   4.277   9.194  1.3079  0.8173 -1.0456
  181SLPC  C21720747   1.478   4.261   9.176  0.0698 -0.3618 -0.3868
  181SLPC  H17R20748   1.488   4.157   9.137  1.3187 -0.4088  0.0382
  181SLPC  H17S20749   1.565   4.258   9.244 -1.8565  1.0381  2.2153
  181SLPC  C21820750   1.469   4.370   9.071 -0.2164  0.0115  0.6128
  181SLPC  H18R20751   1.494   4.462   9.129 -1.7131  0.7844  0.0757
  181SLPC  H18S20752   1.373   4.376   9.016  0.4081  1.0029 -0.3799
  181SLPC  H18T20753   1.550   4.357   8.997  1.3633  1.8286  1.9818
  181SLPC   C3320754   1.651   4.487  10.506 -0.2262  0.4342  0.2931
  181SLPC   H3X20755   1.687   4.406  10.439 -0.0945  1.2631 -0.6478
  181SLPC   H3Y20756   1.719   4.572  10.480  1.4866 -1.2158 -0.7710
  181SLPC   C3420757   1.499   4.513  10.461  0.5500  0.1572  0.1802
  181SLPC   H4X20758   1.462   4.599  10.521  1.2758  0.0221  0.8280
  181SLPC   H4Y20759   1.447   4.418  10.486 -0.7667  0.8491  0.1124
  181SLPC   C3520760   1.494   4.529  10.308 -0.0167  0.7866 -0.3893
  181SLPC   H5X20761   1.391   4.547  10.271 -0.7504  0.5956  1.5320
  181SLPC   H5Y20762   1.533   4.433  10.268 -3.1015 -0.9172  0.5330
  181SLPC   C3620763   1.584   4.641  10.264 -0.5373  0.3513  0.3810
  181SLPC   H6X20764   1.687   4.600  10.274 -0.7253  0.3585  2.6523
  181SLPC   H6Y20765   1.581   4.722  10.340  0.1426 -0.3407  1.1599
  181SLPC   C3720766   1.566   4.696  10.120  0.7593 -0.7665 -0.1728
  181SLPC   H7X20767   1.456   4.715  10.116 -0.2727 -5.9007 -0.3381
  181SLPC   H7Y20768   1.589   4.613  10.049  2.8607  1.5861 -2.3252
  181SLPC   C3820769   1.651   4.813  10.080  0.1078 -0.5017 -0.0437
  181SLPC   H8X20770   1.652   4.889  10.162 -4.6142 -0.2779 -0.1003
  181SLPC   H8Y20771   1.593   4.861   9.998 -0.2230  1.7384  1.4500
  181SLPC   C3920772   1.791   4.792  10.025 -0.0998 -0.1453 -0.6016
  181SLPC   H9X20773   1.830   4.692  10.054  0.6201  0.1388 -0.5712
  181SLPC   H9Y20774   1.864   4.871  10.055  0.4426 -0.4843 -1.0170
  181SLPC  C31020775   1.788   4.784   9.870  0.4180 -0.1332 -0.5048
  181SLPC  H10X20776   1.737   4.874   9.830 -1.2570 -0.1920  1.4271
  181SLPC  H10Y20777   1.730   4.692   9.847  0.6307 -0.2266 -0.6762
  181SLPC  C31120778   1.932   4.783   9.808  0.1470 -0.1958  1.0723
  181SLPC  H11X20779   1.993   4.701   9.852  1.5623  0.0977 -0.3347
  181SLPC  H11Y20780   1.978   4.880   9.837 -2.7652  1.1788  1.3541
  181SLPC  C31220781   1.950   4.766   9.655  0.0973  0.1950 -0.5069
  181SLPC  H12X20782   1.933   4.659   9.631  0.0081 -0.3140  1.7061
  181SLPC  H12Y20783   2.058   4.778   9.632  0.0801 -1.2500 -1.3932
  181SLPC  C31320784   1.873   4.876   9.581 -0.1610 -0.4463  0.4838
  181SLPC  H13X20785   1.941   4.963   9.589  1.0478 -1.3658  0.2193
  181SLPC  H13Y20786   1.774   4.883   9.632  0.8439  0.9965  2.3026
  181SLPC  C31420787   1.861   4.839   9.434  0.3835  0.1585  0.5393
  181SLPC  H14X20788   1.816   4.738   9.422  0.3159  0.2908 -0.4253
  181SLPC  H14Y20789   1.964   4.835   9.390  0.9194  1.0199  1.6924
  181SLPC  C31520790   1.775   4.948   9.363  0.1825  0.1198 -0.6297
  181SLPC  H15X20791   1.825   5.045   9.383 -0.9025  0.4325  0.6980
  181SLPC  H15Y20792   1.672   4.946   9.406  0.7750  0.1480  0.8056
  181SLPC  C31620793   1.775   4.943   9.210  0.5764  0.3743 -0.1659
  181SLPC  H16X20794   1.877   4.940   9.168  0.1818  0.1193 -1.1315
  181SLPC  H16Y20795   1.732   5.035   9.164  1.3435  0.8388  0.0431
  181SLPC  C31720796   1.689   4.832   9.148  0.2631 -0.6287  0.0115
  181SLPC  H17X20797   1.582   4.840   9.178  0.0928  1.1252 -1.0201
  181SLPC  H17Y20798   1.731   4.734   9.179  0.4769 -1.5336 -2.9418
  181SLPC  C31820799   1.711   4.850   8.996 -0.1277  0.2717  0.4853
  181SLPC  H18X20800   1.820   4.846   8.978  0.0447 -0.9254  1.6883
  181SLPC  H18Y20801   1.672   4.950   8.967  1.9127  0.8414 -0.3789
  181SLPC  H18Z20802   1.654   4.774   8.938  2.3777 -0.8065 -0.6474
  182SLPC     N20803   0.379   5.550  10.829  0.1006  0.2761  0.0856
  182SLPC   C1320804   0.305   5.626  10.934 -0.1339  0.0068 -0.4032
  182SLPC  H13A20805   0.199   5.605  10.925  0.1630 -0.9137 -1.9552
  182SLPC  H13B20806   0.342   5.607  11.033  0.4233 -0.1779 -0.6471
  182SLPC  H13C20807   0.310   5.733  10.920  0.4646  0.4100  2.5808
  182SLPC   C1420808   0.528   5.533  10.845 -0.1196  0.2943 -0.0101
  182SLPC  H14A20809   0.569   5.629  10.870 -1.2775  1.1213 -1.2331
  182SLPC  H14B20810   0.554   5.481  10.936 -0.4236 -1.0294 -0.6648
  182SLPC  H14C20811   0.576   5.482  10.762 -0.3396 -1.3463  0.8432
  182SLPC   C1520812   0.364   5.625  10.696  0.7356 -0.5367 -0.0210
  182SLPC  H15A20813   0.412   5.721  10.711  0.5788 -0.6895  1.5912
  182SLPC  H15B20814   0.410   5.564  10.620  2.6047 -0.5648  1.0911
  182SLPC  H15C20815   0.259   5.627  10.672  0.1099 -1.5953  2.4259
  182SLPC   C1220816   0.320   5.410  10.820  0.1256  0.4216  0.3653
  182SLPC  H12A20817   0.358   5.363  10.730 -1.1264  0.1170 -0.0216
  182SLPC  H12B20818   0.215   5.421  10.798  0.4216 -0.7025 -1.8122
  182SLPC   C1120819   0.343   5.322  10.945 -0.3903 -0.1483 -0.3163
  182SLPC  H11A20820   0.299   5.371  11.034 -2.6871 -1.3846 -0.7418
  182SLPC  H11B20821   0.454   5.309  10.954 -0.1810  0.8514 -1.3916
  182SLPC     P20822   0.130   5.170  10.894 -0.2707  0.0580 -0.3000
  182SLPC   O1320823   0.070   5.123  11.021  0.7332 -0.1278  0.2546
  182SLPC   O1420824   0.066   5.292  10.836  0.3895  0.1445 -0.6819
  182SLPC   O1220825   0.281   5.197  10.913  0.2356 -0.8695 -0.5356
  182SLPC   O1120826   0.124   5.052  10.796 -0.5047  0.3389  0.4034
  182SLPC    C120827   0.232   4.962  10.774 -0.0167  0.0760 -0.7522
  182SLPC    HA20828   0.298   4.954  10.862  0.5030  2.3569 -0.8972
  182SLPC    HB20829   0.193   4.859  10.760  0.4625 -0.2140  0.0362
  182SLPC    C220830   0.303   5.010  10.644 -0.2634 -0.7990  0.1819
  182SLPC    HS20831   0.367   5.095  10.675 -2.5372  0.1202  2.4920
  182SLPC   O2120832   0.198   5.029  10.553 -0.8963  0.0928 -0.0756
  182SLPC   C2120833   0.168   5.156  10.532 -0.1441 -0.1652  0.3397
  182SLPC   O2220834   0.232   5.256  10.570 -0.2152 -0.0930 -0.0593
  182SLPC   C2220835   0.041   5.150  10.442  0.4817 -0.2020 -0.0735
  182SLPC   H2R20836   0.039   5.049  10.396 -2.6561 -0.7718  1.2327
  182SLPC   H2S20837  -0.048   5.162  10.506  0.2103 -0.4878 -0.3932
  182SLPC    C320838   0.397   4.900  10.592 -0.1730  0.2538 -0.1410
  182SLPC    HX20839   0.342   4.809  10.625  0.9581 -0.5874 -0.5758
  182SLPC    HY20840   0.488   4.915  10.655 -2.4841  2.0651  2.9117
  182SLPC   O3120841   0.420   4.899  10.449 -0.4942 -0.1276 -0.9033
  182SLPC   C3120842   0.506   4.996  10.416 -0.2240  0.1187 -0.3580
  182SLPC   O3220843   0.555   5.082  10.486 -0.1835  0.7124 -0.3878
  182SLPC   C3220844   0.563   4.967  10.277 -0.3631  0.0157  0.4279
  182SLPC   H2X20845   0.473   4.936  10.219 -0.9810  0.9236  0.8861
  182SLPC   H2Y20846   0.617   4.870  10.283  2.9583  1.8756  1.5947
  182SLPC   C2320847   0.038   5.250  10.327 -0.0303  0.3861  0.0759
  182SLPC   H3R20848   0.051   5.351  10.373 -0.0441  0.2665  0.3445
  182SLPC   H3S20849  -0.055   5.259  10.267  0.4788  1.2318 -0.5983
  182SLPC   C2420850   0.147   5.229  10.219 -0.2569  0.1215  0.4030
  182SLPC   H4R20851   0.245   5.225  10.272  0.3207  2.2917 -0.4292
  182SLPC   H4S20852   0.136   5.321  10.157 -2.7173 -0.8741 -0.7081
  182SLPC   C2520853   0.137   5.112  10.122 -0.1415  0.1963 -0.4043
  182SLPC   H5R20854   0.034   5.118  10.081 -0.2318 -1.1273 -0.4067
  182SLPC   H5S20855   0.144   5.010  10.167  1.2737  0.9268  1.0975
  182SLPC   C2620856   0.239   5.121  10.008  0.7491 -0.3351 -0.7421
  182SLPC   H6R20857   0.344   5.111  10.042  0.6798 -0.7925 -0.6611
  182SLPC   H6S20858   0.232   5.219   9.956  1.4689 -0.6509 -1.4493
  182SLPC   C2720859   0.221   5.011   9.913 -0.7138 -0.4449 -0.9209
  182SLPC   H7R20860   0.113   5.007   9.887 -0.4706  0.4384 -2.0692
  182SLPC   H7S20861   0.238   4.916   9.968 -1.1315 -0.4313 -0.7673
  182SLPC   C2820862   0.308   5.021   9.790 -0.4843  0.1157 -0.4969
  182SLPC   H8R20863   0.416   5.019   9.818 -0.4571  1.0039 -0.5286
  182SLPC   H8S20864   0.281   5.116   9.741 -0.1200  0.0797 -0.7735
  182SLPC   C2920865   0.278   4.904   9.703  0.5757 -0.2027 -0.1513
  182SLPC   H9R20866   0.276   4.812   9.763  2.9871 -0.6499 -0.6999
  182SLPC  C21020867   0.271   4.902   9.565 -0.2431 -0.0317 -0.1264
  182SLPC  H10R20868   0.247   4.807   9.515  0.0428  0.9348 -2.1360
  182SLPC  C21120869   0.289   5.009   9.462 -0.6594 -0.0333 -0.0011
  182SLPC  H11R20870   0.386   4.988   9.413 -0.1256 -1.7210  1.7286
  182SLPC  H11S20871   0.303   5.110   9.506 -1.9761 -0.6109  1.7870
  182SLPC  C21220872   0.171   5.019   9.366  0.7722  0.6171 -0.3461
  182SLPC  H12R20873   0.078   5.064   9.404  0.1792  1.8343 -3.1003
  182SLPC  C21320874   0.171   4.998   9.233  0.3219  0.1179 -0.1081
  182SLPC  H13R20875   0.072   4.997   9.186  0.2112  1.3118  0.0741
  182SLPC  C21420876   0.288   4.970   9.148 -0.1838 -0.8966  0.3442
  182SLPC  H14R20877   0.302   4.860   9.145 -0.2392 -0.8901 -0.0942
  182SLPC  H14S20878   0.385   5.020   9.171 -1.1696  1.6612 -0.8696
  182SLPC  C21520879   0.264   4.996   9.003  0.1828  0.0014 -0.0480
  182SLPC  H15R20880   0.231   5.098   8.976 -0.1903 -0.2563 -0.5808
  182SLPC  H15S20881   0.191   4.919   8.968 -1.6210  2.2841 -1.4055
  182SLPC  C21620882   0.397   4.983   8.924 -0.2113 -0.2175 -0.4189
  182SLPC  H16R20883   0.464   4.915   8.982  2.3099  1.6119 -1.0756
  182SLPC  H16S20884   0.451   5.080   8.919  1.1597 -1.0346 -2.3600
  182SLPC  C21720885   0.390   4.938   8.776 -0.0682  0.0422  0.4899
  182SLPC  H17R20886   0.323   5.001   8.714  1.0413  0.7147 -0.0372
  182SLPC  H17S20887   0.345   4.836   8.776  1.6239 -0.7578 -3.0798
  182SLPC  C21820888   0.518   4.937   8.700  0.1684  0.3670  0.2826
  182SLPC  H18R20889   0.589   4.860   8.738 -2.8989 -2.8211 -0.1148
  182SLPC  H18S20890   0.565   5.036   8.715  2.6572 -0.5883 -0.9787
  182SLPC  H18T20891   0.497   4.924   8.591 -1.6266  0.3698  0.6015
  182SLPC   C3320892   0.633   5.083  10.206 -0.2460 -0.3001  0.0123
  182SLPC   H3X20893   0.715   5.119  10.272  0.7381  0.4661 -1.6061
  182SLPC   H3Y20894   0.567   5.169  10.181  1.4467  0.5064 -1.8245
  182SLPC   C3420895   0.688   5.046  10.069 -0.1596 -1.0938 -0.0402
  182SLPC   H4X20896   0.627   4.960  10.034 -0.4710 -1.0605  0.4026
  182SLPC   H4Y20897   0.791   5.007  10.084  0.4442  0.7977  0.8996
  182SLPC   C3520898   0.693   5.162   9.971 -0.3206 -0.4371  0.2928
  182SLPC   H5X20899   0.750   5.250  10.007  1.7064 -2.5149  2.3468
  182SLPC   H5Y20900   0.588   5.198   9.964 -0.2516 -0.2071  0.4370
  182SLPC   C3620901   0.752   5.123   9.839 -0.1666  0.5750 -0.6729
  182SLPC   H6X20902   0.698   5.032   9.803  0.2976  1.0581 -2.6656
  182SLPC   H6Y20903   0.854   5.081   9.846  0.1160  1.0594 -1.7242
  182SLPC   C3720904   0.745   5.239   9.738 -0.1418 -0.7770 -0.6496
  182SLPC   H7X20905   0.788   5.334   9.776  0.2653 -0.2805 -2.2945
  182SLPC   H7Y20906   0.637   5.262   9.725 -0.4829 -0.3772  2.5565
  182SLPC   C3820907   0.789   5.213   9.588 -1.0641  0.2235 -0.3849
  182SLPC   H8X20908   0.770   5.302   9.525 -3.8274 -0.0885 -0.0582
  182SLPC   H8Y20909   0.722   5.132   9.553  0.3173 -1.2709  0.3550
  182SLPC   C3920910   0.937   5.164   9.576  0.3551 -0.6342 -0.5532
  182SLPC   H9X20911   0.945   5.064   9.623 -3.4134 -0.6277  0.1930
  182SLPC   H9Y20912   0.997   5.235   9.638 -0.4843 -0.4835  0.0956
  182SLPC  C31020913   0.997   5.168   9.433  0.1686  0.5704  0.5649
  182SLPC  H10X20914   1.104   5.195   9.450 -0.1228  2.5530 -0.6274
  182SLPC  H10Y20915   0.942   5.249   9.381  2.0927  0.9455 -0.9541
  182SLPC  C31120916   0.963   5.042   9.347 -0.7618  0.0801 -0.1053
  182SLPC  H11X20917   1.009   4.953   9.397  0.4905  1.5451  1.4131
  182SLPC  H11Y20918   1.005   5.060   9.246  1.2748 -0.8875  0.5482
  182SLPC  C31220919   0.810   5.009   9.343 -0.4507 -0.3649  0.0313
  182SLPC  H12X20920   0.752   5.098   9.309  0.2348 -1.0110 -3.0059
  182SLPC  H12Y20921   0.773   4.987   9.445  1.6366 -3.6481  0.1416
  182SLPC  C31320922   0.779   4.885   9.259 -0.2330 -0.8865  0.8413
  182SLPC  H13X20923   0.857   4.806   9.257  1.5366  0.7533  2.6103
  182SLPC  H13Y20924   0.758   4.908   9.153  0.4616 -0.0505  0.8814
  182SLPC  C31420925   0.650   4.825   9.305  0.1145  1.1691 -0.0904
  182SLPC  H14X20926   0.564   4.895   9.291 -1.7631 -0.5478  2.4442
  182SLPC  H14Y20927   0.662   4.803   9.413  0.4266  2.1480  0.0787
  182SLPC  C31520928   0.630   4.688   9.234  0.7637 -0.6845  1.0728
  182SLPC  H15X20929   0.719   4.623   9.246  0.3738 -1.8502 -1.9918
  182SLPC  H15Y20930   0.620   4.707   9.125 -0.7934  0.1003  1.3400
  182SLPC  C31620931   0.525   4.596   9.297  0.1664  0.0470  0.0406
  182SLPC  H16X20932   0.427   4.647   9.304  0.3048  0.2071  0.8269
  182SLPC  H16Y20933   0.559   4.568   9.399  2.2171  1.2407 -0.2856
  182SLPC  C31720934   0.496   4.464   9.219 -0.1107 -0.2798  0.3062
  182SLPC  H17X20935   0.412   4.412   9.270 -1.0083  1.8780  1.0825
  182SLPC  H17Y20936   0.592   4.411   9.226  0.4018  0.5592 -0.2340
  182SLPC  C31820937   0.477   4.474   9.069  0.6625  0.3878  0.8090
  182SLPC  H18X20938   0.563   4.521   9.015 -1.1382  2.5221 -0.2945
  182SLPC  H18Y20939   0.395   4.544   9.041 -1.6641 -2.1484  1.1253
  182SLPC  H18Z20940   0.467   4.374   9.022  0.8199  0.3990  0.7510
  183SLPC     N20941   1.081   5.663  10.921 -0.6025  0.3802  0.0057
  183SLPC   C1320942   1.221   5.688  10.963 -0.0956  0.5442  0.2651
  183SLPC  H13A20943   1.288   5.637  10.896 -0.6325  1.7971 -1.2763
  183SLPC  H13B20944   1.238   5.795  10.963  2.8410  0.1166 -0.8626
  183SLPC  H13C20945   1.249   5.645  11.058 -1.1523  2.6737  1.5929
  183SLPC   C1420946   0.987   5.720  11.026 -0.4882 -0.0582  0.0407
  183SLPC  H14A20947   1.006   5.669  11.119  0.2066  1.2523  0.6431
  183SLPC  H14B20948   1.018   5.823  11.040  0.3797 -0.5979  2.3789
  183SLPC  H14C20949   0.884   5.714  10.994 -0.8757  0.2786  1.2123
  183SLPC   C1520950   1.065   5.518  10.891  0.1897  0.0617  0.3058
  183SLPC  H15A20951   1.100   5.454  10.971 -0.0377 -2.0403 -1.2324
  183SLPC  H15B20952   0.965   5.486  10.866 -0.5846  3.0120 -0.5875
  183SLPC  H15C20953   1.116   5.492  10.800 -0.4132  0.8303 -0.2503
  183SLPC   C1220954   1.052   5.744  10.790 -0.1158 -0.1251 -0.0231
  183SLPC  H12A20955   0.958   5.704  10.755 -0.3650  0.6650 -0.2543
  183SLPC  H12B20956   1.135   5.710  10.730 -0.6570 -0.0491 -0.8270
  183SLPC   C1120957   1.047   5.904  10.793  0.2319  0.6553 -0.2459
  183SLPC  H11A20958   0.981   5.934  10.876  2.1217  1.7995  0.8925
  183SLPC  H11B20959   1.015   5.945  10.695  0.1722  1.6193  0.1739
  183SLPC     P20960   1.294   5.970  10.734  0.0310  0.2589  0.3830
  183SLPC   O1320961   1.417   5.912  10.797 -0.4659 -0.0907  0.2585
  183SLPC   O1420962   1.250   5.906  10.610  0.3112  0.4138 -0.2645
  183SLPC   O1220963   1.174   5.959  10.833 -0.5940  0.1223  0.3724
  183SLPC   O1120964   1.318   6.130  10.715  0.1970 -0.3768 -0.7060
  183SLPC    C120965   1.235   6.207  10.626 -0.1185  0.2692 -0.1051
  183SLPC    HA20966   1.156   6.142  10.582 -1.4580  2.9729 -1.8554
  183SLPC    HB20967   1.196   6.296  10.680  0.8058  0.0362  0.9603
  183SLPC    C220968   1.311   6.254  10.500 -0.5328 -0.3939  0.6351
  183SLPC    HS20969   1.233   6.317  10.451 -0.6820  1.1115  2.7473
  183SLPC   O2120970   1.355   6.137  10.427 -0.2203 -0.2437 -0.2372
  183SLPC   C2120971   1.279   6.069  10.358  0.1855  0.6267  0.2294
  183SLPC   O2220972   1.161   6.095  10.336  0.2319  0.0184  0.6021
  183SLPC   C2220973   1.354   5.947  10.306  0.7667 -0.4470 -0.8292
  183SLPC   H2R20974   1.445   5.996  10.265  0.2314  1.5630  0.2840
  183SLPC   H2S20975   1.364   5.884  10.397 -0.9256 -1.0448 -1.0247
  183SLPC    C320976   1.433   6.343  10.530 -0.0446 -0.1834 -0.6887
  183SLPC    HX20977   1.504   6.266  10.567  0.2790  0.0435 -0.8261
  183SLPC    HY20978   1.406   6.417  10.608 -0.0866 -0.1911 -0.6959
  183SLPC   O3120979   1.487   6.403  10.408 -0.3827  0.2473  0.1558
  183SLPC   C3120980   1.422   6.509  10.361  0.5102  0.3197  0.2862
  183SLPC   O3220981   1.307   6.543  10.397  0.0041  0.1651 -0.6466
  183SLPC   C3220982   1.510   6.577  10.258 -0.5275 -0.2977  0.2999
  183SLPC   H2X20983   1.487   6.685  10.272 -0.9443 -0.5756  1.8068
  183SLPC   H2Y20984   1.467   6.553  10.158 -4.3840  2.0715  1.2589
  183SLPC   C2320985   1.289   5.875  10.178  0.5325 -0.0671  0.2975
  183SLPC   H3R20986   1.293   5.936  10.085  2.5512 -0.3194  0.2005
  183SLPC   H3S20987   1.185   5.859  10.212  0.8487 -1.9470  0.4772
  183SLPC   C2420988   1.333   5.731  10.153 -0.6799 -0.5786 -0.7204
  183SLPC   H4R20989   1.276   5.690  10.067 -1.2499  0.7212 -0.9853
  183SLPC   H4S20990   1.306   5.661  10.235 -1.2150 -0.4016 -0.7388
  183SLPC   C2520991   1.477   5.700  10.121 -0.8729 -0.2351 -0.4309
  183SLPC   H5R20992   1.483   5.599  10.075  1.9567 -0.1220 -0.4397
  183SLPC   H5S20993   1.540   5.684  10.211 -2.7366 -0.0194  0.9164
  183SLPC   C2620994   1.548   5.790  10.014 -0.4330 -0.4689  0.2065
  183SLPC   H6R20995   1.602   5.875  10.062 -0.7941  0.2308 -0.6129
  183SLPC   H6S20996   1.469   5.840   9.955 -1.2116  1.1158  2.5373
  183SLPC   C2720997   1.637   5.730   9.900  0.1542 -0.2105  0.6208
  183SLPC   H7R20998   1.583   5.643   9.858  1.2409  0.2942 -1.9197
  183SLPC   H7S20999   1.724   5.686   9.953  0.1888 -3.2241 -1.8330
  183SLPC   C2821000   1.694   5.827   9.798  0.2357  0.0010  0.5218
  183SLPC   H8R21001   1.758   5.905   9.843  0.1288 -0.7468  1.9775
  183SLPC   H8S21002   1.609   5.876   9.745  2.1953  1.6341 -1.1762
  183SLPC   C2921003   1.774   5.753   9.698 -0.0466  0.0310 -0.0763
  183SLPC   H9R21004   1.884   5.756   9.699  0.0567 -2.6044 -0.1068
  183SLPC  C21021005   1.723   5.682   9.601  0.2236  0.0775  0.0523
  183SLPC  H10R21006   1.796   5.641   9.530  0.1663 -0.6612  0.4085
  183SLPC  C21121007   1.576   5.661   9.573 -0.2272 -0.0763 -0.1736
  183SLPC  H11R21008   1.533   5.622   9.667  0.7064  0.6709  0.5713
  183SLPC  H11S21009   1.564   5.573   9.506  2.2661 -0.4685 -0.1558
  183SLPC  C21221010   1.483   5.769   9.521  0.2089  0.3148  0.1601
  183SLPC  H12R21011   1.438   5.837   9.595  0.9507  1.0750 -0.0760
  183SLPC  C21321012   1.486   5.797   9.389  0.1097  0.2555  0.4146
  183SLPC  H13R21013   1.420   5.876   9.351 -0.4888  0.2329  1.3804
  183SLPC  C21421014   1.550   5.736   9.266  0.0993 -0.9343  0.0481
  183SLPC  H14R21015   1.655   5.707   9.289 -0.1806 -2.5166 -0.5833
  183SLPC  H14S21016   1.549   5.812   9.185  0.4843  0.6515  1.5076
  183SLPC  C21521017   1.493   5.615   9.192  0.1163  0.0045  0.0988
  183SLPC  H15R21018   1.386   5.625   9.164  0.3955 -0.1050 -1.0326
  183SLPC  H15S21019   1.483   5.541   9.274 -0.8751  0.9632  0.8523
  183SLPC  C21621020   1.585   5.566   9.072 -0.3203 -0.0196  0.1274
  183SLPC  H16R21021   1.540   5.478   9.022 -0.8189  0.5709 -0.4676
  183SLPC  H16S21022   1.681   5.530   9.115  0.9786  0.3776 -2.3453
  183SLPC  C21721023   1.633   5.677   8.976 -0.1640  0.5002 -0.2629
  183SLPC  H17R21024   1.705   5.745   9.026 -0.2385  1.5658 -1.5489
  183SLPC  H17S21025   1.539   5.733   8.953 -0.0935  0.7130 -0.0380
  183SLPC  C21821026   1.703   5.608   8.851  0.8015 -0.1105 -0.2307
  183SLPC  H18R21027   1.728   5.684   8.774  0.1503  1.4230  1.0250
  183SLPC  H18S21028   1.630   5.534   8.812  1.3013  0.6172 -2.6578
  183SLPC  H18T21029   1.796   5.559   8.888  1.5160  1.4447  0.1075
  183SLPC   C3321030   1.661   6.562  10.269  1.3651 -1.1740 -0.4539
  183SLPC   H3X21031   1.697   6.461  10.242  0.2263 -1.4544 -0.9443
  183SLPC   H3Y21032   1.689   6.595  10.371 -0.3581 -2.0681  0.3282
  183SLPC   C3421033   1.732   6.658  10.177 -0.3775  0.7763  0.0221
  183SLPC   H4X21034   1.826   6.697  10.222  0.5564 -1.2081 -0.1601
  183SLPC   H4Y21035   1.663   6.739  10.145 -1.8076 -0.9340 -1.3374
  183SLPC   C3521036   1.764   6.585  10.044 -0.6931  0.2743 -0.2141
  183SLPC   H5X21037   1.687   6.505  10.046 -1.6379  1.1733  2.9565
  183SLPC   H5Y21038   1.871   6.554  10.046 -0.5748  0.7138  1.0221
  183SLPC   C3621039   1.745   6.678   9.919  0.3034 -0.0938  0.1906
  183SLPC   H6X21040   1.637   6.671   9.894  0.2347 -0.5754  0.6163
  183SLPC   H6Y21041   1.796   6.626   9.835 -1.3882 -0.0858 -0.8695
  183SLPC   C3721042   1.793   6.829   9.938  0.6809  0.2941 -0.0796
  183SLPC   H7X21043   1.894   6.827   9.983  0.6801 -2.2554 -0.1045
  183SLPC   H7Y21044   1.731   6.895  10.002 -0.6385  0.5941 -1.6285
  183SLPC   C3821045   1.811   6.907   9.806  0.0831  0.1363 -0.6832
  183SLPC   H8X21046   1.710   6.922   9.762 -0.3382 -0.1567  0.1585
  183SLPC   H8Y21047   1.878   6.843   9.744  0.8909  2.6633 -2.4626
  183SLPC   C3921048   1.874   7.047   9.824  1.0017 -0.2251 -0.0297
  183SLPC   H9X21049   1.862   7.081   9.929 -4.4004  0.5914 -0.7327
  183SLPC   H9Y21050   1.819   7.118   9.757  0.6552  0.8958  1.4018
  183SLPC  C31021051   2.019   7.052   9.802  0.5243  0.8252  0.3054
  183SLPC  H10X21052   2.079   6.993   9.875 -0.6834  0.3736  0.9451
  183SLPC  H10Y21053   2.038   7.160   9.822 -2.3185  1.0516  1.9915
  183SLPC  C31121054   2.070   7.017   9.658 -0.2909 -0.7080 -0.0295
  183SLPC  H11X21055   2.079   6.907   9.641  2.1511 -0.3540 -1.3038
  183SLPC  H11Y21056   2.174   7.055   9.650 -1.1967  1.7741 -0.3741
  183SLPC  C31221057   1.984   7.083   9.556 -0.3054 -0.5505 -0.8630
  183SLPC  H12X21058   1.991   7.192   9.578 -0.7595 -0.3328 -1.7832
  183SLPC  H12Y21059   1.885   7.032   9.559  0.5187 -2.1022  0.8965
  183SLPC  C31321060   2.032   7.073   9.413 -0.2594  0.1439  0.3439
  183SLPC  H13X21061   2.062   6.967   9.396 -1.2309  0.0139 -0.6160
  183SLPC  H13Y21062   2.117   7.142   9.395 -1.4589  1.2439 -1.1385
  183SLPC  C31421063   1.923   7.115   9.311  0.4219  0.5400 -0.5316
  183SLPC  H14X21064   1.886   7.214   9.348 -0.4755  0.4366 -1.1517
  183SLPC  H14Y21065   1.840   7.046   9.334  0.7796  0.0904 -0.5857
  183SLPC  C31521066   1.970   7.113   9.170 -0.5749 -0.2185  0.7171
  183SLPC  H15X21067   1.986   7.006   9.147  0.2695 -0.1780  1.0909
  183SLPC  H15Y21068   2.068   7.164   9.156 -1.5408  1.9807  1.7844
  183SLPC  C31621069   1.861   7.142   9.058  0.7456  0.0851 -0.0086
  183SLPC  H16X21070   1.851   7.251   9.040 -0.8010  0.1100  0.8578
  183SLPC  H16Y21071   1.768   7.100   9.103  1.7451 -3.6149 -1.2461
  183SLPC  C31721072   1.875   7.061   8.930  0.8644  0.0077  0.3639
  183SLPC  H17X21073   1.874   6.953   8.955 -1.7451  0.1899  1.1099
  183SLPC  H17Y21074   1.970   7.091   8.880 -0.5538  2.8737 -0.7201
  183SLPC  C31821075   1.762   7.095   8.827 -0.1723  0.8777 -0.3265
  183SLPC  H18X21076   1.778   7.038   8.733  0.0807 -1.7121  1.2275
  183SLPC  H18Y21077   1.747   7.203   8.811 -0.9410  0.9190  0.5654
  183SLPC  H18Z21078   1.674   7.040   8.867  1.6940 -2.7626 -0.9093
  184SLPC     N21079   3.712   3.543  10.795  0.0332  0.4663  0.0089
  184SLPC   C1321080   3.720   3.675  10.730 -0.0165 -0.1848 -0.5896
  184SLPC  H13A21081   3.825   3.699  10.724 -0.3791  2.0057  1.2521
  184SLPC  H13B21082   3.674   3.679  10.633 -0.4627  1.4423 -0.3278
  184SLPC  H13C21083   3.681   3.753  10.794  0.7920 -1.3070  1.3321
  184SLPC   C1421084   3.582   3.491  10.768  0.0828  0.1205 -0.3939
  184SLPC  H14A21085   3.592   3.384  10.762  1.5120  0.1634  0.9026
  184SLPC  H14B21086   3.508   3.513  10.844 -0.8347  0.2136 -1.2932
  184SLPC  H14C21087   3.555   3.535  10.673  2.4239 -1.1630 -1.6870
  184SLPC   C1521088   3.743   3.559  10.943 -0.1273  0.2772  0.2359
  184SLPC  H15A21089   3.677   3.630  10.992  1.7548  3.1845 -1.2491
  184SLPC  H15B21090   3.741   3.463  10.992  0.7899  0.4771  0.6591
  184SLPC  H15C21091   3.839   3.608  10.950  0.3342 -0.3704 -1.2762
  184SLPC   C1221092   3.820   3.446  10.740  0.5114 -0.2143  0.2252
  184SLPC  H12A21093   3.915   3.484  10.771  0.5304 -0.2965  0.2686
  184SLPC  H12B21094   3.811   3.432  10.633 -0.1765 -0.9474  0.3717
  184SLPC   C1121095   3.815   3.299  10.795 -0.2076  0.7306  0.6861
  184SLPC  H11A21096   3.824   3.308  10.905 -1.0651  1.0137  0.7361
  184SLPC  H11B21097   3.908   3.244  10.766  0.4986  3.0642 -1.7683
  184SLPC     P21098   3.648   3.175  10.617 -0.0577 -0.0236  0.0616
  184SLPC   O1321099   3.686   3.038  10.582 -0.3708  0.2154  0.8303
  184SLPC   O1421100   3.499   3.191  10.609  0.1367  0.5737  0.9789
  184SLPC   O1221101   3.698   3.229  10.758  0.1652  0.1088 -0.1033
  184SLPC   O1121102   3.721   3.273  10.512 -0.3243  0.0875  0.4044
  184SLPC    C121103   3.691   3.273  10.370 -0.2243  0.1740 -0.6369
  184SLPC    HA21104   3.704   3.172  10.325 -0.6277  0.2104 -0.8389
  184SLPC    HB21105   3.584   3.297  10.353 -0.3026  0.3781  0.1142
  184SLPC    C221106   3.776   3.367  10.294 -0.1275 -0.1114  0.0553
  184SLPC    HS21107   3.879   3.345  10.329 -0.5935 -1.2855  0.6874
  184SLPC   O2121108   3.744   3.503  10.315  0.3952  0.6343  0.4887
  184SLPC   C2121109   3.839   3.588  10.290  0.6090  0.0175  0.3535
  184SLPC   O2221110   3.948   3.566  10.249  0.7743 -0.0602 -0.2979
  184SLPC   C2221111   3.800   3.732  10.320 -0.8311 -0.2091 -0.0064
  184SLPC   H2R21112   3.702   3.727  10.370 -0.1570  2.8602  1.7566
  184SLPC   H2S21113   3.879   3.768  10.390 -0.1934  1.3531 -1.4934
  184SLPC    C321114   3.762   3.340  10.142  0.6985  0.3366 -0.4734
  184SLPC    HX21115   3.827   3.412  10.088 -0.6821  1.1461 -1.0776
  184SLPC    HY21116   3.663   3.378  10.106  0.6782 -0.4399 -1.2387
  184SLPC   O3121117   3.774   3.207  10.098 -0.1198  0.1228  0.5893
  184SLPC   C3121118   3.907   3.180  10.078  0.4162 -0.8521  0.3983
  184SLPC   O3221119   4.000   3.253  10.099 -0.6973  0.2247 -0.2256
  184SLPC   C3221120   3.914   3.037  10.028  0.5640  0.6563 -0.1296
  184SLPC   H2X21121   3.869   2.965  10.100  0.5986  1.2108  0.4561
  184SLPC   H2Y21122   4.023   3.015  10.037  0.4986  0.0064 -0.9387
  184SLPC   C2321123   3.801   3.818  10.193  0.4054  0.0030  0.0159
  184SLPC   H3R21124   3.905   3.806  10.156  0.2068 -0.7542 -0.3187
  184SLPC   H3S21125   3.798   3.923  10.229 -1.0320  0.4158 -1.2470
  184SLPC   C2421126   3.693   3.790  10.089  0.1623  0.0440 -0.5354
  184SLPC   H4R21127   3.590   3.796  10.131  2.0198  2.7394  4.0045
  184SLPC   H4S21128   3.699   3.682  10.062 -1.4204 -0.6964  1.9029
  184SLPC   C2521129   3.705   3.873   9.959 -0.8974  0.2721 -0.4025
  184SLPC   H5R21130   3.803   3.844   9.915  0.6284  1.0019  2.4097
  184SLPC   H5S21131   3.706   3.981   9.982 -0.4399 -0.2260  2.0410
  184SLPC   C2621132   3.603   3.841   9.852  0.2417 -0.6527 -0.8511
  184SLPC   H6R21133   3.502   3.868   9.889 -0.2383  0.1121 -2.6851
  184SLPC   H6S21134   3.612   3.736   9.816  0.1235 -0.8823 -0.2215
  184SLPC   C2721135   3.632   3.919   9.722 -0.2125  0.0697 -0.2265
  184SLPC   H7R21136   3.730   3.890   9.679 -1.7145 -2.4937 -2.0601
  184SLPC   H7S21137   3.611   4.026   9.744 -2.4111 -0.7687  1.9326
  184SLPC   C2821138   3.524   3.887   9.614  0.2774  0.0376 -1.0394
  184SLPC   H8R21139   3.432   3.920   9.668  0.7747  2.6493 -1.7128
  184SLPC   H8S21140   3.514   3.776   9.613 -1.6075  0.1048  1.9985
  184SLPC   C2921141   3.558   3.953   9.489 -0.0737 -0.1564  0.1510
  184SLPC   H9R21142   3.664   3.960   9.461 -0.6366  0.8309 -1.8328
  184SLPC  C21021143   3.482   4.028   9.405 -0.3691  0.8824  0.1641
  184SLPC  H10R21144   3.536   4.061   9.315  3.2255 -0.8374  1.5955
  184SLPC  C21121145   3.337   4.061   9.426  0.0090 -0.3025  0.5724
  184SLPC  H11R21146   3.285   3.981   9.483 -0.2549 -0.9419 -0.5438
  184SLPC  H11S21147   3.286   4.060   9.327 -2.7685 -0.5398  1.9492
  184SLPC  C21221148   3.323   4.189   9.494 -0.2052 -0.4004  0.0675
  184SLPC  H12R21149   3.397   4.201   9.575  0.4926 -0.6683 -0.5285
  184SLPC  C21321150   3.227   4.282   9.477 -0.3486  0.5283 -0.1217
  184SLPC  H13R21151   3.210   4.368   9.542 -0.2934  0.1139  0.4416
  184SLPC  C21421152   3.113   4.251   9.380 -0.0234 -0.3450 -0.8041
  184SLPC  H14R21153   3.017   4.289   9.421 -1.0636 -1.9963 -1.6671
  184SLPC  H14S21154   3.094   4.144   9.360  0.7680 -1.1797  2.5270
  184SLPC  C21521155   3.136   4.328   9.247  0.3913  0.1474 -0.2223
  184SLPC  H15R21156   3.244   4.328   9.220 -0.0955  1.0680 -2.2657
  184SLPC  H15S21157   3.108   4.435   9.256  0.0639  0.1236 -0.9030
  184SLPC  C21621158   3.059   4.269   9.125 -0.2801 -0.3793 -0.3723
  184SLPC  H16R21159   2.950   4.260   9.144 -0.5459  1.8276 -0.6702
  184SLPC  H16S21160   3.102   4.168   9.111 -1.4481 -0.7373 -1.4777
  184SLPC  C21721161   3.077   4.360   8.999  0.5941  0.0511 -0.6914
  184SLPC  H17R21162   3.185   4.388   8.995  0.5457  0.4760  0.7728
  184SLPC  H17S21163   3.016   4.450   9.020  0.3326  0.3357 -2.6027
  184SLPC  C21821164   3.046   4.304   8.863  0.1770  0.0574 -0.3734
  184SLPC  H18R21165   3.125   4.231   8.836  0.6368  1.1111 -1.9183
  184SLPC  H18S21166   3.040   4.385   8.788 -2.7423 -0.2685 -0.5340
  184SLPC  H18T21167   2.952   4.246   8.851 -0.1846  0.6990 -0.6230
  184SLPC   C3321168   3.861   3.016   9.891  0.3686 -0.1392  0.7617
  184SLPC   H3X21169   3.770   3.078   9.879  1.3265  1.4870  1.6754
  184SLPC   H3Y21170   3.837   2.910   9.868 -1.3917  0.2073  0.9356
  184SLPC   C3421171   3.963   3.049   9.775 -0.1509 -0.1335  0.0770
  184SLPC   H4X21172   4.035   2.965   9.787 -0.5510 -0.4618  0.2450
  184SLPC   H4Y21173   4.016   3.143   9.798  4.2896 -1.8024 -2.7279
  184SLPC   C3521174   3.898   3.040   9.630 -1.0386 -0.5363  0.9436
  184SLPC   H5X21175   3.812   3.110   9.629 -1.2070 -0.7378 -0.0088
  184SLPC   H5Y21176   3.872   2.935   9.603  2.0864 -1.2114  0.4027
  184SLPC   C3621177   3.996   3.102   9.535 -0.5085  0.4871 -0.0759
  184SLPC   H6X21178   4.088   3.040   9.527 -2.2005 -2.2687  1.2667
  184SLPC   H6Y21179   4.024   3.204   9.568 -0.4347  0.2383  0.6504
  184SLPC   C3721180   3.937   3.128   9.392  0.6112 -0.0194 -0.7172
  184SLPC   H7X21181   3.874   3.219   9.400  0.2743 -0.2174 -1.1560
  184SLPC   H7Y21182   3.865   3.048   9.365  0.1235  0.1625  0.0470
  184SLPC   C3821183   4.049   3.152   9.285  0.3890 -0.4049 -0.6833
  184SLPC   H8X21184   4.133   3.085   9.312  0.7059 -0.4722 -1.8351
  184SLPC   H8Y21185   4.080   3.258   9.300 -2.2698  0.3046  0.1747
  184SLPC   C3921186   4.001   3.153   9.142 -0.2147 -0.4956  0.4476
  184SLPC   H9X21187   3.920   3.228   9.130 -2.5994 -3.1325 -0.3655
  184SLPC   H9Y21188   3.965   3.054   9.108 -0.9548 -1.1941  3.1937
  184SLPC  C31021189   4.114   3.187   9.046 -0.5623 -0.8319  0.0743
  184SLPC  H10X21190   4.202   3.128   9.080  0.5107  0.6468 -0.0819
  184SLPC  H10Y21191   4.143   3.294   9.057 -2.1118 -0.2686 -1.0974
  184SLPC  C31121192   4.078   3.154   8.897  0.1763 -1.0029 -0.1210
  184SLPC  H11X21193   4.066   3.044   8.892  1.4932 -1.1677  0.1443
  184SLPC  H11Y21194   4.167   3.190   8.841 -0.6545  0.2181 -0.6681
  184SLPC  C31221195   3.959   3.235   8.849  0.7588  0.0673 -0.1996
  184SLPC  H12X21196   3.981   3.344   8.856 -0.7738  0.4252 -0.7979
  184SLPC  H12Y21197   3.871   3.208   8.910 -0.2068  0.2737 -1.4923
  184SLPC  C31321198   3.930   3.193   8.705  0.7833  0.3916  0.3933
  184SLPC  H13X21199   3.883   3.093   8.708  0.4163  0.5970  2.0368
  184SLPC  H13Y21200   4.022   3.187   8.643  0.4368 -1.2727  0.0284
  184SLPC  C31421201   3.839   3.286   8.625 -0.1487  0.5429  0.0477
  184SLPC  H14X21202   3.897   3.369   8.580 -0.1419  0.7164  0.3722
  184SLPC  H14Y21203   3.783   3.342   8.703 -0.0833 -1.2460  1.4297
  184SLPC  C31521204   3.738   3.222   8.534  0.0686  0.1968 -0.2400
  184SLPC  H15X21205   3.681   3.153   8.600 -1.3563  2.2220  0.6856
  184SLPC  H15Y21206   3.780   3.166   8.447 -0.2170 -0.2797 -0.0712
  184SLPC  C31621207   3.626   3.320   8.478  0.4277  0.1780 -1.0090
  184SLPC  H16X21208   3.687   3.378   8.406  2.9985 -1.2453 -0.0479
  184SLPC  H16Y21209   3.593   3.378   8.567  1.0286 -1.8574  0.5691
  184SLPC  C31721210   3.507   3.259   8.397  0.3584  0.4091 -0.1836
  184SLPC  H17X21211   3.456   3.198   8.475  0.7495 -1.8987 -1.6755
  184SLPC  H17Y21212   3.542   3.198   8.311  0.8992  1.3762 -0.6627
  184SLPC  C31821213   3.417   3.366   8.337 -0.1799  0.1596 -0.1739
  184SLPC  H18X21214   3.480   3.420   8.264 -0.2082  0.6191  0.1415
  184SLPC  H18Y21215   3.377   3.433   8.415  0.4503  0.7001 -0.3107
  184SLPC  H18Z21216   3.326   3.330   8.283  0.4714 -0.8358 -0.6208
  185SLPC     N21217   1.620   0.740   6.216  0.5156 -0.1807  0.0266
  185SLPC   C1321218   1.633   0.607   6.278  0.4359  0.1557  0.0036
  185SLPC  H13A21219   1.685   0.552   6.201  0.0684 -1.9848  1.2350
  185SLPC  H13B21220   1.687   0.607   6.372 -1.3580 -0.0446  1.0692
  185SLPC  H13C21221   1.542   0.553   6.298 -0.2584  1.1915 -0.3645
  185SLPC   C1421222   1.566   0.833   6.318  0.0611 -0.0788  0.4509
  185SLPC  H14A21223   1.517   0.916   6.269 -0.5392 -1.1185 -0.7468
  185SLPC  H14B21224   1.490   0.795   6.384 -0.0613  0.4176  0.5962
  185SLPC  H14C21225   1.642   0.866   6.387  0.3907  0.5267 -0.2004
  185SLPC   C1521226   1.531   0.727   6.091 -0.0318  0.2505 -0.1442
  185SLPC  H15A21227   1.435   0.680   6.109  0.0808  0.2926  0.5793
  185SLPC  H15B21228   1.505   0.827   6.057  1.3787  0.2716 -1.1815
  185SLPC  H15C21229   1.579   0.674   6.011  0.8806 -0.6944  1.0140
  185SLPC   C1221230   1.753   0.809   6.175  0.8219 -0.1014  0.3286
  185SLPC  H12A21231   1.741   0.908   6.134 -3.7388 -1.3261 -1.6134
  185SLPC  H12B21232   1.788   0.755   6.088 -1.0595  0.8430 -1.0383
  185SLPC   C1121233   1.862   0.827   6.283 -0.3077 -0.5207 -0.0795
  185SLPC  H11A21234   1.951   0.854   6.223  0.2316  1.2365  1.4869
  185SLPC  H11B21235   1.874   0.728   6.332  1.4420 -1.0729 -1.5552
  185SLPC     P21236   1.944   0.945   6.494  0.1741 -0.4623 -0.2331
  185SLPC   O1321237   2.075   0.888   6.459  0.5633 -0.2771  0.2287
  185SLPC   O1421238   1.947   1.089   6.514 -0.4219  0.3027  0.1856
  185SLPC   O1221239   1.836   0.924   6.384 -0.3025 -0.2889  0.4508
  185SLPC   O1121240   1.884   0.863   6.619 -0.1823 -0.2755  0.1211
  185SLPC    C121241   1.765   0.897   6.686 -0.5242  0.6299 -0.9253
  185SLPC    HA21242   1.702   0.974   6.637 -0.8949  0.1772 -1.1744
  185SLPC    HB21243   1.697   0.809   6.681 -0.1258  0.2442  0.2721
  185SLPC    C221244   1.788   0.918   6.838  0.2317 -0.7906  0.1560
  185SLPC    HS21245   1.855   1.006   6.843 -0.8715 -0.0251  2.7172
  185SLPC   O2121246   1.822   0.794   6.907  0.5456 -0.6022 -0.6274
  185SLPC   C2121247   1.957   0.771   6.915  0.2239 -0.2250  0.0686
  185SLPC   O2221248   2.045   0.852   6.886  0.3694  0.3505  0.0963
  185SLPC   C2221249   1.970   0.629   6.938 -0.1996 -0.2633  0.4331
  185SLPC   H2R21250   1.914   0.576   6.858  0.3770 -1.4104  0.7735
  185SLPC   H2S21251   2.075   0.601   6.916 -0.8526 -0.2029 -3.0364
  185SLPC    C321252   1.652   0.969   6.895 -0.2766  0.0203  0.8301
  185SLPC    HX21253   1.577   0.893   6.866  0.9062 -1.4435  1.4986
  185SLPC    HY21254   1.623   1.065   6.849  0.1365 -1.5910 -2.9219
  185SLPC   O3121255   1.652   0.980   7.041 -0.7192 -0.2055  0.1058
  185SLPC   C3121256   1.721   1.091   7.075  0.0094 -0.2976 -1.2037
  185SLPC   O3221257   1.749   1.182   7.002 -0.0574 -0.6098 -0.2754
  185SLPC   C3221258   1.758   1.098   7.220  0.1199  0.3831 -0.0895
  185SLPC   H2X21259   1.841   1.026   7.237  0.4674  1.0611  1.1163
  185SLPC   H2Y21260   1.676   1.059   7.284  2.6920 -1.9265  1.9005
  185SLPC   C2321261   1.930   0.601   7.087 -0.2301 -0.1261  0.1625
  185SLPC   H3R21262   1.919   0.490   7.087 -1.3182 -0.1075 -4.2980
  185SLPC   H3S21263   1.833   0.652   7.103  0.6152  1.2088  1.1694
  185SLPC   C2421264   2.027   0.647   7.195  0.6178 -0.4437 -0.1386
  185SLPC   H4R21265   2.038   0.757   7.201 -2.2839 -0.0610 -1.0315
  185SLPC   H4S21266   2.130   0.605   7.184  1.2220  1.0070 -0.1290
  185SLPC   C2521267   1.967   0.597   7.330 -0.2048  0.2025 -0.2370
  185SLPC   H5R21268   1.938   0.490   7.323  0.9993 -0.1901  0.5718
  185SLPC   H5S21269   1.870   0.651   7.339 -0.7129 -0.7760  0.2309
  185SLPC   C2621270   2.073   0.608   7.447 -0.5425  0.5971 -0.1273
  185SLPC   H6R21271   2.097   0.717   7.446  0.0054  0.4654 -1.0415
  185SLPC   H6S21272   2.166   0.557   7.417  0.1137  0.8231  1.4591
  185SLPC   C2721273   2.016   0.537   7.575  0.7095  0.7635 -0.0972
  185SLPC   H7R21274   2.001   0.431   7.547  1.7251  0.5054  0.3159
  185SLPC   H7S21275   1.916   0.574   7.606 -0.0462 -0.7265 -0.7056
  185SLPC   C2821276   2.112   0.549   7.697 -0.1446  0.2184  0.0614
  185SLPC   H8R21277   2.123   0.652   7.738 -0.7988 -0.0189  0.8357
  185SLPC   H8S21278   2.211   0.530   7.649 -0.6402  0.5292 -1.1148
  185SLPC   C2921279   2.084   0.454   7.805  0.1014 -0.0280 -0.5375
  185SLPC   H9R21280   2.073   0.350   7.770  0.0394 -0.6416  1.2305
  185SLPC  C21021281   2.091   0.479   7.943  0.4078  0.1868  0.7107
  185SLPC  H10R21282   2.062   0.398   8.011  1.7839 -0.8059  0.1396
  185SLPC  C21121283   2.136   0.603   8.005 -0.2174  0.2854  0.6299
  185SLPC  H11R21284   2.128   0.688   7.934  0.4699 -1.5608 -1.7359
  185SLPC  H11S21285   2.243   0.604   8.034 -0.2345 -0.8708  0.7831
  185SLPC  C21221286   2.046   0.637   8.117 -0.7342  0.0980 -0.1978
  185SLPC  H12R21287   1.945   0.673   8.095  0.0030  3.6278  1.7082
  185SLPC  C21321288   2.078   0.627   8.244  0.8478 -0.0578  0.6856
  185SLPC  H13R21289   1.995   0.647   8.313  0.3742 -3.4816  1.1888
  185SLPC  C21421290   2.211   0.585   8.312  0.1725 -0.0099 -0.3006
  185SLPC  H14R21291   2.214   0.609   8.421 -0.3537 -2.0282  0.1725
  185SLPC  H14S21292   2.294   0.642   8.266  1.0587 -0.8022  0.3208
  185SLPC  C21521293   2.252   0.439   8.292 -0.3077  0.3141 -0.4525
  185SLPC  H15R21294   2.345   0.413   8.346  0.7661  1.4987 -1.6893
  185SLPC  H15S21295   2.270   0.422   8.184 -0.5148  1.4790 -0.6801
  185SLPC  C21621296   2.155   0.328   8.348 -0.3336  0.0687  0.5941
  185SLPC  H16R21297   2.196   0.231   8.313  0.5715 -0.3804  2.8500
  185SLPC  H16S21298   2.048   0.353   8.329 -0.1722  1.8825  1.9281
  185SLPC  C21721299   2.154   0.322   8.497 -0.5344 -0.2198 -0.0646
  185SLPC  H17R21300   2.146   0.422   8.547  0.5285 -0.6508  1.0185
  185SLPC  H17S21301   2.246   0.269   8.528  1.4021  0.3760 -4.4090
  185SLPC  C21821302   2.036   0.240   8.548  0.3328 -0.2806  0.4906
  185SLPC  H18R21303   2.045   0.227   8.658  0.2805 -0.1330  0.5128
  185SLPC  H18S21304   2.023   0.141   8.499  1.1968 -0.7810  1.2505
  185SLPC  H18T21305   1.938   0.290   8.533 -0.7699 -2.5827 -0.2037
  185SLPC   C3321306   1.798   1.236   7.281  0.3847  0.0134 -0.9048
  185SLPC   H3X21307   1.882   1.271   7.217  2.4097 -1.3409  0.9638
  185SLPC   H3Y21308   1.833   1.230   7.386  0.6255  0.7060 -0.9450
  185SLPC   C3421309   1.687   1.343   7.279 -0.9961  0.1849 -0.0052
  185SLPC   H4X21310   1.614   1.304   7.353 -0.9404 -0.5783 -0.3555
  185SLPC   H4Y21311   1.647   1.349   7.175 -0.3111  4.1656 -0.1456
  185SLPC   C3521312   1.720   1.490   7.326 -0.5476 -0.1603  0.1469
  185SLPC   H5X21313   1.627   1.527   7.374 -1.5591 -2.1264 -0.2303
  185SLPC   H5Y21314   1.727   1.554   7.236  0.2838  1.3557  1.2746
  185SLPC   C3621315   1.851   1.498   7.396 -0.0189 -0.3497  0.5009
  185SLPC   H6X21316   1.932   1.481   7.321  0.1058 -0.5481  0.6808
  185SLPC   H6Y21317   1.859   1.423   7.477 -1.5690  1.1363  2.0849
  185SLPC   C3721318   1.876   1.634   7.456 -0.6486 -0.8705  0.2647
  185SLPC   H7X21319   1.793   1.670   7.521 -0.2706  1.8242 -0.6773
  185SLPC   H7Y21320   1.884   1.701   7.367 -1.4975  0.8263  1.4277
  185SLPC   C3821321   1.997   1.633   7.546  0.8016  0.3399 -0.1764
  185SLPC   H8X21322   2.030   1.739   7.545 -2.6106  1.4731 -2.0278
  185SLPC   H8Y21323   2.081   1.577   7.500  1.2104 -0.7578  1.8504
  185SLPC   C3921324   1.981   1.578   7.684 -0.0822  0.5149  0.1020
  185SLPC   H9X21325   1.932   1.478   7.684  2.3851 -0.7499  1.0992
  185SLPC   H9Y21326   1.906   1.645   7.730 -1.5393  0.7400 -2.4846
  185SLPC  C31021327   2.112   1.578   7.761  0.6419  0.5926  0.8149
  185SLPC  H10X21328   2.139   1.685   7.776  2.3150  0.1863  0.8070
  185SLPC  H10Y21329   2.185   1.530   7.693 -0.5945  1.1462 -0.9203
  185SLPC  C31121330   2.100   1.499   7.894  0.4044 -0.3740  0.0472
  185SLPC  H11X21331   2.047   1.552   7.975 -1.4388 -1.9099 -0.1313
  185SLPC  H11Y21332   2.202   1.472   7.930  1.1020  0.9441 -0.8798
  185SLPC  C31221333   2.036   1.358   7.878 -0.8584 -0.3221  1.2316
  185SLPC  H12X21334   2.052   1.330   7.772  0.5298 -0.3391  1.4442
  185SLPC  H12Y21335   1.927   1.367   7.897 -0.7718 -2.3429  2.9369
  185SLPC  C31321336   2.088   1.231   7.949 -0.4525  0.3385 -0.0291
  185SLPC  H13X21337   2.105   1.255   8.056 -0.7317 -0.7792  0.2704
  185SLPC  H13Y21338   2.191   1.213   7.911 -1.3109 -2.5103 -1.1939
  185SLPC  C31421339   2.002   1.108   7.936 -0.7664 -0.1740  0.3191
  185SLPC  H14X21340   1.900   1.141   7.963 -0.5701  0.0121  0.8509
  185SLPC  H14Y21341   2.035   1.034   8.013  1.8006 -1.0695 -1.5676
  185SLPC  C31521342   2.001   1.047   7.799  0.4221  0.2050 -0.1956
  185SLPC  H15X21343   2.105   1.010   7.784  0.6662  1.2981 -1.2869
  185SLPC  H15Y21344   1.969   1.115   7.716  1.6116 -0.6215 -1.3610
  185SLPC  C31621345   1.914   0.927   7.775  0.0241  0.1809  0.0478
  185SLPC  H16X21346   1.938   0.864   7.864 -1.0442 -0.0749  0.1684
  185SLPC  H16Y21347   1.959   0.876   7.687  2.2278 -0.5838  1.5776
  185SLPC  C31721348   1.767   0.966   7.766 -0.3793 -0.0882  0.2351
  185SLPC  H17X21349   1.758   1.048   7.691 -0.1697 -0.3303 -0.0553
  185SLPC  H17Y21350   1.728   1.000   7.864 -0.9033 -2.0094  0.7163
  185SLPC  C31821351   1.681   0.846   7.727  0.6428  0.3535  0.2244
  185SLPC  H18X21352   1.697   0.829   7.618 -0.9402  1.4590 -0.2014
  185SLPC  H18Y21353   1.573   0.865   7.744  0.4737 -0.6340  0.2264
  185SLPC  H18Z21354   1.719   0.750   7.767 -0.3419 -1.4755 -3.0819
  186SLPC     N21355   1.949   3.130   6.387 -0.3935  0.1396 -0.5042
  186SLPC   C1321356   1.993   3.192   6.261 -0.3619 -0.6419 -0.0784
  186SLPC  H13A21357   1.920   3.184   6.182  0.9935 -0.7861 -1.3304
  186SLPC  H13B21358   2.022   3.296   6.264  1.7039 -1.2093  0.3182
  186SLPC  H13C21359   2.081   3.137   6.231 -0.5710 -1.4574  0.7767
  186SLPC   C1421360   1.927   2.984   6.373  0.9428 -0.9236  0.3034
  186SLPC  H14A21361   1.882   2.952   6.466  0.6083 -2.2645 -0.3104
  186SLPC  H14B21362   1.863   2.956   6.291 -0.2054 -0.0082  0.8774
  186SLPC  H14C21363   2.025   2.941   6.354 -0.1223 -2.8654 -0.9107
  186SLPC   C1521364   1.819   3.185   6.430  0.0400 -0.3209  0.0605
  186SLPC  H15A21365   1.755   3.122   6.490 -0.6785  0.7911  0.4576
  186SLPC  H15B21366   1.834   3.280   6.480  1.5571 -0.1419 -0.6969
  186SLPC  H15C21367   1.759   3.213   6.345 -1.4768  2.1523  1.9010
  186SLPC   C1221368   2.064   3.136   6.489  0.7781 -0.4204 -0.6273
  186SLPC  H12A21369   2.014   3.111   6.581  0.6108  0.3704 -0.5020
  186SLPC  H12B21370   2.083   3.241   6.504 -1.8324  0.2258 -1.6404
  186SLPC   C1121371   2.198   3.057   6.473 -0.3776 -0.5757 -0.8771
  186SLPC  H11A21372   2.165   2.952   6.485 -1.9055  0.2100  2.3087
  186SLPC  H11B21373   2.268   3.071   6.558  0.9137  1.4358 -2.2189
  186SLPC     P21374   2.337   3.226   6.342 -0.0735  0.2524 -0.1145
  186SLPC   O1321375   2.405   3.232   6.215  0.1626 -0.0303  0.0200
  186SLPC   O1421376   2.243   3.337   6.372 -0.8825 -0.4867 -0.5277
  186SLPC   O1221377   2.265   3.085   6.351  0.6868  0.6027 -0.1766
  186SLPC   O1121378   2.453   3.208   6.453 -0.4180  0.2347 -0.1780
  186SLPC    C121379   2.572   3.287   6.455  0.0809  0.3288 -0.6622
  186SLPC    HA21380   2.657   3.215   6.452 -1.5481 -1.7107  0.5920
  186SLPC    HB21381   2.584   3.351   6.365  0.9099 -0.7517 -1.3322
  186SLPC    C221382   2.582   3.391   6.572  0.2140 -0.5709  0.0566
  186SLPC    HS21383   2.659   3.462   6.535 -1.1891 -0.6370 -3.1527
  186SLPC   O2121384   2.608   3.328   6.704 -0.6675 -0.0581  0.0130
  186SLPC   C2121385   2.733   3.300   6.719 -0.4528  0.0466 -0.7918
  186SLPC   O2221386   2.818   3.314   6.631  0.5267 -0.4936  0.0434
  186SLPC   C2221387   2.762   3.243   6.856  0.3409  0.3149 -0.6394
  186SLPC   H2R21388   2.760   3.132   6.863 -0.0751  0.3013 -0.9319
  186SLPC   H2S21389   2.871   3.253   6.869  0.4957 -2.6351  0.5896
  186SLPC    C321390   2.451   3.473   6.592 -0.2573 -0.4116  0.7799
  186SLPC    HX21391   2.373   3.406   6.634 -0.6671 -1.0235 -0.9132
  186SLPC    HY21392   2.413   3.508   6.494 -1.5450  1.4330  1.9091
  186SLPC   O3121393   2.485   3.592   6.673  0.0687 -0.8164 -0.5682
  186SLPC   C3121394   2.416   3.599   6.784  0.7776  0.1515  0.4452
  186SLPC   O3221395   2.319   3.530   6.807 -0.4472  0.2917 -0.3385
  186SLPC   C3221396   2.463   3.711   6.881  0.0637 -0.4981 -0.2785
  186SLPC   H2X21397   2.382   3.786   6.885  1.9549  1.7515 -2.4808
  186SLPC   H2Y21398   2.546   3.761   6.826  0.1831  0.1184  0.4608
  186SLPC   C2321399   2.692   3.316   6.976 -0.5680 -0.0679 -0.2695
  186SLPC   H3R21400   2.586   3.281   6.980 -0.3594 -0.6014  0.8262
  186SLPC   H3S21401   2.692   3.424   6.952 -1.1530  0.0426  0.2232
  186SLPC   C2421402   2.754   3.281   7.116 -0.3534 -0.0596  0.0698
  186SLPC   H4R21403   2.855   3.329   7.113 -0.5257  0.3232  0.4073
  186SLPC   H4S21404   2.777   3.173   7.127  1.6361  0.5751  2.6224
  186SLPC   C2521405   2.681   3.329   7.237  0.6105  0.1402 -0.1996
  186SLPC   H5R21406   2.575   3.296   7.240  0.2291  1.3947  0.3423
  186SLPC   H5S21407   2.677   3.439   7.218  0.9643 -0.2589 -2.7757
  186SLPC   C2621408   2.766   3.295   7.359  0.2306  0.0465  0.0109
  186SLPC   H6R21409   2.727   3.356   7.444  0.2409 -1.4485  1.1058
  186SLPC   H6S21410   2.866   3.341   7.345 -0.4098  1.6225  0.4502
  186SLPC   C2721411   2.759   3.150   7.390 -0.1030 -0.4882 -0.0864
  186SLPC   H7R21412   2.840   3.102   7.332  0.5643 -0.6459  0.9621
  186SLPC   H7S21413   2.667   3.096   7.358 -0.7180 -1.7412  3.5220
  186SLPC   C2821414   2.775   3.110   7.533 -0.0792  0.4149 -0.4236
  186SLPC   H8R21415   2.777   2.999   7.536  1.0090  0.4660  2.4449
  186SLPC   H8S21416   2.687   3.147   7.588  0.4873  0.8648  0.1838
  186SLPC   C2921417   2.911   3.166   7.589 -0.2997  0.2171  0.0141
  186SLPC   H9R21418   2.994   3.193   7.523  0.2932  0.6973  0.9497
  186SLPC  C21021419   2.929   3.167   7.722 -0.4073 -0.1978  0.3103
  186SLPC  H10R21420   3.025   3.202   7.764 -0.3461 -1.5296  1.2889
  186SLPC  C21121421   2.831   3.117   7.823  0.0237 -0.1823  0.7191
  186SLPC  H11R21422   2.877   3.033   7.880 -0.8924 -1.5957 -0.5997
  186SLPC  H11S21423   2.738   3.077   7.779 -0.4864  2.1002 -0.3194
  186SLPC  C21221424   2.799   3.231   7.918 -0.0474  0.1272 -0.1545
  186SLPC  H12R21425   2.728   3.302   7.873 -0.3483  0.7029  1.2135
  186SLPC  C21321426   2.854   3.251   8.042 -0.1099  0.0752  0.1575
  186SLPC  H13R21427   2.823   3.344   8.091 -4.1485 -1.1037  0.0477
  186SLPC  C21421428   2.971   3.173   8.108 -0.5483  0.7215  0.5683
  186SLPC  H14R21429   3.020   3.238   8.184 -2.2499 -0.0245  2.3657
  186SLPC  H14S21430   3.049   3.147   8.033  0.3957  0.8635  1.4910
  186SLPC  C21521431   2.910   3.050   8.178 -0.3338  0.1063  0.6454
  186SLPC  H15R21432   3.006   3.001   8.202 -0.3677  0.7161  2.0518
  186SLPC  H15S21433   2.858   2.980   8.109 -2.2618  3.6697 -1.7377
  186SLPC  C21621434   2.829   3.079   8.306 -0.3353  0.5918  0.4569
  186SLPC  H16R21435   2.803   2.981   8.351  0.3302 -0.0558 -0.5425
  186SLPC  H16S21436   2.739   3.138   8.279 -1.0193 -0.1718  1.0377
  186SLPC  C21721437   2.910   3.147   8.414 -0.2655 -0.0980 -0.1660
  186SLPC  H17R21438   2.835   3.151   8.495 -0.6109  2.3771 -0.5769
  186SLPC  H17S21439   2.935   3.253   8.391 -1.3426  0.0986 -0.4562
  186SLPC  C21821440   3.039   3.080   8.476 -0.4657 -0.6835 -0.0247
  186SLPC  H18R21441   3.041   3.091   8.586 -0.0969 -0.2485 -0.0756
  186SLPC  H18S21442   3.129   3.131   8.436 -1.4334  1.1551  0.0758
  186SLPC  H18T21443   3.040   2.973   8.446 -0.8833 -0.7165  0.0667
  186SLPC   C3321444   2.493   3.658   7.021  0.3547 -0.2252  0.2846
  186SLPC   H3X21445   2.578   3.587   7.010  2.3875  1.5110  3.9383
  186SLPC   H3Y21446   2.405   3.599   7.055 -0.9955  1.7250  0.2282
  186SLPC   C3421447   2.554   3.775   7.100  0.1815  0.1920 -0.0576
  186SLPC   H4X21448   2.480   3.841   7.151  0.4418 -1.4899  2.5413
  186SLPC   H4Y21449   2.623   3.829   7.032 -0.0079  0.9643  0.3584
  186SLPC   C3521450   2.633   3.728   7.221  0.0120  0.0229 -0.6233
  186SLPC   H5X21451   2.685   3.813   7.270 -0.1903  0.7110 -1.5824
  186SLPC   H5Y21452   2.709   3.657   7.181 -0.5610 -0.2389 -1.2718
  186SLPC   C3621453   2.543   3.665   7.322  0.4810  0.8533 -0.7276
  186SLPC   H6X21454   2.484   3.583   7.274  3.3214 -0.1053 -2.7063
  186SLPC   H6Y21455   2.473   3.748   7.343  1.7129  1.2920  1.9453
  186SLPC   C3721456   2.606   3.621   7.452 -0.5183 -0.3022 -0.0713
  186SLPC   H7X21457   2.620   3.722   7.497 -2.1489 -0.8579  1.8005
  186SLPC   H7Y21458   2.698   3.563   7.433  0.3295  0.9557  0.1204
  186SLPC   C3821459   2.515   3.546   7.550  0.3501 -0.2581 -0.3069
  186SLPC   H8X21460   2.507   3.444   7.507 -0.3059  0.1325 -1.1216
  186SLPC   H8Y21461   2.414   3.593   7.556  0.3671 -0.1301 -1.0569
  186SLPC   C3921462   2.566   3.543   7.696  0.1148  0.2665 -0.3371
  186SLPC   H9X21463   2.586   3.648   7.726 -1.9249  0.3593  0.8342
  186SLPC   H9Y21464   2.662   3.488   7.704 -0.4582 -0.3159  3.7290
  186SLPC  C31021465   2.453   3.488   7.790  0.0492 -0.2148 -0.6046
  186SLPC  H10X21466   2.418   3.391   7.747 -0.5199 -0.1937 -0.1937
  186SLPC  H10Y21467   2.367   3.556   7.770 -0.2344 -1.1508 -2.7545
  186SLPC  C31121468   2.481   3.471   7.938 -0.4604 -0.3117  0.1397
  186SLPC  H11X21469   2.524   3.560   7.988 -2.9528  1.4794 -0.8127
  186SLPC  H11Y21470   2.561   3.394   7.937 -0.9233 -0.7917 -0.0127
  186SLPC  C31221471   2.362   3.414   8.018 -0.0300 -0.7300 -0.4050
  186SLPC  H12X21472   2.341   3.313   7.977  0.0604 -1.3339  1.0030
  186SLPC  H12Y21473   2.275   3.479   7.994  0.1041  0.4892  2.2212
  186SLPC  C31321474   2.383   3.414   8.173 -0.2153 -0.3875 -0.7124
  186SLPC  H13X21475   2.417   3.516   8.204 -1.4048 -0.4472  0.8801
  186SLPC  H13Y21476   2.474   3.356   8.201  1.0797  1.4422 -1.0173
  186SLPC  C31421477   2.262   3.373   8.253 -0.5734 -0.8463 -0.0432
  186SLPC  H14X21478   2.252   3.262   8.250 -0.5249 -0.8386 -4.1281
  186SLPC  H14Y21479   2.175   3.420   8.202 -0.0297 -1.1341 -1.2426
  186SLPC  C31521480   2.258   3.427   8.402 -1.1256  0.6217  0.0627
  186SLPC  H15X21481   2.168   3.378   8.444 -0.6316  0.6609  1.1738
  186SLPC  H15Y21482   2.253   3.538   8.409 -0.8411  0.6603 -0.3206
  186SLPC  C31621483   2.388   3.384   8.484  0.3637 -0.0159  0.0926
  186SLPC  H16X21484   2.358   3.394   8.591  1.3242 -1.9679  0.5722
  186SLPC  H16Y21485   2.471   3.453   8.457  1.2561  1.1386  5.2660
  186SLPC  C31721486   2.429   3.242   8.467  0.8519  0.2892  0.1102
  186SLPC  H17X21487   2.461   3.222   8.363 -0.2981 -1.7749  0.1162
  186SLPC  H17Y21488   2.344   3.170   8.474  0.3748  0.9619  1.4730
  186SLPC  C31821489   2.545   3.205   8.568  0.3510  0.6457 -0.6111
  186SLPC  H18X21490   2.577   3.098   8.571  1.0186  0.5250 -6.3621
  186SLPC  H18Y21491   2.517   3.229   8.672  3.1995 -2.1652  0.8935
  186SLPC  H18Z21492   2.638   3.262   8.547  1.6127 -0.9602  0.4806
  187SLPC     N21493   2.996   0.516   6.313 -0.0091 -0.4990  0.1981
  187SLPC   C1321494   2.986   0.623   6.419 -0.0275  0.2401 -0.1565
  187SLPC  H13A21495   2.959   0.586   6.517  2.1013  0.5752  0.5760
  187SLPC  H13B21496   3.079   0.675   6.433 -0.6986  0.9662  1.8068
  187SLPC  H13C21497   2.917   0.700   6.386  2.1994  0.9464 -3.3533
  187SLPC   C1421498   3.005   0.591   6.185  0.1890  0.9231 -0.3539
  187SLPC  H14A21499   2.980   0.522   6.106 -0.0819  1.1929 -0.5079
  187SLPC  H14B21500   2.939   0.676   6.177  0.3996  0.8883 -2.7907
  187SLPC  H14C21501   3.105   0.628   6.174  0.1441  1.5716  1.3320
  187SLPC   C1521502   2.867   0.437   6.320  0.3940  0.5241  0.3957
  187SLPC  H15A21503   2.781   0.495   6.349  0.1655  0.8184 -0.8424
  187SLPC  H15B21504   2.858   0.397   6.220 -0.4393  4.3413 -1.1264
  187SLPC  H15C21505   2.866   0.362   6.397  1.7504  0.6488  0.5486
  187SLPC   C1221506   3.115   0.417   6.319 -0.6325  0.2467  0.0955
  187SLPC  H12A21507   3.099   0.347   6.239  0.8073  2.3509 -2.1036
  187SLPC  H12B21508   3.109   0.371   6.417 -0.8525 -1.6549 -0.7823
  187SLPC   C1121509   3.250   0.481   6.305 -0.0933 -0.2679 -0.9544
  187SLPC  H11A21510   3.271   0.537   6.211 -2.2082  0.3589 -1.0690
  187SLPC  H11B21511   3.324   0.398   6.300  1.4031  1.0730 -1.4909
  187SLPC     P21512   3.297   0.533   6.553 -0.2290 -0.0231 -0.6464
  187SLPC   O1321513   3.437   0.498   6.567  0.0041 -0.3589 -0.4818
  187SLPC   O1421514   3.243   0.642   6.643  0.1593  0.9310 -0.1787
  187SLPC   O1221515   3.276   0.574   6.409  0.0842  0.5297  0.9517
  187SLPC   O1121516   3.212   0.404   6.573  0.0748 -0.6509  0.0752
  187SLPC    C121517   3.135   0.376   6.688 -0.7029 -0.5905 -0.8782
  187SLPC    HA21518   3.078   0.465   6.721  1.0693  1.2549 -2.6671
  187SLPC    HB21519   3.062   0.296   6.665 -0.7205 -0.7831 -0.1802
  187SLPC    C221520   3.212   0.307   6.812  0.3326  0.2485  0.8062
  187SLPC    HS21521   3.135   0.247   6.864  1.1637 -2.0329 -0.5520
  187SLPC   O2121522   3.264   0.414   6.909 -0.0114  0.5637 -0.1136
  187SLPC   C2121523   3.171   0.485   6.967 -0.3081 -0.1418  0.4860
  187SLPC   O2221524   3.051   0.468   6.961 -0.0211  0.4829  0.0542
  187SLPC   C2221525   3.236   0.588   7.059 -0.1580  0.2214 -0.5110
  187SLPC   H2R21526   3.346   0.590   7.042  0.0125 -0.3917  0.4606
  187SLPC   H2S21527   3.213   0.689   7.021 -0.2460 -0.3745 -2.0882
  187SLPC    C321528   3.330   0.209   6.774 -0.2955  0.5682 -0.1869
  187SLPC    HX21529   3.385   0.262   6.693  1.2308 -1.9602 -0.8592
  187SLPC    HY21530   3.284   0.119   6.727 -1.0532  0.5569  0.5709
  187SLPC   O3121531   3.412   0.167   6.884  0.1793  1.1586 -0.0017
  187SLPC   C3121532   3.531   0.126   6.857 -0.0093  0.1817  1.1988
  187SLPC   O3221533   3.586   0.118   6.751  0.0158 -0.0395  0.2572
  187SLPC   C3221534   3.612   0.109   6.989 -0.0832  0.8888 -0.3349
  187SLPC   H2X21535   3.706   0.167   6.984  0.8426 -0.7062 -2.2305
  187SLPC   H2Y21536   3.652   0.005   6.979 -0.3740  0.7347  0.0876
  187SLPC   C2321537   3.193   0.584   7.207 -0.0162 -0.5414 -0.4850
  187SLPC   H3R21538   3.085   0.607   7.214  0.6177  2.3443  0.5277
  187SLPC   H3S21539   3.242   0.669   7.260 -4.5965  1.7518  0.2926
  187SLPC   C2421540   3.209   0.452   7.282  0.5947 -0.6833 -1.0770
  187SLPC   H4R21541   3.318   0.427   7.278  0.5414 -0.6437 -3.7399
  187SLPC   H4S21542   3.152   0.367   7.238  0.6576 -1.7476  0.8344
  187SLPC   C2521543   3.154   0.462   7.427  0.2065 -0.6410  0.0944
  187SLPC   H5R21544   3.043   0.459   7.428  0.1413  0.7475  3.7923
  187SLPC   H5S21545   3.187   0.562   7.461  2.1127 -0.3234 -2.5308
  187SLPC   C2621546   3.226   0.362   7.528 -0.0246  0.7134 -0.1248
  187SLPC   H6R21547   3.334   0.378   7.547  0.3067  0.2173 -1.5223
  187SLPC   H6S21548   3.198   0.256   7.509  0.2375  0.5287  0.4994
  187SLPC   C2721549   3.162   0.395   7.663  0.1236 -0.1938 -0.0395
  187SLPC   H7R21550   3.054   0.375   7.676 -0.1962  1.5702  0.1724
  187SLPC   H7S21551   3.169   0.505   7.679  1.8281 -0.3118  0.1642
  187SLPC   C2821552   3.223   0.321   7.783 -0.5099  0.2511  0.1878
  187SLPC   H8R21553   3.327   0.306   7.746  0.2578  1.5532  1.7249
  187SLPC   H8S21554   3.174   0.221   7.790  0.2644 -0.0998  0.6754
  187SLPC   C2921555   3.216   0.389   7.920  0.5685  0.7540  0.8178
  187SLPC   H9R21556   3.132   0.365   7.987  0.7137 -0.8025  0.4594
  187SLPC  C21021557   3.319   0.453   7.985 -0.0345 -0.2704 -0.6543
  187SLPC  H10R21558   3.312   0.493   8.088  1.1778 -3.5914  0.8089
  187SLPC  C21121559   3.458   0.469   7.931  0.3638 -0.4467 -0.2869
  187SLPC  H11R21560   3.509   0.561   7.967 -0.1340 -0.2015 -0.1967
  187SLPC  H11S21561   3.439   0.494   7.824  0.9539 -2.9531 -1.0170
  187SLPC  C21221562   3.534   0.338   7.945 -0.1728  0.7174  0.4691
  187SLPC  H12R21563   3.476   0.250   7.915  1.3735  0.3751 -1.6132
  187SLPC  C21321564   3.658   0.330   7.989  0.2306  0.1458  0.1700
  187SLPC  H13R21565   3.705   0.231   7.998 -0.8608 -0.4130 -0.1957
  187SLPC  C21421566   3.748   0.434   8.059  0.1237 -0.2458 -0.1794
  187SLPC  H14R21567   3.707   0.537   8.060  3.6917  1.2512  0.8859
  187SLPC  H14S21568   3.842   0.451   8.002 -0.4374 -1.0554 -1.3904
  187SLPC  C21521569   3.782   0.386   8.204  0.6506 -0.6471 -0.3217
  187SLPC  H15R21570   3.842   0.292   8.202  1.9616  0.1730 -0.1347
  187SLPC  H15S21571   3.685   0.377   8.256  0.1405  0.4882 -1.0664
  187SLPC  C21621572   3.877   0.486   8.279  0.2405  0.8719 -0.0265
  187SLPC  H16R21573   3.821   0.582   8.284 -1.6205 -0.1395 -1.0361
  187SLPC  H16S21574   3.964   0.492   8.211  0.1461  0.2514 -0.2103
  187SLPC  C21721575   3.912   0.434   8.424 -0.0632 -0.1552  0.1511
  187SLPC  H17R21576   3.948   0.330   8.413 -0.5576 -0.2348 -0.7678
  187SLPC  H17S21577   3.816   0.438   8.480  1.1232  1.4227  2.1842
  187SLPC  C21821578   4.005   0.522   8.512  0.4847  0.2540  0.3771
  187SLPC  H18R21579   4.022   0.474   8.611  1.4254 -0.1170  0.0503
  187SLPC  H18S21580   3.956   0.617   8.540 -0.8049 -1.4303  4.1325
  187SLPC  H18T21581   4.103   0.531   8.460  0.8266  3.3161  1.4800
  187SLPC   C3321582   3.536   0.130   7.122 -0.0052  0.2317 -0.9416
  187SLPC   H3X21583   3.448   0.063   7.134  1.3882 -1.3775  0.6090
  187SLPC   H3Y21584   3.492   0.232   7.122 -0.3193  0.0971 -1.0788
  187SLPC   C3421585   3.614   0.120   7.251  0.6076 -0.2421 -0.6312
  187SLPC   H4X21586   3.540   0.156   7.327 -1.8998 -1.4060 -2.4512
  187SLPC   H4Y21587   3.707   0.180   7.261  0.5135 -0.3410  1.1154
  187SLPC   C3521588   3.648  -0.029   7.273  0.4579 -0.7908 -0.0011
  187SLPC   H5X21589   3.709  -0.054   7.183 -1.4500 -2.8464 -0.7758
  187SLPC   H5Y21590   3.557  -0.092   7.257  0.7739 -1.2015 -0.1990
  187SLPC   C3621591   3.731  -0.068   7.396  0.7726  0.1058 -0.3836
  187SLPC   H6X21592   3.819   0.001   7.399  2.8286 -2.4986  1.1427
  187SLPC   H6Y21593   3.773  -0.170   7.387 -0.0334  0.0141 -3.6554
  187SLPC   C3721594   3.659  -0.068   7.536 -0.7069 -0.4988 -0.3464
  187SLPC   H7X21595   3.628   0.034   7.566  3.4938 -0.3945  4.2711
  187SLPC   H7Y21596   3.576  -0.142   7.542 -1.5984  0.4747 -0.4253
  187SLPC   C3821597   3.752  -0.110   7.648  0.1801 -0.8362 -0.2881
  187SLPC   H8X21598   3.839  -0.042   7.635 -0.6059  0.1794 -0.2937
  187SLPC   H8Y21599   3.776  -0.218   7.639  0.7459 -0.7108 -0.3059
  187SLPC   C3921600   3.700  -0.071   7.790 -0.0276 -0.0589 -0.2321
  187SLPC   H9X21601   3.607  -0.124   7.820  0.1211  0.4635  1.2162
  187SLPC   H9Y21602   3.681   0.038   7.796 -0.6503 -0.2225  1.0618
  187SLPC  C31021603   3.806  -0.111   7.904  0.2461 -1.0285 -0.2462
  187SLPC  H10X21604   3.903  -0.063   7.881  1.4295 -1.1311  4.0784
  187SLPC  H10Y21605   3.831  -0.218   7.886  1.0765 -0.7464 -0.7608
  187SLPC  C31121606   3.773  -0.081   8.054 -0.2591  0.5701  0.4289
  187SLPC  H11X21607   3.753   0.028   8.048 -1.4463  0.4035  1.1285
  187SLPC  H11Y21608   3.866  -0.105   8.111 -0.3353  2.4415  1.3543
  187SLPC  C31221609   3.658  -0.164   8.108 -0.2924 -0.2283  0.0257
  187SLPC  H12X21610   3.691  -0.270   8.112 -1.0597 -0.5464 -1.6163
  187SLPC  H12Y21611   3.563  -0.167   8.052  0.0365  2.9942 -0.8225
  187SLPC  C31321612   3.615  -0.121   8.243  0.0382  0.0586  0.4100
  187SLPC  H13X21613   3.709  -0.121   8.302  0.7371 -2.0149 -0.6271
  187SLPC  H13Y21614   3.549  -0.201   8.285  0.4349 -0.2626  0.4278
  187SLPC  C31421615   3.544   0.009   8.254  0.2252 -0.0007 -0.3053
  187SLPC  H14X21616   3.437   0.011   8.224 -0.2049 -0.2690  1.1844
  187SLPC  H14Y21617   3.594   0.085   8.190  0.0379  0.4155  0.0430
  187SLPC  C31521618   3.566   0.048   8.397  0.5234 -0.2668  0.7841
  187SLPC  H15X21619   3.510   0.143   8.411 -0.8700 -1.0446  0.5980
  187SLPC  H15Y21620   3.676   0.062   8.405  0.6036  0.9016 -1.8395
  187SLPC  C31621621   3.506  -0.039   8.508  0.2441  0.4808 -0.4027
  187SLPC  H16X21622   3.565  -0.133   8.508 -0.4140  0.0265 -2.3184
  187SLPC  H16Y21623   3.404  -0.076   8.482 -0.1463  2.0707 -1.2249
  187SLPC  C31721624   3.494   0.041   8.643  0.0486 -0.3632  0.2830
  187SLPC  H17X21625   3.409   0.112   8.631  0.0643 -0.0167  2.1600
  187SLPC  H17Y21626   3.588   0.100   8.645  0.8112 -1.5708  0.8077
  187SLPC  C31821627   3.484  -0.041   8.762  0.0173  0.2988  0.0668
  187SLPC  H18X21628   3.388  -0.097   8.760 -0.2021  0.7023 -0.9185
  187SLPC  H18Y21629   3.493   0.021   8.854 -1.7563 -0.9694  1.1366
  187SLPC  H18Z21630   3.560  -0.122   8.762 -2.4655 -2.0825 -0.1503
  188SLPC     N21631   4.816   1.125   6.418  0.0224  0.1262 -0.0939
  188SLPC   C1321632   4.817   1.022   6.531  0.3592 -0.2654  0.8775
  188SLPC  H13A21633   4.734   1.034   6.599  0.3105  2.6930  0.3483
  188SLPC  H13B21634   4.812   0.919   6.500 -1.0065  0.3432 -1.0231
  188SLPC  H13C21635   4.899   1.033   6.600  0.3406 -0.0118  0.8593
  188SLPC   C1421636   4.683   1.130   6.357 -0.2289  0.5454 -0.0836
  188SLPC  H14A21637   4.657   1.034   6.316  2.0198 -0.2737  0.3185
  188SLPC  H14B21638   4.605   1.155   6.427 -2.6442 -2.2498 -1.6361
  188SLPC  H14C21639   4.687   1.201   6.276  3.1329 -0.2767 -0.7053
  188SLPC   C1521640   4.922   1.090   6.323 -0.3013  0.5032 -0.3398
  188SLPC  H15A21641   4.893   1.012   6.254  1.0265  0.2707 -0.6534
  188SLPC  H15B21642   4.968   1.173   6.271  2.9088 -0.0297  1.5236
  188SLPC  H15C21643   5.003   1.053   6.384 -2.0977 -0.6263  1.4317
  188SLPC   C1221644   4.840   1.257   6.485  0.7046 -0.3484 -0.3418
  188SLPC  H12A21645   4.867   1.326   6.407 -0.1494 -0.7006 -0.9618
  188SLPC  H12B21646   4.921   1.240   6.554  1.7382 -0.8459 -1.6499
  188SLPC   C1121647   4.724   1.329   6.567 -0.7052 -0.4596 -0.7468
  188SLPC  H11A21648   4.691   1.253   6.641 -0.3423  0.8216  0.7693
  188SLPC  H11B21649   4.639   1.364   6.504 -1.0771  0.7041  0.3736
  188SLPC     P21650   4.811   1.571   6.536  0.0697 -0.0033  0.0135
  188SLPC   O1321651   4.878   1.672   6.614 -0.7249  0.3407  0.2336
  188SLPC   O1421652   4.892   1.529   6.420 -0.5268 -0.0481  0.4944
  188SLPC   O1221653   4.783   1.444   6.624  0.3347 -0.6936  0.4386
  188SLPC   O1121654   4.672   1.609   6.476  0.5814 -0.4042 -0.4353
  188SLPC    C121655   4.556   1.634   6.559  0.3170 -0.0654  0.2008
  188SLPC    HA21656   4.476   1.557   6.553  1.1596 -1.1349  2.3239
  188SLPC    HB21657   4.581   1.629   6.667  1.6843 -0.6616 -0.1397
  188SLPC    C221658   4.505   1.782   6.536  0.5644 -0.5261  0.5971
  188SLPC    HS21659   4.454   1.779   6.437  2.1456  1.2786 -0.2888
  188SLPC   O2121660   4.611   1.871   6.533 -0.7214 -0.3871 -0.0739
  188SLPC   C2121661   4.589   1.995   6.513  0.3347 -0.3971  0.1781
  188SLPC   O2221662   4.484   2.053   6.480  0.1807  0.1520  0.7585
  188SLPC   C2221663   4.717   2.067   6.509  0.5078 -0.4190  0.5758
  188SLPC   H2R21664   4.796   2.009   6.562  0.6573 -0.7757 -0.0369
  188SLPC   H2S21665   4.748   2.089   6.405 -1.4227  1.6155  0.3875
  188SLPC    C321666   4.392   1.812   6.637  0.7573 -0.0398  0.6344
  188SLPC    HX21667   4.303   1.746   6.622 -0.4019  1.4852  0.7686
  188SLPC    HY21668   4.360   1.914   6.608  0.8812 -0.3777 -0.7191
  188SLPC   O3121669   4.443   1.794   6.770  0.1720 -0.1589 -0.1905
  188SLPC   C3121670   4.393   1.878   6.860 -0.0424  0.5265  0.0375
  188SLPC   O3221671   4.317   1.971   6.842  0.2293 -0.4476 -0.0581
  188SLPC   C3221672   4.439   1.856   6.998 -0.3374 -0.2533 -0.1485
  188SLPC   H2X21673   4.463   1.955   7.040 -3.7416  1.0058 -0.9510
  188SLPC   H2Y21674   4.527   1.788   7.004 -0.7770 -0.8438 -0.2912
  188SLPC   C2321675   4.711   2.202   6.583 -0.5990 -0.2645  0.1790
  188SLPC   H3R21676   4.625   2.264   6.551 -1.4835 -1.7192 -0.3048
  188SLPC   H3S21677   4.803   2.254   6.549  0.2516 -2.5912 -1.2023
  188SLPC   C2421678   4.706   2.187   6.734  0.3194 -0.1706 -0.0667
  188SLPC   H4R21679   4.798   2.129   6.756  0.6767  0.8783  1.2761
  188SLPC   H4S21680   4.611   2.136   6.762 -0.1345  1.7662  2.0568
  188SLPC   C2521681   4.714   2.316   6.809  0.0810  0.3527 -0.8443
  188SLPC   H5R21682   4.624   2.379   6.795 -0.6580 -0.5742 -0.3333
  188SLPC   H5S21683   4.805   2.375   6.786 -0.9183  2.6421  0.9822
  188SLPC   C2621684   4.729   2.290   6.961  0.6101 -0.2467 -0.4364
  188SLPC   H6R21685   4.806   2.216   6.992 -0.2265 -0.7970  0.3472
  188SLPC   H6S21686   4.633   2.262   7.008  0.8503  0.5559  0.5433
  188SLPC   C2721687   4.756   2.416   7.037  0.0907 -0.0747 -0.0153
  188SLPC   H7R21688   4.689   2.500   7.007 -0.9432 -0.3154  1.5822
  188SLPC   H7S21689   4.863   2.444   7.021 -0.3804  0.7458 -1.9466
  188SLPC   C2821690   4.724   2.407   7.183  0.3378  0.2043 -0.2735
  188SLPC   H8R21691   4.778   2.320   7.226  1.2255  1.6050  1.5406
  188SLPC   H8S21692   4.614   2.394   7.196  0.1916  2.7713  1.4480
  188SLPC   C2921693   4.774   2.519   7.266 -0.1214  0.3098  0.2396
  188SLPC   H9R21694   4.860   2.574   7.225  1.9029 -1.5679  1.8751
  188SLPC  C21021695   4.712   2.565   7.375  0.0144 -0.2954  0.2237
  188SLPC  H10R21696   4.758   2.650   7.427 -1.3316  0.3916  0.2887
  188SLPC  C21121697   4.579   2.517   7.426 -0.3238  0.2291  0.0836
  188SLPC  H11R21698   4.516   2.490   7.338 -0.4890  1.6372 -0.2408
  188SLPC  H11S21699   4.522   2.598   7.478 -1.3378  0.1105 -0.8206
  188SLPC  C21221700   4.599   2.406   7.522 -0.5636 -0.1081 -0.1500
  188SLPC  H12R21701   4.580   2.307   7.479 -0.4667  0.3737 -1.3174
  188SLPC  C21321702   4.632   2.407   7.645 -0.1837  0.9664 -0.1617
  188SLPC  H13R21703   4.633   2.312   7.699  0.9333  2.8524  3.2246
  188SLPC  C21421704   4.637   2.530   7.730  0.3465  0.8553 -0.2475
  188SLPC  H14R21705   4.550   2.599   7.720  0.4806  1.0730  0.1077
  188SLPC  H14S21706   4.725   2.593   7.705  2.0525 -0.7725  1.5960
  188SLPC  C21521707   4.633   2.506   7.883  0.2668  0.4967 -0.6902
  188SLPC  H15R21708   4.616   2.602   7.936  1.5885 -0.9956  2.5399
  188SLPC  H15S21709   4.734   2.468   7.909 -0.7158 -1.6005  0.1273
  188SLPC  C21621710   4.510   2.427   7.934  0.0437 -0.3454 -0.4486
  188SLPC  H16R21711   4.538   2.321   7.921  2.6129  0.0359  1.6041
  188SLPC  H16S21712   4.413   2.453   7.886  0.8238  1.8390 -0.9361
  188SLPC  C21721713   4.496   2.450   8.091 -0.1702  0.4441 -0.1379
  188SLPC  H17R21714   4.474   2.556   8.118 -1.0978  0.2142  0.0308
  188SLPC  H17S21715   4.597   2.434   8.136 -1.5077  1.0222  3.2008
  188SLPC  C21821716   4.395   2.350   8.155  0.2056  0.3431  0.7068
  188SLPC  H18R21717   4.371   2.368   8.262 -0.7497  1.2228  0.3544
  188SLPC  H18S21718   4.445   2.251   8.159  0.7730  0.5388 -1.1159
  188SLPC  H18T21719   4.300   2.344   8.098  0.5489 -1.9187  0.3368
  188SLPC   C3321720   4.326   1.803   7.086  0.1928 -0.0928 -0.6330
  188SLPC   H3X21721   4.272   1.721   7.034 -1.2622 -0.3609  1.2196
  188SLPC   H3Y21722   4.252   1.882   7.112  1.4545  0.9223 -0.1042
  188SLPC   C3421723   4.376   1.740   7.214 -0.4033  0.4359 -0.3230
  188SLPC   H4X21724   4.381   1.814   7.296  0.6954  0.8501 -0.7566
  188SLPC   H4Y21725   4.469   1.685   7.192 -0.5860  0.1813 -0.4618
  188SLPC   C3521726   4.263   1.649   7.272 -0.2552  0.1543  0.0802
  188SLPC   H5X21727   4.259   1.557   7.211  0.8896  0.1129  0.0689
  188SLPC   H5Y21728   4.171   1.710   7.255  0.5471  1.8865  1.7218
  188SLPC   C3621729   4.279   1.596   7.417  0.2942 -0.1506  0.0887
  188SLPC   H6X21730   4.332   1.671   7.479 -1.0320 -1.6899  3.1769
  188SLPC   H6Y21731   4.349   1.510   7.409  1.2983  0.7369 -0.6429
  188SLPC   C3721732   4.153   1.569   7.502  0.2735 -0.4348 -0.1470
  188SLPC   H7X21733   4.099   1.484   7.454 -1.7964  1.6063 -1.5843
  188SLPC   H7Y21734   4.083   1.656   7.497  0.8596  0.0368 -0.1923
  188SLPC   C3821735   4.200   1.537   7.644 -0.2505 -0.0175  0.1958
  188SLPC   H8X21736   4.251   1.626   7.687 -0.9613 -0.1400  1.2987
  188SLPC   H8Y21737   4.272   1.454   7.632  1.0865  1.4505 -2.3984
  188SLPC   C3921738   4.079   1.489   7.728  0.6679 -0.4078  0.2419
  188SLPC   H9X21739   4.051   1.387   7.695  0.2347 -0.1892 -0.0678
  188SLPC   H9Y21740   3.992   1.558   7.722  0.7212 -0.2255  1.3672
  188SLPC  C31021741   4.129   1.475   7.872 -0.0003 -0.2104  0.4746
  188SLPC  H10X21742   4.163   1.573   7.912  1.1983 -1.1675  1.8394
  188SLPC  H10Y21743   4.213   1.403   7.873 -0.7717 -1.1209  0.2581
  188SLPC  C31121744   4.028   1.434   7.975  0.3821 -0.0086 -0.5617
  188SLPC  H11X21745   3.999   1.326   7.971  2.4324 -0.6761  1.5451
  188SLPC  H11Y21746   3.936   1.496   7.974  0.0538 -0.4869  0.0051
  188SLPC  C31221747   4.088   1.436   8.120  0.4118 -0.2244  0.0532
  188SLPC  H12X21748   4.123   1.540   8.130  0.7319 -0.2206 -1.0574
  188SLPC  H12Y21749   4.171   1.363   8.129 -1.1413 -2.1911 -0.8997
  188SLPC  C31321750   3.984   1.412   8.229 -0.3825  0.8545 -0.0403
  188SLPC  H13X21751   3.981   1.301   8.224  0.9908  0.7840  0.4905
  188SLPC  H13Y21752   3.885   1.456   8.204 -1.6150 -0.3312  2.5268
  188SLPC  C31421753   4.028   1.446   8.369  0.5930  0.5097  0.7023
  188SLPC  H14X21754   4.040   1.556   8.366 -0.5694  0.6385  0.5206
  188SLPC  H14Y21755   4.128   1.408   8.398  0.6361  0.0370 -0.0595
  188SLPC  C31521756   3.922   1.424   8.477  0.0014  0.9471  0.4349
  188SLPC  H15X21757   3.886   1.320   8.494  0.3277  0.8015  0.2366
  188SLPC  H15Y21758   3.834   1.473   8.429 -0.3512  0.1298  0.2230
  188SLPC  C31621759   3.954   1.511   8.601  0.1756 -0.0888  0.4289
  188SLPC  H16X21760   4.010   1.604   8.573  0.1474  0.0078  0.6933
  188SLPC  H16Y21761   4.036   1.460   8.656  0.1378  1.2283  1.7525
  188SLPC  C31721762   3.825   1.553   8.686 -0.0306 -0.1111  0.2238
  188SLPC  H17X21763   3.778   1.478   8.753 -1.1432  0.3432 -0.0244
  188SLPC  H17Y21764   3.742   1.587   8.620 -1.0264  2.3213  2.6101
  188SLPC  C31821765   3.857   1.663   8.785  0.2924  0.4123  0.3179
  188SLPC  H18X21766   3.902   1.749   8.731  0.4965 -0.0278 -0.2084
  188SLPC  H18Y21767   3.935   1.643   8.861 -0.5728 -2.7930  0.4395
  188SLPC  H18Z21768   3.768   1.687   8.848 -0.8983 -1.4163 -0.6071
  189SLPC     N21769   6.462   3.298   6.298 -0.2059 -0.9457  0.4987
  189SLPC   C1321770   6.593   3.333   6.377  0.3961  0.6287 -0.1251
  189SLPC  H13A21771   6.595   3.428   6.427  0.9237  0.9079 -0.6583
  189SLPC  H13B21772   6.605   3.262   6.458  4.5968  1.5592  0.1834
  189SLPC  H13C21773   6.677   3.332   6.308  1.9320  1.1212  1.6916
  189SLPC   C1421774   6.497   3.176   6.220 -0.3205 -0.4399 -0.4077
  189SLPC  H14A21775   6.563   3.186   6.135 -1.1025  0.9738 -0.8694
  189SLPC  H14B21776   6.554   3.103   6.275 -2.2895 -0.5909  1.4855
  189SLPC  H14C21777   6.403   3.130   6.192 -1.5574  2.0782 -0.4653
  189SLPC   C1521778   6.437   3.417   6.216  0.2695  0.4807  0.0620
  189SLPC  H15A21779   6.530   3.457   6.176  1.9649 -0.3669  3.0144
  189SLPC  H15B21780   6.384   3.383   6.128  1.4044  2.2418 -1.3480
  189SLPC  H15C21781   6.393   3.499   6.269 -1.8885 -0.0549 -0.8660
  189SLPC   C1221782   6.344   3.269   6.389  0.2829  0.5570  0.1032
  189SLPC  H12A21783   6.365   3.181   6.448  0.1533  1.6425  1.8126
  189SLPC  H12B21784   6.259   3.240   6.329  1.0509 -1.3246 -0.0958
  189SLPC   C1121785   6.296   3.384   6.490  0.7032 -0.1350 -0.4894
  189SLPC  H11A21786   6.384   3.406   6.554 -0.0328 -1.9425  1.2049
  189SLPC  H11B21787   6.219   3.344   6.559  0.0239  3.7284  1.0986
  189SLPC     P21788   6.113   3.577   6.422 -0.4345  0.2914 -0.2601
  189SLPC   O1321789   6.125   3.718   6.480  0.3022  0.1194 -0.0478
  189SLPC   O1421790   6.057   3.562   6.289 -0.0599 -0.2244  0.2140
  189SLPC   O1221791   6.253   3.506   6.428  0.3761  0.3218 -0.4577
  189SLPC   O1121792   6.031   3.484   6.517 -0.3508  0.0401 -0.8115
  189SLPC    C121793   5.920   3.522   6.594 -0.3062  0.4015  0.0154
  189SLPC    HA21794   5.875   3.620   6.569 -2.1517 -0.1595  1.0309
  189SLPC    HB21795   5.842   3.444   6.586  2.1081 -2.1180  0.0533
  189SLPC    C221796   5.943   3.519   6.753 -0.5884  0.2974 -0.3912
  189SLPC    HS21797   5.850   3.561   6.797  1.5525  3.6066  1.1604
  189SLPC   O2121798   6.053   3.598   6.797  0.7466  0.1444  0.2236
  189SLPC   C2121799   6.036   3.727   6.805 -0.3542 -0.0389 -0.6702
  189SLPC   O2221800   5.930   3.791   6.789  0.6392  0.5063 -0.0839
  189SLPC   C2221801   6.166   3.798   6.833 -0.3962 -0.3739 -0.1235
  189SLPC   H2R21802   6.237   3.747   6.766 -0.5656  0.9333 -1.3418
  189SLPC   H2S21803   6.148   3.902   6.797 -0.8681  0.1257  1.5031
  189SLPC    C321804   5.965   3.370   6.800  0.2274  0.4542  0.5562
  189SLPC    HX21805   6.067   3.339   6.767  0.2004 -1.4750  2.1942
  189SLPC    HY21806   5.884   3.308   6.755 -0.7240  0.6241  2.0190
  189SLPC   O3121807   5.952   3.362   6.944  0.4115  0.0166 -1.0631
  189SLPC   C3121808   5.971   3.234   6.990 -0.1190 -0.3668 -0.0589
  189SLPC   O3221809   5.991   3.134   6.913  0.1181 -0.1861  0.4521
  189SLPC   C3221810   5.960   3.230   7.140 -0.8962 -0.4198  0.0047
  189SLPC   H2X21811   6.055   3.200   7.189 -0.8862 -0.0213  0.2380
  189SLPC   H2Y21812   5.883   3.152   7.158 -2.3116  0.8571 -0.3409
  189SLPC   C2321813   6.202   3.789   6.982  0.1887  0.4825  0.5676
  189SLPC   H3R21814   6.295   3.849   6.988 -0.7176  2.1355 -1.2700
  189SLPC   H3S21815   6.220   3.684   7.013 -0.4906  0.5724  1.2747
  189SLPC   C2421816   6.098   3.864   7.065  0.0036  0.4701  0.0505
  189SLPC   H4R21817   5.996   3.819   7.061 -0.1762  0.9202 -0.5384
  189SLPC   H4S21818   6.068   3.962   7.023 -2.0986 -0.4152 -0.5963
  189SLPC   C2521819   6.149   3.865   7.203 -0.4930 -0.3909 -0.2149
  189SLPC   H5R21820   6.243   3.925   7.208 -0.2952 -0.7854  0.9739
  189SLPC   H5S21821   6.175   3.764   7.241  0.0350 -0.2625 -0.2288
  189SLPC   C2621822   6.049   3.918   7.299  0.4358 -0.1535  0.0721
  189SLPC   H6R21823   5.972   3.840   7.315 -0.5605  0.5735 -1.0673
  189SLPC   H6S21824   5.993   4.009   7.268 -1.1405 -1.2986 -0.5148
  189SLPC   C2721825   6.116   3.938   7.435  0.0399 -0.1547 -0.4832
  189SLPC   H7R21826   6.199   4.011   7.425 -0.0395  0.2141  1.3735
  189SLPC   H7S21827   6.154   3.841   7.472 -1.1917 -0.9449 -1.2243
  189SLPC   C2821828   6.017   4.011   7.534 -0.0667  0.0674 -0.0423
  189SLPC   H8R21829   5.921   3.954   7.543  0.5157 -0.9304 -0.0092
  189SLPC   H8S21830   5.984   4.108   7.491 -0.5550  1.0408  2.4706
  189SLPC   C2921831   6.070   4.028   7.676  0.7132 -0.5545 -0.6611
  189SLPC   H9R21832   6.176   4.054   7.682  0.1543  1.5917  0.2582
  189SLPC  C21021833   5.998   4.023   7.790 -0.0024  0.1127 -0.0453
  189SLPC  H10R21834   6.047   4.050   7.885 -1.4696 -2.3188  1.4448
  189SLPC  C21121835   5.849   4.000   7.806 -0.9338 -0.3641 -0.4981
  189SLPC  H11R21836   5.798   3.962   7.715 -0.5212 -0.3066 -0.7523
  189SLPC  H11S21837   5.791   4.092   7.827 -0.6996 -0.6099  1.3372
  189SLPC  C21221838   5.828   3.911   7.935  0.2506 -0.0165  0.4491
  189SLPC  H12R21839   5.874   3.812   7.927 -1.4684 -0.7999  0.2247
  189SLPC  C21321840   5.782   3.955   8.057 -0.0590 -0.3935  0.2227
  189SLPC  H13R21841   5.779   3.882   8.139  1.7405 -1.4969 -0.6657
  189SLPC  C21421842   5.721   4.088   8.098  0.1986  0.9029  0.5790
  189SLPC  H14R21843   5.662   4.137   8.018 -1.2495 -2.5940 -0.5971
  189SLPC  H14S21844   5.799   4.159   8.134  2.3706  0.9863 -4.0060
  189SLPC  C21521845   5.637   4.065   8.228  0.0766 -0.2786 -0.2554
  189SLPC  H15R21846   5.617   4.162   8.280  0.7364 -0.2638 -0.0270
  189SLPC  H15S21847   5.700   3.999   8.290  1.2682  1.5637  0.5306
  189SLPC  C21621848   5.510   3.985   8.201  0.2598 -0.0713  0.2018
  189SLPC  H16R21849   5.538   3.900   8.136  1.1315  0.9978 -0.8306
  189SLPC  H16S21850   5.441   4.047   8.141  0.1498  0.2463  0.6547
  189SLPC  C21721851   5.434   3.945   8.331 -0.1807 -0.1988  0.6032
  189SLPC  H17R21852   5.507   3.894   8.397  0.4031 -3.2294 -2.2642
  189SLPC  H17S21853   5.347   3.880   8.309 -0.2840 -0.7740  2.6366
  189SLPC  C21821854   5.391   4.075   8.402 -0.3765 -0.4869 -0.1395
  189SLPC  H18R21855   5.357   4.152   8.329  1.3275 -0.4942 -0.9570
  189SLPC  H18S21856   5.473   4.131   8.452 -2.4937  1.0946  1.6809
  189SLPC  H18T21857   5.325   4.058   8.490 -0.7238 -1.3203 -0.5525
  189SLPC   C3321858   5.910   3.369   7.206  0.5521 -0.0446 -0.1444
  189SLPC   H3X21859   5.876   3.346   7.309 -0.6580 -1.1165 -0.7720
  189SLPC   H3Y21860   5.824   3.417   7.154 -0.5660 -1.1482  0.6344
  189SLPC   C3421861   6.013   3.484   7.222 -0.2458  0.1003  0.0993
  189SLPC   H4X21862   5.975   3.567   7.285 -0.9022 -1.6546  2.0787
  189SLPC   H4Y21863   6.036   3.539   7.128  2.0334 -0.9761 -0.0170
  189SLPC   C3521864   6.153   3.443   7.273 -0.7356 -0.1344 -0.0785
  189SLPC   H5X21865   6.218   3.531   7.292 -1.8451  0.4138  1.2643
  189SLPC   H5Y21866   6.216   3.383   7.203 -0.1698  1.4942 -0.9985
  189SLPC   C3621867   6.151   3.358   7.397 -0.1650  0.2529 -0.1801
  189SLPC   H6X21868   6.257   3.346   7.426 -0.4789 -1.7680  0.2123
  189SLPC   H6Y21869   6.112   3.255   7.382 -1.6289  0.8011 -0.2409
  189SLPC   C3721870   6.069   3.423   7.510  0.7063 -0.3618 -0.0761
  189SLPC   H7X21871   5.969   3.448   7.469  0.8064 -1.8332 -1.2657
  189SLPC   H7Y21872   6.115   3.517   7.547 -0.9243  0.2480  0.3985
  189SLPC   C3821873   6.060   3.328   7.626  0.1171  0.2184 -0.1418
  189SLPC   H8X21874   6.163   3.289   7.641  0.6651  1.7909  0.3088
  189SLPC   H8Y21875   5.990   3.249   7.590  1.5829 -0.2061 -2.1460
  189SLPC   C3921876   6.035   3.415   7.751 -0.5018 -0.1070 -0.3473
  189SLPC   H9X21877   5.938   3.464   7.728  0.1336  0.6888 -1.3348
  189SLPC   H9Y21878   6.098   3.506   7.752 -1.0136  0.2411  0.6706
  189SLPC  C31021879   6.029   3.327   7.876 -0.5017 -0.0144  0.1665
  189SLPC  H10X21880   6.009   3.399   7.959 -2.2370 -1.3852  0.9873
  189SLPC  H10Y21881   6.116   3.260   7.888 -0.3492 -0.4267 -3.0191
  189SLPC  C31121882   5.911   3.226   7.874  0.2232  0.0872 -0.1401
  189SLPC  H11X21883   5.938   3.142   7.807 -3.0850  1.5330 -3.4434
  189SLPC  H11Y21884   5.821   3.276   7.833 -0.3015 -0.9835 -0.3110
  189SLPC  C31221885   5.875   3.179   8.015 -0.4348  0.0385  0.6173
  189SLPC  H12X21886   5.969   3.163   8.072  0.4044  1.0917 -0.4388
  189SLPC  H12Y21887   5.824   3.080   8.016  0.5106 -0.4747 -0.0881
  189SLPC  C31321888   5.776   3.270   8.088  0.5296 -0.3335  0.4463
  189SLPC  H13X21889   5.684   3.270   8.025  2.1631  1.6321 -2.0196
  189SLPC  H13Y21890   5.815   3.374   8.088  0.3355 -0.2622  0.4500
  189SLPC  C31421891   5.748   3.216   8.233 -0.3719 -0.0896  1.1670
  189SLPC  H14X21892   5.845   3.216   8.286  0.2758 -1.0955 -0.0070
  189SLPC  H14Y21893   5.717   3.109   8.228  2.1160 -0.8856  2.0463
  189SLPC  C31521894   5.641   3.278   8.324  0.0915  0.2709 -0.1282
  189SLPC  H15X21895   5.596   3.200   8.389 -0.8451 -0.4310 -1.5838
  189SLPC  H15Y21896   5.560   3.305   8.253  1.0749  1.7240 -0.7009
  189SLPC  C31621897   5.696   3.391   8.414  0.1900 -0.4350  0.1395
  189SLPC  H16X21898   5.781   3.447   8.369 -1.1244  1.3944 -0.1211
  189SLPC  H16Y21899   5.733   3.342   8.507  1.2023  1.4356  0.7466
  189SLPC  C31721900   5.590   3.495   8.453  0.1632 -0.5140  0.4325
  189SLPC  H17X21901   5.633   3.575   8.518 -3.6042  0.6057  1.6516
  189SLPC  H17Y21902   5.512   3.444   8.513  0.9951 -0.3050  1.7171
  189SLPC  C31821903   5.526   3.566   8.331  0.0061 -0.3876  0.0765
  189SLPC  H18X21904   5.459   3.500   8.272 -1.1437  0.6311  0.1935
  189SLPC  H18Y21905   5.597   3.603   8.254 -0.4583  2.2280  0.8269
  189SLPC  H18Z21906   5.443   3.638   8.352  2.0991  2.5723 -1.4749
  190SLPC     N21907   6.439   2.649   6.217  0.3427 -0.3716  0.2442
  190SLPC   C1321908   6.470   2.503   6.187  0.2227  0.4194 -0.1508
  190SLPC  H13A21909   6.415   2.476   6.098 -2.3619  1.5596  1.0469
  190SLPC  H13B21910   6.575   2.483   6.171 -0.3593 -2.7658 -0.3107
  190SLPC  H13C21911   6.446   2.455   6.281  0.0215  0.0354 -0.3962
  190SLPC   C1421912   6.296   2.657   6.270 -0.2147 -0.3665  0.1078
  190SLPC  H14A21913   6.235   2.612   6.193  1.5881 -0.2629 -1.4089
  190SLPC  H14B21914   6.282   2.592   6.355 -1.6590 -0.3091 -0.0728
  190SLPC  H14C21915   6.258   2.759   6.278 -2.1340 -0.8746 -2.1044
  190SLPC   C1521916   6.442   2.727   6.092  0.0392 -0.2285  0.2789
  190SLPC  H15A21917   6.341   2.729   6.054  0.1560  0.9347  0.0092
  190SLPC  H15B21918   6.467   2.831   6.110  1.2524 -0.4821  0.0738
  190SLPC  H15C21919   6.508   2.683   6.018  1.1777  1.1277  0.4691
  190SLPC   C1221920   6.536   2.698   6.322  0.3163  0.0101 -0.2813
  190SLPC  H12A21921   6.630   2.678   6.274  1.0172 -1.3552  1.5770
  190SLPC  H12B21922   6.532   2.637   6.411  0.4549  0.8659  0.3187
  190SLPC   C1121923   6.545   2.850   6.359 -0.2148 -0.1583  0.2834
  190SLPC  H11A21924   6.585   2.868   6.461  1.9034  2.5213 -0.9416
  190SLPC  H11B21925   6.439   2.883   6.359  0.1106  0.8942  0.5612
  190SLPC     P21926   6.775   2.905   6.235  0.0375 -0.0142  0.6659
  190SLPC   O1321927   6.795   2.794   6.145  0.1780  0.9680 -0.3102
  190SLPC   O1421928   6.830   3.038   6.205  0.0766  0.2920  0.3320
  190SLPC   O1221929   6.621   2.926   6.262  0.5045 -0.3134  0.4565
  190SLPC   O1121930   6.826   2.852   6.373 -0.4882 -0.1425 -0.4187
  190SLPC    C121931   6.883   2.943   6.476  0.8002 -0.0653  0.2254
  190SLPC    HA21932   6.992   2.920   6.479  0.4032 -2.1910 -0.6026
  190SLPC    HB21933   6.864   3.051   6.464 -0.3917 -0.0853  1.8597
  190SLPC    C221934   6.825   2.915   6.613 -0.5127 -0.5177 -0.0314
  190SLPC    HS21935   6.719   2.949   6.610 -0.1864  0.9194  2.8886
  190SLPC   O2121936   6.903   2.986   6.709 -0.0654 -0.1583 -0.1259
  190SLPC   C2121937   6.839   3.080   6.786 -0.5504  0.9824 -0.1984
  190SLPC   O2221938   6.732   3.131   6.759 -0.4728  0.0275 -0.1760
  190SLPC   C2221939   6.927   3.105   6.901 -0.2562  0.6451 -0.4176
  190SLPC   H2R21940   7.034   3.088   6.873 -0.4943 -0.1547 -0.8655
  190SLPC   H2S21941   6.916   3.212   6.929 -0.0059  0.8184 -0.9499
  190SLPC    C321942   6.831   2.767   6.640  0.1927 -0.4468  0.5075
  190SLPC    HX21943   6.930   2.720   6.622 -1.6295 -4.3911  0.3706
  190SLPC    HY21944   6.760   2.718   6.570  2.8664 -0.0155 -2.6797
  190SLPC   O3121945   6.800   2.739   6.773  0.2536 -0.3048  0.3188
  190SLPC   C3121946   6.668   2.751   6.805 -0.3243 -0.4730 -0.4214
  190SLPC   O3221947   6.577   2.785   6.735 -0.1734 -0.4933  0.5800
  190SLPC   C3221948   6.660   2.696   6.948  0.2690  0.4506 -0.3343
  190SLPC   H2X21949   6.737   2.753   7.005 -0.7023 -0.1044  1.5768
  190SLPC   H2Y21950   6.694   2.591   6.951  0.3484  0.4749 -0.4008
  190SLPC   C2321951   6.883   3.019   7.024 -0.1471  0.7941  0.4782
  190SLPC   H3R21952   6.896   2.915   6.985 -1.3241  1.7519 -2.5918
  190SLPC   H3S21953   6.775   3.038   7.036 -0.5067  0.1171 -1.4735
  190SLPC   C2421954   6.963   3.028   7.157  0.1333 -0.1207 -0.4182
  190SLPC   H4R21955   6.952   3.132   7.195 -1.4258  0.1619 -1.5795
  190SLPC   H4S21956   7.074   3.025   7.149  0.0154 -0.7287 -2.0655
  190SLPC   C2521957   6.920   2.931   7.273 -0.0631 -0.1928  0.4238
  190SLPC   H5R21958   6.945   2.824   7.254 -1.3509 -0.3526 -0.4699
  190SLPC   H5S21959   6.810   2.923   7.284 -0.6245  1.3117 -3.3323
  190SLPC   C2621960   6.991   2.986   7.396  0.0403  0.2779  0.3582
  190SLPC   H6R21961   7.007   3.095   7.413  1.8250 -0.1344  1.4778
  190SLPC   H6S21962   7.094   2.947   7.379 -0.2578  0.2436 -1.4464
  190SLPC   C2721963   6.925   2.920   7.516 -0.2106  0.5465  0.1476
  190SLPC   H7R21964   6.921   2.813   7.489  1.0636  0.3028  0.8694
  190SLPC   H7S21965   6.824   2.954   7.547  0.1116 -0.5052  2.4303
  190SLPC   C2821966   7.014   2.923   7.642  0.5888 -0.1581 -0.0814
  190SLPC   H8R21967   7.014   3.026   7.685 -0.5238 -0.4714  0.6874
  190SLPC   H8S21968   7.121   2.896   7.626 -0.0184 -0.5063 -4.0599
  190SLPC   C2921969   6.963   2.816   7.740  0.0369  0.7442 -0.3981
  190SLPC   H9R21970   6.941   2.718   7.694 -1.9813  0.3811  1.3093
  190SLPC  C21021971   6.948   2.814   7.874 -0.5391  0.0134  0.1868
  190SLPC  H10R21972   6.911   2.726   7.929  1.0366  0.4126  1.9266
  190SLPC  C21121973   6.983   2.930   7.963  0.0999  0.8397  0.3043
  190SLPC  H11R21974   6.937   3.026   7.930 -1.1567  0.1555  0.0150
  190SLPC  H11S21975   7.092   2.940   7.947 -0.0416  0.9570 -0.5983
  190SLPC  C21221976   6.945   2.927   8.107 -0.6800  0.0214 -0.3864
  190SLPC  H12R21977   6.856   2.985   8.134 -0.0936 -0.1945  2.2274
  190SLPC  C21321978   7.013   2.863   8.201  0.6395  0.2067  0.2412
  190SLPC  H13R21979   6.970   2.856   8.302 -0.4453 -2.0223 -0.3345
  190SLPC  C21421980   7.142   2.774   8.170 -0.4756 -0.1554  0.5350
  190SLPC  H14R21981   7.221   2.803   8.242 -0.4319 -0.6927  0.7006
  190SLPC  H14S21982   7.176   2.796   8.067 -1.1005  1.8279  0.7193
  190SLPC  C21521983   7.107   2.627   8.163  0.7268 -0.1237 -0.0914
  190SLPC  H15R21984   7.014   2.613   8.104  1.6334 -0.9342 -1.3324
  190SLPC  H15S21985   7.081   2.595   8.266 -0.7703  0.9940 -0.0915
  190SLPC  C21621986   7.226   2.545   8.101  0.0869  0.0877 -0.2151
  190SLPC  H16R21987   7.320   2.570   8.154 -0.1480  0.7708 -0.1188
  190SLPC  H16S21988   7.223   2.593   8.001  0.3717  0.3989 -0.0742
  190SLPC  C21721989   7.195   2.391   8.102 -0.3092 -0.1847 -0.3136
  190SLPC  H17R21990   7.281   2.342   8.052  0.9755  0.3092  1.4022
  190SLPC  H17S21991   7.106   2.355   8.045 -1.2568  0.0654  0.9865
  190SLPC  C21821992   7.177   2.324   8.238  0.1079  0.0089 -0.4402
  190SLPC  H18R21993   7.209   2.217   8.234  0.6890  0.2146 -1.7672
  190SLPC  H18S21994   7.082   2.330   8.295 -0.3194  1.2231 -1.2582
  190SLPC  H18T21995   7.260   2.360   8.303 -0.2739  1.8695 -0.9697
  190SLPC   C3321996   6.526   2.716   7.012  0.2177 -0.0722 -0.4714
  190SLPC   H3X21997   6.470   2.621   6.999  3.4489 -1.8985 -1.3940
  190SLPC   H3Y21998   6.475   2.805   6.970 -0.2266 -0.1791 -0.1726
  190SLPC   C3421999   6.539   2.745   7.163  0.4009 -0.2991  0.0019
  190SLPC   H4X22000   6.435   2.754   7.202  1.2335  1.8995  1.8068
  190SLPC   H4Y22001   6.580   2.847   7.178 -2.4237  0.7140  1.2303
  190SLPC   C3522002   6.606   2.647   7.250 -0.6962  1.1340  0.0268
  190SLPC   H5X22003   6.716   2.651   7.232 -1.0057  1.5640 -1.8433
  190SLPC   H5Y22004   6.588   2.543   7.215  0.7466  0.8892 -0.0145
  190SLPC   C3622005   6.591   2.663   7.401 -0.0251 -0.3913 -0.0539
  190SLPC   H6X22006   6.483   2.683   7.421 -0.1560  0.1715 -1.2711
  190SLPC   H6Y22007   6.649   2.748   7.443  1.2381 -1.8248  1.1572
  190SLPC   C3722008   6.636   2.542   7.492  0.1121  0.2770  0.0702
  190SLPC   H7X22009   6.743   2.517   7.478 -0.2267 -1.7609  0.9643
  190SLPC   H7Y22010   6.578   2.451   7.463 -0.2552  0.4608  0.2174
  190SLPC   C3822011   6.622   2.583   7.634  0.4002  0.0104  0.2647
  190SLPC   H8X22012   6.513   2.601   7.648 -0.2755 -3.4241  0.0051
  190SLPC   H8Y22013   6.684   2.671   7.661 -1.8140  1.3567  1.0902
  190SLPC   C3922014   6.657   2.467   7.727  0.1246  0.7316  0.1140
  190SLPC   H9X22015   6.746   2.415   7.685 -0.2773 -1.0078  1.3897
  190SLPC   H9Y22016   6.578   2.389   7.725 -1.7760  2.5637  1.0565
  190SLPC  C31022017   6.689   2.506   7.868 -1.0393  0.8351 -0.3727
  190SLPC  H10X22018   6.605   2.548   7.927 -0.6141  0.2265  0.6765
  190SLPC  H10Y22019   6.772   2.579   7.860 -0.1191 -0.3596 -2.0491
  190SLPC  C31122020   6.747   2.386   7.951  1.2923 -0.4252  0.7436
  190SLPC  H11X22021   6.849   2.368   7.909  0.2746 -2.0467 -1.0669
  190SLPC  H11Y22022   6.688   2.297   7.922  0.9492  0.6754 -2.1734
  190SLPC  C31222023   6.770   2.418   8.101 -0.2171  0.1424  1.5619
  190SLPC  H12X22024   6.825   2.512   8.123 -0.0559 -0.6199  4.6091
  190SLPC  H12Y22025   6.830   2.332   8.138  0.4387 -0.8845 -1.7285
  190SLPC  C31322026   6.648   2.416   8.189  0.9291  0.3113 -0.1547
  190SLPC  H13X22027   6.658   2.345   8.273  1.2320  1.1030  0.4844
  190SLPC  H13Y22028   6.569   2.372   8.124  1.6487 -2.9476  1.0908
  190SLPC  C31422029   6.589   2.547   8.237  0.3066  0.7022  0.0664
  190SLPC  H14X22030   6.499   2.513   8.293  0.4579 -0.7017 -0.5168
  190SLPC  H14Y22031   6.567   2.608   8.146 -0.4755 -0.1155 -0.2987
  190SLPC  C31522032   6.686   2.631   8.332  0.2986 -0.0945  0.5509
  190SLPC  H15X22033   6.626   2.722   8.356 -1.5308 -0.2954 -2.9634
  190SLPC  H15Y22034   6.781   2.664   8.285  1.2545 -1.3368  1.5592
  190SLPC  C31622035   6.701   2.563   8.471  0.5867  0.0966  0.4220
  190SLPC  H16X22036   6.742   2.462   8.449 -0.7906 -0.3945  0.1174
  190SLPC  H16Y22037   6.600   2.553   8.516 -0.5344 -0.4702 -2.1319
  190SLPC  C31722038   6.799   2.626   8.574 -0.3126 -0.1915 -0.2734
  190SLPC  H17X22039   6.775   2.568   8.665  2.1418 -0.3518  0.2936
  190SLPC  H17Y22040   6.768   2.733   8.581  0.4579  0.0050  0.1551
  190SLPC  C31822041   6.945   2.597   8.534 -0.0508 -0.4488 -0.2979
  190SLPC  H18X22042   6.976   2.676   8.463 -3.7828  0.4059 -1.0515
  190SLPC  H18Y22043   6.947   2.492   8.496 -0.0260 -0.3266 -0.6356
  190SLPC  H18Z22044   6.998   2.605   8.631 -2.4491 -1.5488  1.1481
  191SLPC     N22045   6.129   5.145   5.860 -0.0687 -0.0047 -0.3682
  191SLPC   C1322046   5.994   5.204   5.882  0.5453 -0.2874  0.1656
  191SLPC  H13A22047   5.978   5.267   5.969 -2.7316 -1.6884  0.6431
  191SLPC  H13B22048   5.973   5.256   5.790  3.5121  0.5309 -0.0839
  191SLPC  H13C22049   5.920   5.128   5.904 -0.7680  1.7527  3.2355
  191SLPC   C1422050   6.235   5.248   5.862  0.4510 -0.0049  0.0619
  191SLPC  H14A22051   6.231   5.322   5.784  1.0177  0.6129  0.6164
  191SLPC  H14B22052   6.227   5.306   5.953  2.8752  0.1957  0.1765
  191SLPC  H14C22053   6.333   5.206   5.874  0.8807  1.2507  1.0286
  191SLPC   C1522054   6.128   5.072   5.726 -0.4972 -0.5430 -0.6990
  191SLPC  H15A22055   6.227   5.031   5.708 -0.9879 -2.2243  0.3609
  191SLPC  H15B22056   6.053   4.995   5.730 -0.2800 -0.6945  0.4241
  191SLPC  H15C22057   6.110   5.149   5.652  2.0130 -0.6934 -1.5064
  191SLPC   C1222058   6.149   5.043   5.973 -0.4999  0.0282 -0.4084
  191SLPC  H12A22059   6.068   4.972   5.979 -2.5553  2.2557 -1.0127
  191SLPC  H12B22060   6.155   5.101   6.064  0.5108 -0.2172 -0.3122
  191SLPC   C1122061   6.276   4.965   5.961  0.1837 -0.1668 -0.6449
  191SLPC  H11A22062   6.284   4.912   5.863 -2.3188  0.6264 -1.3261
  191SLPC  H11B22063   6.259   4.888   6.039 -0.9252  1.1908  0.4701
  191SLPC     P22064   6.531   4.962   6.018  0.0303  0.1311  0.1309
  191SLPC   O1322065   6.552   4.841   5.934 -0.1151 -0.5069  0.2086
  191SLPC   O1422066   6.643   5.063   6.018  0.0825 -0.2813 -0.2616
  191SLPC   O1222067   6.397   5.047   5.981 -0.4898  0.9973  0.1481
  191SLPC   O1122068   6.498   4.914   6.166  0.5953  0.1131 -0.1794
  191SLPC    C122069   6.482   5.021   6.258  0.2325  0.0167  0.5080
  191SLPC    HA22070   6.585   5.058   6.279  0.8561 -1.3850 -0.0405
  191SLPC    HB22071   6.411   5.099   6.224  1.3051  0.3580 -0.9807
  191SLPC    C222072   6.399   4.990   6.391 -0.5987 -0.2379 -0.6947
  191SLPC    HS22073   6.387   5.081   6.453 -2.4952  0.1694 -1.6318
  191SLPC   O2122074   6.482   4.893   6.457 -0.0439 -0.1796  0.2259
  191SLPC   C2122075   6.590   4.952   6.526  0.6604 -0.3215  0.9426
  191SLPC   O2222076   6.593   5.067   6.558  0.0164 -0.1976  0.2132
  191SLPC   C2222077   6.680   4.839   6.573  0.6147 -0.2087  0.0320
  191SLPC   H2R22078   6.681   4.746   6.513 -1.5143 -0.0305 -0.3132
  191SLPC   H2S22079   6.782   4.884   6.584  0.8965 -1.2731  1.8851
  191SLPC    C322080   6.260   4.932   6.358  0.1494  0.2754  0.0041
  191SLPC    HX22081   6.279   4.848   6.288  0.3295 -0.0864  0.4794
  191SLPC    HY22082   6.201   5.012   6.308 -0.2096  1.4679  2.2793
  191SLPC   O3122083   6.189   4.880   6.478  0.5695  0.2359  0.8525
  191SLPC   C3122084   6.162   4.755   6.482  0.6729 -0.1312  0.3160
  191SLPC   O3222085   6.194   4.670   6.400  0.2307 -0.4583  0.7378
  191SLPC   C3222086   6.104   4.713   6.616  0.0825 -0.0919  0.0204
  191SLPC   H2X22087   6.087   4.603   6.609 -0.4780  0.0351 -0.6195
  191SLPC   H2Y22088   6.008   4.767   6.621 -0.2014 -0.5642 -0.3169
  191SLPC   C2322089   6.650   4.788   6.719 -0.3351 -0.3305 -0.4734
  191SLPC   H3R22090   6.691   4.685   6.719  2.8473  0.8553  0.1958
  191SLPC   H3S22091   6.542   4.779   6.743  0.1246  1.0129  2.3467
  191SLPC   C2422092   6.713   4.865   6.839  0.6054  0.5733 -0.2009
  191SLPC   H4R22093   6.667   4.965   6.822  0.0761  0.4113  0.3081
  191SLPC   H4S22094   6.824   4.863   6.838  0.5938 -1.9783 -0.7591
  191SLPC   C2522095   6.662   4.809   6.973  0.0091 -0.1325  0.4226
  191SLPC   H5R22096   6.703   4.707   6.986  0.2580  0.0673  1.2223
  191SLPC   H5S22097   6.553   4.794   6.985  0.0103 -1.5437 -1.1603
  191SLPC   C2622098   6.709   4.906   7.083  0.0736  0.2165  0.2959
  191SLPC   H6R22099   6.661   5.002   7.052 -0.2516  0.3149  1.1046
  191SLPC   H6S22100   6.817   4.928   7.072 -0.5928  2.3678 -2.7204
  191SLPC   C2722101   6.687   4.858   7.224 -0.0705  0.3927 -0.1144
  191SLPC   H7R22102   6.702   4.939   7.299  2.8792 -0.7549  0.6138
  191SLPC   H7S22103   6.746   4.769   7.255 -1.3930 -0.3661  0.2536
  191SLPC   C2822104   6.543   4.818   7.252 -0.0621 -0.7733  0.3022
  191SLPC   H8R22105   6.526   4.789   7.358  0.4609  0.4443  0.7251
  191SLPC   H8S22106   6.519   4.725   7.196 -2.1850 -1.0402  1.6160
  191SLPC   C2922107   6.438   4.925   7.227 -0.1936 -0.4948  0.0267
  191SLPC   H9R22108   6.422   4.945   7.120  1.9165 -2.0836 -0.6332
  191SLPC  C21022109   6.371   5.003   7.316  0.2832 -0.0704  0.3326
  191SLPC  H10R22110   6.305   5.080   7.274 -1.2458 -2.1991 -1.3292
  191SLPC  C21122111   6.383   5.002   7.463 -0.4130 -0.3784 -0.1851
  191SLPC  H11R22112   6.314   4.919   7.492 -0.3396 -0.8735 -1.3876
  191SLPC  H11S22113   6.325   5.084   7.511 -1.1136 -1.6056  1.0839
  191SLPC  C21222114   6.518   4.979   7.523 -0.2852  0.1752  0.0086
  191SLPC  H12R22115   6.599   4.967   7.449  2.6718  1.9676  2.8694
  191SLPC  C21322116   6.549   4.971   7.649 -0.3080 -0.0954 -0.3526
  191SLPC  H13R22117   6.654   4.957   7.679 -1.0258  2.9888  3.9629
  191SLPC  C21422118   6.448   4.967   7.768  0.0995 -0.6273  0.7426
  191SLPC  H14R22119   6.356   4.910   7.743 -0.6261  1.9565 -2.8407
  191SLPC  H14S22120   6.414   5.072   7.785  1.0948 -0.4696  1.8117
  191SLPC  C21522121   6.500   4.927   7.910  0.3399 -0.2045  0.1988
  191SLPC  H15R22122   6.608   4.953   7.915  0.0034  1.1697  0.2296
  191SLPC  H15S22123   6.501   4.816   7.918  2.2072 -0.2694 -0.7101
  191SLPC  C21622124   6.416   4.977   8.028  0.2996 -0.0343 -0.8061
  191SLPC  H16R22125   6.315   4.934   8.010  0.5084 -1.3747  0.9840
  191SLPC  H16S22126   6.396   5.085   8.010 -1.9980  0.0102  1.6571
  191SLPC  C21722127   6.471   4.936   8.165 -0.0015  0.3409  0.2319
  191SLPC  H17R22128   6.580   4.921   8.150 -0.4257 -3.1463  0.3637
  191SLPC  H17S22129   6.447   4.832   8.197  4.2122 -0.6947  0.3164
  191SLPC  C21822130   6.459   5.033   8.284  0.6932 -0.7375 -0.4219
  191SLPC  H18R22131   6.541   5.024   8.358  1.7375  0.7931 -1.3708
  191SLPC  H18S22132   6.358   5.024   8.332  0.6520 -0.0008 -0.3650
  191SLPC  H18T22133   6.466   5.134   8.238  2.7228  0.0562  1.5181
  191SLPC   C3322134   6.192   4.734   6.742  0.0314 -0.7106 -0.1386
  191SLPC   H3X22135   6.225   4.840   6.741 -1.1942 -0.3287 -0.7727
  191SLPC   H3Y22136   6.282   4.669   6.738  0.0456 -0.9898  3.4525
  191SLPC   C3422137   6.118   4.707   6.876  0.3749  0.1540  0.4853
  191SLPC   H4X22138   6.105   4.597   6.890 -0.7039  0.2621  0.3268
  191SLPC   H4Y22139   6.019   4.756   6.875  1.1185  1.6568 -1.2328
  191SLPC   C3522140   6.208   4.767   6.989 -0.2389 -0.1773 -0.2906
  191SLPC   H5X22141   6.203   4.878   6.991 -0.0374 -0.1790  2.9468
  191SLPC   H5Y22142   6.316   4.740   6.980 -0.2313 -0.0405 -0.6282
  191SLPC   C3622143   6.173   4.706   7.125 -0.0893 -0.2444 -0.2110
  191SLPC   H6X22144   6.265   4.693   7.186  0.9844 -2.1231 -2.1771
  191SLPC   H6Y22145   6.124   4.608   7.104 -2.7191  1.2992 -1.4930
  191SLPC   C3722146   6.069   4.791   7.201  0.1360  1.0128  0.9223
  191SLPC   H7X22147   5.975   4.801   7.142  1.1343  1.4892 -0.6155
  191SLPC   H7Y22148   6.106   4.896   7.202  0.9681  0.8079 -2.4031
  191SLPC   C3822149   6.037   4.757   7.340 -0.3938  0.2410  0.5789
  191SLPC   H8X22150   6.126   4.777   7.404  0.8590  1.4561 -1.4822
  191SLPC   H8Y22151   5.999   4.654   7.329 -2.0968  0.8243  0.7345
  191SLPC   C3922152   5.918   4.835   7.407 -0.9399 -0.2741  0.7903
  191SLPC   H9X22153   5.829   4.790   7.359  0.3696 -2.2757  0.1826
  191SLPC   H9Y22154   5.927   4.939   7.369  0.1558 -1.0986 -1.2667
  191SLPC  C31022155   5.919   4.830   7.556 -0.7134  1.0575 -0.7157
  191SLPC  H10X22156   5.931   4.723   7.584 -0.0828  0.7322 -2.2185
  191SLPC  H10Y22157   5.821   4.851   7.605 -1.2514  0.8614 -1.7068
  191SLPC  C31122158   6.018   4.919   7.621  0.5815  0.5046  0.6540
  191SLPC  H11X22159   5.970   5.017   7.598  0.8377  0.3374 -0.6256
  191SLPC  H11Y22160   6.116   4.921   7.568  0.5132 -1.5354  0.4151
  191SLPC  C31222161   6.042   4.885   7.768 -0.4227  0.0050 -0.4906
  191SLPC  H12X22162   6.123   4.955   7.799 -0.4551 -0.8031  1.4446
  191SLPC  H12Y22163   6.088   4.784   7.783  2.2855  1.0556 -1.2739
  191SLPC  C31322164   5.919   4.909   7.855  0.2170  0.5534  0.0071
  191SLPC  H13X22165   5.851   4.822   7.847 -0.1709  0.9612 -1.1651
  191SLPC  H13Y22166   5.857   4.988   7.808 -1.4843  0.2417  1.6618
  191SLPC  C31422167   5.954   4.945   8.002  0.7403  0.8978 -0.0671
  191SLPC  H14X22168   5.858   4.964   8.054 -0.0927  3.3353 -2.3748
  191SLPC  H14Y22169   6.008   5.042   7.999  0.9550  0.7963  0.5209
  191SLPC  C31522170   6.029   4.841   8.083  0.5754 -0.0644  0.3437
  191SLPC  H15X22171   6.132   4.830   8.041 -0.4149 -2.0993 -1.6405
  191SLPC  H15Y22172   5.961   4.753   8.078 -1.4981  1.5562 -0.6781
  191SLPC  C31622173   6.031   4.896   8.229 -0.4226  0.1667 -0.3259
  191SLPC  H16X22174   5.933   4.900   8.279 -1.7733  0.7423 -2.8962
  191SLPC  H16Y22175   6.083   4.995   8.233  2.9291 -1.5319  0.1127
  191SLPC  C31722176   6.112   4.788   8.313  0.1678  0.1778 -0.3006
  191SLPC  H17X22177   6.219   4.818   8.308  0.4077 -0.6868 -0.4542
  191SLPC  H17Y22178   6.108   4.687   8.267  1.7736 -0.7746  1.5782
  191SLPC  C31822179   6.058   4.770   8.455 -0.0348 -0.7177 -0.4660
  191SLPC  H18X22180   6.123   4.702   8.513 -1.5962 -1.5410  0.3234
  191SLPC  H18Y22181   5.948   4.761   8.461 -0.1717  0.5985 -0.7941
  191SLPC  H18Z22182   6.072   4.866   8.509 -0.7624 -0.4696 -0.7224
  192SLPC     N22183   6.635   6.088   6.095 -0.1429  0.1285  0.4605
  192SLPC   C1322184   6.646   6.208   6.013  0.3597 -0.6581  0.3231
  192SLPC  H13A22185   6.693   6.187   5.919  0.9955 -2.0605  0.9462
  192SLPC  H13B22186   6.547   6.246   5.990  0.6779 -0.0483 -0.0621
  192SLPC  H13C22187   6.699   6.284   6.069  0.6379 -0.9691  0.4874
  192SLPC   C1422188   6.757   6.009   6.076 -0.0995  0.3841 -0.2800
  192SLPC  H14A22189   6.754   5.910   6.120 -3.4574  0.5935  0.0673
  192SLPC  H14B22190   6.771   5.989   5.971  1.2594 -0.1431 -0.0155
  192SLPC  H14C22191   6.844   6.063   6.111  0.5174 -0.3988 -0.5916
  192SLPC   C1522192   6.511   6.023   6.047  0.4272 -0.1193 -0.9728
  192SLPC  H15A22193   6.521   5.997   5.943  2.1848  0.1785 -0.9008
  192SLPC  H15B22194   6.497   5.927   6.096 -1.4988  0.4586 -0.3356
  192SLPC  H15C22195   6.422   6.081   6.063  0.2575 -0.3251 -1.1751
  192SLPC   C1222196   6.622   6.136   6.239  0.1771 -0.3803  0.5892
  192SLPC  H12A22197   6.553   6.218   6.254 -1.7042 -1.9129  0.4177
  192SLPC  H12B22198   6.718   6.178   6.267  1.8476 -3.2439 -0.6042
  192SLPC   C1122199   6.586   6.022   6.344 -0.0642  0.6794 -0.3062
  192SLPC  H11A22200   6.484   5.985   6.321  0.0858 -2.7229  3.8062
  192SLPC  H11B22201   6.572   6.074   6.441  1.6212 -1.7118  1.2736
  192SLPC     P22202   6.642   5.788   6.424 -0.3783 -0.3353  0.1259
  192SLPC   O1322203   6.517   5.732   6.365 -0.2307  0.4360 -0.3037
  192SLPC   O1422204   6.764   5.703   6.428 -0.1288 -0.2278  0.3629
  192SLPC   O1222205   6.682   5.920   6.349  0.0145  0.3074 -0.4823
  192SLPC   O1122206   6.604   5.836   6.574  0.5451 -0.0206 -0.0716
  192SLPC    C122207   6.699   5.912   6.651  0.0456 -0.8592  0.0699
  192SLPC    HA22208   6.805   5.890   6.624  0.1362 -1.6114  1.0067
  192SLPC    HB22209   6.684   6.022   6.657 -1.0570 -1.0096  0.0374
  192SLPC    C222210   6.689   5.854   6.804 -0.2572  0.2403 -0.2656
  192SLPC    HS22211   6.773   5.899   6.862 -0.9223  0.6500  0.3919
  192SLPC   O2122212   6.695   5.715   6.790  1.0944  0.6258 -0.0388
  192SLPC   C2122213   6.820   5.669   6.776  0.6247 -0.0761  0.1705
  192SLPC   O2222214   6.921   5.740   6.776 -0.3418  0.4988 -0.3621
  192SLPC   C2222215   6.822   5.521   6.769  0.5302 -0.3778 -0.3374
  192SLPC   H2R22216   6.769   5.498   6.674  0.2740 -0.4028 -0.1913
  192SLPC   H2S22217   6.930   5.500   6.762  0.2484 -1.6687 -1.0054
  192SLPC    C322218   6.564   5.889   6.874  1.2826 -1.0541 -0.3137
  192SLPC    HX22219   6.473   5.833   6.842  0.4826 -1.7001  2.9122
  192SLPC    HY22220   6.548   5.998   6.857 -0.5292 -1.1300  0.7565
  192SLPC   O3122221   6.577   5.856   7.015 -0.0651  0.8152  0.1695
  192SLPC   C3122222   6.645   5.941   7.091 -0.6862 -0.1312 -0.2557
  192SLPC   O3222223   6.714   6.031   7.050  0.0581  0.7178 -0.0273
  192SLPC   C3222224   6.631   5.902   7.237  0.2126 -1.1580  0.1426
  192SLPC   H2X22225   6.654   5.795   7.251  3.0301 -0.7310 -0.9675
  192SLPC   H2Y22226   6.524   5.921   7.258  1.0313  1.4907  2.3258
  192SLPC   C2322227   6.739   5.448   6.875  0.6893 -0.0222 -0.3375
  192SLPC   H3R22228   6.721   5.345   6.837  0.1521  0.0239 -0.2155
  192SLPC   H3S22229   6.636   5.488   6.886  1.6635  1.8454  2.4218
  192SLPC   C2422230   6.797   5.442   7.019  0.1034 -0.5877  0.3984
  192SLPC   H4R22231   6.826   5.543   7.055  2.2560 -1.5325  1.4007
  192SLPC   H4S22232   6.892   5.386   7.004 -1.0852 -1.9071 -2.5704
  192SLPC   C2522233   6.702   5.384   7.127 -0.2904  1.2774 -0.4988
  192SLPC   H5R22234   6.681   5.282   7.089 -0.6288  1.4338 -0.7393
  192SLPC   H5S22235   6.601   5.431   7.122 -0.8181  0.1786 -0.3760
  192SLPC   C2622236   6.757   5.387   7.275 -0.2803  0.0494  0.1961
  192SLPC   H6R22237   6.775   5.491   7.310 -1.2996  0.5666 -0.7900
  192SLPC   H6S22238   6.861   5.350   7.272  0.4362  1.8027  2.0232
  192SLPC   C2722239   6.667   5.309   7.376 -0.9554  0.1565  0.2330
  192SLPC   H7R22240   6.741   5.265   7.446  0.3788 -0.9696 -1.8816
  192SLPC   H7S22241   6.610   5.228   7.326  0.1002 -0.7552  0.5034
  192SLPC   C2822242   6.577   5.404   7.445  0.2283 -0.7716  0.7062
  192SLPC   H8R22243   6.508   5.336   7.500  2.9565 -1.6941  3.0411
  192SLPC   H8S22244   6.516   5.459   7.370  0.1145 -1.4407  0.2995
  192SLPC   C2922245   6.636   5.496   7.541  0.5773 -0.8647  0.7712
  192SLPC   H9R22246   6.689   5.585   7.503 -0.4465 -1.5693 -2.4475
  192SLPC  C21022247   6.633   5.476   7.676 -0.2957  0.0932 -0.4103
  192SLPC  H10R22248   6.678   5.551   7.742 -0.8125 -0.6556  0.8013
  192SLPC  C21122249   6.576   5.362   7.759 -1.1959 -0.2117  0.0085
  192SLPC  H11R22250   6.664   5.303   7.792  0.8503  2.1899 -0.9381
  192SLPC  H11S22251   6.537   5.274   7.703 -0.6691 -0.3408 -0.1564
  192SLPC  C21222252   6.474   5.395   7.865 -0.1803 -0.5055 -0.5597
  192SLPC  H12R22253   6.378   5.440   7.835 -1.1474 -0.1164  2.9362
  192SLPC  C21322254   6.494   5.377   7.998  0.5324  0.5877 -0.1366
  192SLPC  H13R22255   6.414   5.412   8.066  1.1047 -0.0859  0.9083
  192SLPC  C21422256   6.618   5.331   8.055 -0.5009  0.0217 -0.1927
  192SLPC  H14R22257   6.685   5.267   7.994  0.4103  1.8563 -1.1790
  192SLPC  H14S22258   6.597   5.261   8.138  1.3422 -1.4300 -0.9149
  192SLPC  C21522259   6.697   5.456   8.111 -0.2714 -0.5584  0.3818
  192SLPC  H15R22260   6.716   5.529   8.029 -1.0161  1.2552  1.7973
  192SLPC  H15S22261   6.800   5.429   8.141 -0.2776  1.7485  2.6103
  192SLPC  C21622262   6.638   5.514   8.236  0.9064  0.3870 -0.0276
  192SLPC  H16R22263   6.543   5.569   8.219 -0.6028 -1.5377  1.9527
  192SLPC  H16S22264   6.715   5.584   8.276 -1.0710  2.3400  0.4915
  192SLPC  C21722265   6.621   5.423   8.356 -0.1296 -0.0469 -0.1528
  192SLPC  H17R22266   6.545   5.351   8.319 -0.4365  0.4653 -0.5149
  192SLPC  H17S22267   6.718   5.371   8.374  0.5464  1.3465  0.3280
  192SLPC  C21822268   6.564   5.476   8.487  0.3592  1.2138  0.0456
  192SLPC  H18R22269   6.464   5.523   8.483 -0.0530  0.6917  2.9914
  192SLPC  H18S22270   6.639   5.546   8.530  0.8669  1.0518 -0.5638
  192SLPC  H18T22271   6.566   5.393   8.561  4.4814  0.5946 -0.6233
  192SLPC   C3322272   6.734   5.987   7.322  0.2679  0.0775  0.0794
  192SLPC   H3X22273   6.708   6.093   7.302  0.4005  0.4401  1.7300
  192SLPC   H3Y22274   6.837   5.964   7.289 -0.5712 -2.6067 -0.8444
  192SLPC   C3422275   6.720   5.947   7.470 -0.3796  0.3869  0.2633
  192SLPC   H4X22276   6.784   6.013   7.532  1.5031 -1.0044 -0.1718
  192SLPC   H4Y22277   6.766   5.847   7.483 -2.1325 -0.2656  1.6319
  192SLPC   C3522278   6.579   5.948   7.528  0.3972  0.2951 -0.2956
  192SLPC   H5X22279   6.509   5.882   7.472  0.2115  0.1361  0.1212
  192SLPC   H5Y22280   6.537   6.051   7.533  0.5119  0.3130  0.4293
  192SLPC   C3622281   6.585   5.905   7.675 -0.3276  0.5643 -0.3940
  192SLPC   H6X22282   6.647   5.980   7.730 -0.4949  1.1149 -0.9531
  192SLPC   H6Y22283   6.636   5.807   7.669 -1.3777 -0.0622  0.6857
  192SLPC   C3722284   6.447   5.871   7.738 -0.2758 -0.3402 -0.0168
  192SLPC   H7X22285   6.401   5.788   7.680  0.9495 -0.6227 -0.5978
  192SLPC   H7Y22286   6.382   5.960   7.724 -0.8495 -0.7419  0.0538
  192SLPC   C3822287   6.465   5.842   7.891 -0.6153 -0.4551 -0.5457
  192SLPC   H8X22288   6.507   5.935   7.936 -0.9044 -1.0845  1.0738
  192SLPC   H8Y22289   6.537   5.758   7.900  3.5540  2.9234 -0.3296
  192SLPC   C3922290   6.333   5.803   7.959  0.3114  0.3480 -0.4933
  192SLPC   H9X22291   6.275   5.729   7.901  1.3373 -2.7429  2.2729
  192SLPC   H9Y22292   6.265   5.891   7.958  0.0519  0.2201  1.7822
  192SLPC  C31022293   6.357   5.762   8.108 -0.4627 -0.1015 -0.4078
  192SLPC  H10X22294   6.466   5.770   8.130 -0.2411 -0.7631 -1.2463
  192SLPC  H10Y22295   6.333   5.654   8.113 -0.7896  0.0786  2.8767
  192SLPC  C31122296   6.258   5.840   8.197  0.1321  0.6603 -0.1838
  192SLPC  H11X22297   6.155   5.812   8.167  0.4420 -1.2953  0.4961
  192SLPC  H11Y22298   6.270   5.949   8.183 -0.3091  0.8473  0.8574
  192SLPC  C31222299   6.275   5.800   8.342 -0.3890  0.1977 -0.5557
  192SLPC  H12X22300   6.376   5.827   8.379  0.2111 -3.1957  0.5223
  192SLPC  H12Y22301   6.262   5.690   8.354 -0.8334  0.1418 -1.5047
  192SLPC  C31322302   6.162   5.871   8.422 -0.4579  0.2903 -0.6388
  192SLPC  H13X22303   6.066   5.832   8.381 -0.2912 -1.4228  0.5403
  192SLPC  H13Y22304   6.169   5.981   8.408 -0.8714  0.4498  0.3135
  192SLPC  C31422305   6.151   5.829   8.577 -0.1428  0.7046  0.0594
  192SLPC  H14X22306   6.242   5.856   8.634  0.4130  0.0608 -0.5206
  192SLPC  H14Y22307   6.142   5.718   8.575 -0.8027  0.7608 -0.5527
  192SLPC  C31522308   6.033   5.887   8.662  0.2508 -0.1585  0.3278
  192SLPC  H15X22309   5.930   5.870   8.624  0.3662  0.7761 -0.4173
  192SLPC  H15Y22310   6.045   5.996   8.679  1.2321 -0.2047 -0.0177
  192SLPC  C31622311   6.040   5.828   8.803 -0.4689  0.1650  0.3036
  192SLPC  H16X22312   5.975   5.897   8.860 -3.0740 -2.3502  0.4420
  192SLPC  H16Y22313   6.142   5.840   8.845  0.1717 -2.6700 -0.3494
  192SLPC  C31722314   5.990   5.687   8.831 -0.5911 -0.7532 -0.5833
  192SLPC  H17X22315   5.960   5.685   8.938 -1.9836  2.4483 -0.8702
  192SLPC  H17Y22316   6.071   5.612   8.816  0.9143  0.5748  0.7006
  192SLPC  C31822317   5.871   5.647   8.743  0.0485 -0.2745 -0.0549
  192SLPC  H18X22318   5.781   5.706   8.771 -0.3629 -0.9928  0.1392
  192SLPC  H18Y22319   5.859   5.537   8.749 -1.1355 -0.1855 -0.6001
  192SLPC  H18Z22320   5.896   5.679   8.640  1.1027 -1.9340 -0.3374
  193SOD    SOD22321   5.532   6.518  10.793 -0.6151  0.3268 -0.1668
  194SOD    SOD22322   2.530   4.377  11.231  0.5280  0.0106  0.9419
  195SOD    SOD22323   2.385   1.206  11.640  0.3673 -0.3445 -0.3789
  196SOD    SOD22324   2.927   6.365  11.796  0.1651  0.0831 -0.2556
  197SOD    SOD22325   6.517   3.303   0.181  0.1544 -0.2997  0.2093
  198SOD    SOD22326   6.817   3.549  13.051  0.0564 -0.5448  0.0717
  199SOD    SOD22327   4.511   6.356   1.769  0.0757  0.8751 -0.2410
  200SOD    SOD22328   4.945   0.037  16.378 -0.4432 -0.1444  0.2189
  201SOD    SOD22329   3.385   2.732  10.575 -0.3368  0.1995  0.2230
  202SOD    SOD22330   4.301   2.592   1.048 -0.1404 -0.3315 -0.5382
  203SOD    SOD22331   3.661   1.514   4.793  0.1840 -0.0618 -0.5268
  204SOD    SOD22332   3.285   0.727   0.876  0.0783  0.3162  0.2710
  205SOD    SOD22333   0.962   5.334  15.079 -0.9088 -0.3062  0.3127
  206SOD    SOD22334   4.373   0.305   0.872 -0.1100 -0.0129  0.3429
  207SOD    SOD22335   1.167   2.133   6.237  0.2309 -0.0329 -0.4418
  208SOD    SOD22336   0.239   5.229   2.095  0.2488 -0.0767 -0.2726
  209SOD    SOD22337   3.681   2.401  12.206  0.2192 -0.7505 -0.4440
  210SOD    SOD22338   3.166   2.305  14.953 -0.1142  0.7636  0.2118
  211SOD    SOD22339   3.490   2.844  10.902 -0.4473 -0.2523  0.2559
  212SOD    SOD22340   3.548   5.794  12.570  0.1393 -0.2282 -0.1569
  213SOD    SOD22341   5.494   3.008  13.184 -0.0261  0.0204  0.2374
  214SOD    SOD22342   3.620   2.954   3.827  0.0623  0.0862 -0.1907
  215SOD    SOD22343   6.219   3.218  10.909 -0.1887  0.2874 -0.3638
  216SOD    SOD22344   4.452   5.056  15.435  0.1674  0.2309 -0.5532
  217SOD    SOD22345   1.763   1.994  16.141  0.3441 -0.2000 -0.0668
  218SOD    SOD22346   2.998   2.612   1.080 -0.0609 -0.1216 -0.0175
  219SOD    SOD22347   0.548   6.248   0.907 -0.1704 -0.4533  0.1062
  220SOD    SOD22348   5.985   2.021   0.781  0.4844 -0.3382  0.2532
  221SOD    SOD22349   0.268   4.833  12.832 -0.0186 -0.2466  0.4824
  222SOD    SOD22350   6.431   1.833   5.364  0.3208  0.0874 -0.2253
  223SOD    SOD22351   6.052   6.518  11.895 -0.0496  0.5215  0.1718
  224SOD    SOD22352   5.502   4.289   5.564  0.2192  0.0952 -0.0953
  225SOD    SOD22353   1.065   1.737   1.670  0.5239  0.3444 -0.3005
  226SOD    SOD22354   2.780   5.496   0.026 -0.0418 -0.2881 -0.2198
  227SOD    SOD22355   4.034   6.661  13.731  0.4262  0.0023 -0.1376
  228SOD    SOD22356   6.011   0.238   4.532 -0.5204 -0.4097  0.0757
  229SOD    SOD22357   0.830   0.481  16.290  0.2547  0.1239  0.0017
  230SOD    SOD22358   5.765   2.718   2.918  0.2527  0.2304 -0.4386
  231SOD    SOD22359   1.403   1.678  11.326  0.0612 -0.3643 -0.0356
  232SOD    SOD22360   5.834   5.563  11.347  0.0839 -0.3814 -0.1763
  233SOD    SOD22361   6.459   0.245  14.355 -0.5606  0.0212  0.8397
  234SOD    SOD22362   3.865   0.788   1.490  0.2469 -0.2935  0.9554
  235SOD    SOD22363   0.515   2.060  11.570  0.2904  0.3183 -0.0285
  236SOD    SOD22364   2.032   4.743   2.452  0.1259 -0.3386 -0.2494
  237SOD    SOD22365   2.715   1.628  13.849 -0.1242  0.5640  0.0292
  238SOD    SOD22366   5.891   1.165   5.818  0.3343 -0.2958  0.0132
  239SOD    SOD22367   6.717   1.866  17.101 -0.0175 -0.0869 -0.7723
  240SOD    SOD22368   0.367   0.926  10.611 -0.1372 -0.0928 -0.5325
  241SOD    SOD22369   5.523   4.494   1.261  0.4160 -0.0722  0.1137
  242SOD    SOD22370   3.116   6.125  15.960  0.3016  0.3296 -0.0747
  243SOD    SOD22371   3.190   2.065   6.468 -0.8155 -0.1799 -0.2640
  244SOD    SOD22372   4.073   1.375  15.193  0.1856  0.1905 -0.1646
  245SOD    SOD22373   2.482   3.820  15.493 -0.1167 -0.0630 -0.1356
  246SOD    SOD22374   1.439   5.064   1.715  0.6147 -0.0376 -0.1010
  247SOD    SOD22375   2.586   1.802   4.573 -0.0868 -0.4265 -0.3511
  248SOD    SOD22376   6.392   3.973   1.311  0.1294 -0.6913 -0.8819
  249SOD    SOD22377   3.772   6.265   3.890  0.1428 -0.8039 -0.8844
  250SOD    SOD22378   0.640   4.607   3.671  0.0413 -0.5044 -0.4858
  251SOD    SOD22379   1.157   2.504  13.221  0.3283  0.5028  0.5156
  252SOD    SOD22380   6.498   4.917  14.036  0.0049 -0.2049  0.3296
  253SOD    SOD22381   6.557   5.979   1.588 -0.4781 -0.3412  0.0053
  254SOD    SOD22382   1.722   6.524  16.065  0.1663 -0.5920 -0.1577
  255SOD    SOD22383   0.664   4.977  12.496 -0.3327 -0.0914  0.0344
  256SOD    SOD22384   1.276   2.726  10.823  0.0576 -0.2640  0.0513
  257SOD    SOD22385   2.142   5.837   4.368  0.5112 -0.4491  0.5295
  258SOD    SOD22386   0.918   4.102  11.344 -0.1653  0.1329 -0.0946
  259SOD    SOD22387   2.230   4.558  14.973 -0.0327 -0.2834  0.1035
  260SOD    SOD22388   0.404   0.349   3.639 -0.1506  0.4468 -0.0805
  261SOD    SOD22389   4.369   0.542  12.773  0.0366 -0.1251  0.4894
  262SOD    SOD22390   0.063   3.812   5.759  0.0241 -0.3953 -0.1029
  263SOD    SOD22391   0.615   1.735   2.779  0.2384 -0.0614 -0.1524
  264SOD    SOD22392   1.724   2.532   3.080 -0.1397 -0.6042 -0.1495
  265SOD    SOD22393   1.520   6.252   4.022 -0.1192 -0.0654 -0.3601
  266CLA    CLA22394   1.065   1.535   0.784 -0.2698  0.0530  0.5464
  267CLA    CLA22395   1.943   3.939  15.994 -0.2241 -0.0417 -0.1043
  268CLA    CLA22396   3.293   5.920   4.110  0.0614  0.0275  0.4329
  269CLA    CLA22397   3.587   4.215  17.024 -0.0387  0.4104 -0.1550
  270CLA    CLA22398   0.388   1.069   1.984 -0.2947 -0.3165  0.1614
  271CLA    CLA22399   4.401   0.467   2.885 -0.1340 -0.5539  0.1776
  272CLA    CLA22400   0.991   5.675  13.761  0.3547  0.4284 -0.3455
  273CLA    CLA22401   5.329   1.904   4.568 -0.1183 -0.3666 -0.2695
  274CLA    CLA22402   2.987   6.794   0.086 -0.0504 -0.0885 -0.0056
  275CLA    CLA22403   1.210   1.576   1.825 -0.0930  0.0812 -0.4233
  276CLA    CLA22404   3.362   3.295   1.557  0.4492  0.0094  0.0680
  277CLA    CLA22405   0.357   4.310  16.790  0.1189 -0.2053  0.1901
  278CLA    CLA22406   3.033   1.280  13.415  0.0398  0.3567 -0.5063
  279CLA    CLA22407   6.386   4.689   0.643  0.3305  0.4751  0.5254
  280CLA    CLA22408   4.270   4.209   1.131  0.1798 -0.4252  0.1874
  281CLA    CLA22409   4.416   5.256  14.611  0.1411 -0.0602  0.4382
  282CLA    CLA22410   1.786   0.617   1.799 -0.1673 -0.2579  0.2235
  283CLA    CLA22411   2.541   4.297  13.841  0.1979  0.2762 -0.0872
  284CLA    CLA22412   0.092   4.840  13.298  0.2941  0.3696  0.2613
  285CLA    CLA22413   3.946   5.896  15.807  0.1450  0.0078  0.0490
  286CLA    CLA22414   2.437   2.837  15.113  0.4297  0.5144 -0.5347
  287CLA    CLA22415   4.581   0.831   2.360  0.1552 -0.2888  0.3607
  288CLA    CLA22416   2.992   5.542   2.717 -0.0008 -0.2808 -0.2588
  289CLA    CLA22417   0.046   6.106  14.296 -0.1403 -0.2018  0.0124
  290CLA    CLA22418   1.329   1.715  16.304  0.0216 -0.1783  0.0358
  291CLA    CLA22419   6.739   5.201   1.605 -0.6005  0.2967 -0.1377
  292CLA    CLA22420   0.199   0.770   0.438 -0.1441 -0.2746  0.2754
  293CLA    CLA22421   5.694   1.210   0.506  0.2200 -0.6395 -0.1211
  294CLA    CLA22422   4.343   1.035  13.521  0.2242  0.3367 -0.0199
  295CLA    CLA22423   2.503   2.299  13.168 -0.3132 -0.0640  0.0688
  296CLA    CLA22424   0.533   1.446  13.412 -0.1717  0.0137 -0.1711
  297CLA    CLA22425   6.355   3.378   2.130 -0.0079  0.0110 -0.2633
  298CLA    CLA22426   0.942   6.416   5.234  0.0672  0.5545  0.1794
  299CLA    CLA22427   2.734   2.937  11.666  0.2815 -0.0497  0.1753
  300CLA    CLA22428   6.599   0.061  13.902  0.0585 -0.0152  0.0674
  301CLA    CLA22429   4.395   5.103   4.153 -0.1094  0.1112  0.1048
  302CLA    CLA22430   3.170   5.876  16.501  0.1735  0.1474  0.0472
  303CLA    CLA22431   2.248   5.187  14.224 -0.2861  0.1666  0.0004
  304CLA    CLA22432   6.513   5.108   1.134 -0.2030  0.4051  0.2558
  305CLA    CLA22433   3.368   0.504   1.873  0.2871  0.0372 -0.3607
  306CLA    CLA22434   2.186   6.715  16.067 -0.1812  0.0520 -0.2571
  307CLA    CLA22435   2.164   2.628   2.884 -0.1753  0.1274  0.0478
  308CLA    CLA22436   6.508   5.931  11.779 -0.4101 -0.0183  0.6723
  309CLA    CLA22437   4.429   0.310   4.537 -0.1429 -0.1081  0.0496
  310CLA    CLA22438   3.159   5.486  11.673 -0.3429 -0.2490 -0.6193
  311CLA    CLA22439   4.979   2.062   1.245  0.1755 -0.3269 -0.3488
  312CLA    CLA22440   4.697   5.464  12.627 -0.0976 -0.5551 -0.2943
  313CLA    CLA22441   3.456   0.475  14.008 -0.1377  0.3844  0.0599
  314CLA    CLA22442   2.319   5.432  16.293  0.2254  0.2247  0.2483
  315CLA    CLA22443   1.411   4.501   1.188 -0.0453  0.1861 -0.6919
  316CLA    CLA22444   0.425   6.085  15.376 -0.1693 -0.0913 -0.1904
  317CLA    CLA22445   0.452   3.374  14.305 -0.3839 -0.6095  0.3615
  318CLA    CLA22446   6.666   2.367  12.926  0.2062  0.4915 -0.0082
  319TIP3   OH222447   0.539   6.648   6.087 -1.0136 -0.5137  0.3264
  319TIP3    H122448   0.515   6.563   6.124 -0.9381 -0.1382  1.2324
  319TIP3    H222449   0.634   6.653   6.099 -0.8830 -0.6868 -0.5465
  320TIP3   OH222450   4.200   5.412   4.098  0.5137 -0.1399 -0.3043
  320TIP3    H122451   4.237   5.500   4.101  1.7756 -0.4543 -3.8884
  320TIP3    H222452   4.258   5.363   4.039 -1.0897 -2.9197  0.3154
  321TIP3   OH222453   4.527   6.332   1.037 -0.5603 -0.1620 -0.0562
  321TIP3    H122454   4.541   6.250   1.085 -1.6874 -1.1548 -1.3864
  321TIP3    H222455   4.613   6.375   1.038 -0.1954 -0.9012  1.4785
  322TIP3   OH222456   0.429   3.432  17.207  0.4730  0.2679 -0.2654
  322TIP3    H122457   0.515   3.400  17.179  0.8938  0.1400  1.1434
  322TIP3    H222458   0.371   3.357  17.194  1.2223 -0.7311  1.8638
  323TIP3   OH222459   2.794   6.477   5.111  0.0400  0.1496 -0.0965
  323TIP3    H122460   2.787   6.404   5.049 -0.0315  1.0488 -1.1762
  323TIP3    H222461   2.758   6.443   5.193 -1.7991 -0.4337 -1.1110
  324TIP3   OH222462   0.463   1.546  16.990  0.8389 -0.5167  0.0821
  324TIP3    H122463   0.444   1.602  17.066  0.6632  0.0838 -0.4047
  324TIP3    H222464   0.451   1.457  17.023 -1.0737 -0.2014  0.2547
  325TIP3   OH222465   6.538   6.124  10.847  0.2327  0.1659 -0.6565
  325TIP3    H122466   6.467   6.176  10.885 -0.6355 -1.0319 -0.6168
  325TIP3    H222467   6.615   6.148  10.898  0.0083  1.9426 -1.0897
  326TIP3   OH222468   1.446   1.974   5.997 -0.2965  0.6577 -0.1265
  326TIP3    H122469   1.428   2.067   5.986 -0.4415  0.7336  0.7107
  326TIP3    H222470   1.453   1.962   6.092  0.8694  0.0248 -0.2866
  327TIP3   OH222471   4.259   4.462  14.562  0.4119  0.2571  0.1421
  327TIP3    H122472   4.196   4.534  14.558  1.8060  1.4011 -2.2015
  327TIP3    H222473   4.336   4.495  14.516  2.0126 -1.8492  1.2043
  328TIP3   OH222474   5.614   6.254  16.701  0.1869 -0.9560  0.1874
  328TIP3    H122475   5.530   6.265  16.655 -0.3551  0.6754  1.4789
  328TIP3    H222476   5.673   6.218  16.635 -0.8989  0.0963 -1.4123
  329TIP3   OH222477   6.744   5.649   5.471 -0.6327  0.0378 -0.5349
  329TIP3    H122478   6.812   5.713   5.490  0.8866 -1.7031  0.1223
  329TIP3    H222479   6.707   5.628   5.557  1.5851 -2.8117 -0.1817
  330TIP3   OH222480   5.202   5.680   1.394 -0.1478 -0.2129  0.3107
  330TIP3    H122481   5.241   5.747   1.450  2.3812 -1.4071  0.0629
  330TIP3    H222482   5.224   5.598   1.437 -0.7154 -1.0162 -0.9227
  331TIP3   OH222483   6.248   4.010   2.081  0.5075 -0.1715 -0.2885
  331TIP3    H122484   6.259   4.094   2.125 -0.2071  0.1711 -0.7661
  331TIP3    H222485   6.338   3.982   2.061  0.7205  0.7618 -0.6654
  332TIP3   OH222486   3.725   2.710   2.531  0.5182  0.6420  0.0211
  332TIP3    H122487   3.664   2.769   2.575  0.6738  0.8420 -0.0323
  332TIP3    H222488   3.669   2.644   2.491  0.4072  0.1244  1.0148
  333TIP3   OH222489   1.320   4.249  15.495 -0.2543  0.1001 -0.1096
  333TIP3    H122490   1.229   4.276  15.480 -0.2995 -0.2994 -0.5498
  333TIP3    H222491   1.342   4.288  15.580 -0.9371 -0.0466  0.1406
  334TIP3   OH222492   3.888   0.223   2.677 -0.2366 -0.1671 -0.3487
  334TIP3    H122493   3.903   0.138   2.637  0.4429 -0.1274 -0.1733
  334TIP3    H222494   3.975   0.262   2.686 -0.4253  0.0140  0.7486
  335TIP3   OH222495   3.939   4.016   0.455  0.3641 -0.9517 -0.4114
  335TIP3    H122496   3.875   3.957   0.496  1.6012 -1.1807  1.2240
  335TIP3    H222497   3.974   3.966   0.382 -0.8188 -1.0793 -0.9137
  336TIP3   OH222498   1.726   3.363  16.677 -0.6576 -0.4134 -0.0463
  336TIP3    H122499   1.725   3.346  16.583 -1.1297  3.1222 -0.7513
  336TIP3    H222500   1.779   3.442  16.686 -0.9681 -0.4791  2.6262
  337TIP3   OH222501   0.422   6.216   2.483  0.2373 -0.2317 -0.1161
  337TIP3    H122502   0.441   6.292   2.428  0.5528 -0.4314 -0.2769
  337TIP3    H222503   0.335   6.187   2.455  1.2240 -1.5322 -1.8466
  338TIP3   OH222504   3.047   1.381   1.066 -0.4440 -0.6815  0.1119
  338TIP3    H122505   3.015   1.301   1.109  0.7414 -1.0225  0.3989
  338TIP3    H222506   3.001   1.384   0.983 -1.2617 -1.1203  0.5419
  339TIP3   OH222507   1.681   5.903  14.059  0.0574 -0.0398 -0.3461
  339TIP3    H122508   1.685   5.980  14.114 -0.0656 -0.8193  0.7641
  339TIP3    H222509   1.676   5.829  14.120 -0.4497 -0.8920 -1.3938
  340TIP3   OH222510   1.552   4.755   4.263  0.3231  0.6952  0.2145
  340TIP3    H122511   1.526   4.692   4.330  2.0351  1.1254  1.3050
  340TIP3    H222512   1.492   4.829   4.276  1.9273  1.6494  2.6793
  341TIP3   OH222513   1.016   2.995  17.128 -0.3874  0.1059 -0.0009
  341TIP3    H122514   1.033   2.931  17.060 -0.4319 -0.1916  0.2667
  341TIP3    H222515   1.043   3.079  17.090  1.6477 -0.3391  0.3752
  342TIP3   OH222516   4.216   5.156   2.166 -0.3995  0.2515  0.6720
  342TIP3    H122517   4.174   5.206   2.236 -0.4368 -1.0795  1.6149
  342TIP3    H222518   4.263   5.086   2.211  0.7250  0.1986 -0.5485
  343TIP3   OH222519   1.003   4.283   3.264  0.0861 -0.1332 -0.4221
  343TIP3    H122520   1.029   4.245   3.181 -1.0550  1.2977 -1.4708
  343TIP3    H222521   1.084   4.292   3.314  0.7489 -1.1306 -1.3312
  344TIP3   OH222522   5.470   5.203  13.167  0.0276 -0.2814  0.9437
  344TIP3    H122523   5.559   5.173  13.185  0.4629  0.8015  0.6424
  344TIP3    H222524   5.448   5.260  13.240 -0.3262 -0.3331  0.8795
  345TIP3   OH222525   0.538   6.649  11.900 -0.4193 -0.1481  0.2990
  345TIP3    H122526   0.515   6.598  11.978  0.1543  0.1678  0.6759
  345TIP3    H222527   0.457   6.694  11.876 -0.3936  0.3843  1.1899
  346TIP3   OH222528   5.999   1.664   4.728  0.5142 -0.4085 -0.3094
  346TIP3    H122529   6.000   1.747   4.680  1.3234 -0.1076  0.2222
  346TIP3    H222530   5.929   1.613   4.686 -0.9282  1.0698  0.2771
  347TIP3   OH222531   5.136   5.212  14.810  0.2880 -0.7152  0.3022
  347TIP3    H122532   5.166   5.167  14.890 -0.7418 -0.3352  0.9178
  347TIP3    H222533   5.043   5.190  14.805  0.1045  0.1823 -0.1846
  348TIP3   OH222534   3.783   6.093   3.076  0.7412 -0.6900 -0.2227
  348TIP3    H122535   3.710   6.099   3.015 -0.7001  0.6386  1.5931
  348TIP3    H222536   3.793   5.999   3.092  0.6609 -0.9944 -1.9095
  349TIP3   OH222537   5.289   2.040  15.823  0.1219 -0.3458 -0.0261
  349TIP3    H122538   5.356   2.097  15.860 -2.1433  1.4264  1.4965
  349TIP3    H222539   5.237   2.098  15.767 -3.0135 -0.5554  2.5807
  350TIP3   OH222540   2.247   1.689   2.517 -0.4943 -0.7557  0.6604
  350TIP3    H122541   2.276   1.686   2.426  2.3849  0.8852  1.4495
  350TIP3    H222542   2.166   1.639   2.518 -0.3784 -1.1425 -2.7221
  351TIP3   OH222543   4.920   0.246   2.746  0.1818 -0.5440 -0.0295
  351TIP3    H122544   4.855   0.261   2.678  0.4264 -2.8241 -0.8423
  351TIP3    H222545   4.894   0.302   2.819 -1.0900  0.6147 -1.3588
  352TIP3   OH222546   6.189   1.675   1.702 -0.6563 -0.0386  0.1396
  352TIP3    H122547   6.191   1.716   1.615  1.8502  1.3010  0.7756
  352TIP3    H222548   6.190   1.748   1.763  2.0606 -1.0035  1.3021
  353TIP3   OH222549   3.628   6.277   4.537 -0.1591  0.0556  0.6141
  353TIP3    H122550   3.585   6.247   4.457  1.6514 -1.5908  0.2101
  353TIP3    H222551   3.590   6.224   4.607 -1.3713  1.1350  0.7844
  354TIP3   OH222552   1.629   2.984   0.362 -0.0092  0.1365 -0.6596
  354TIP3    H122553   1.538   3.006   0.383 -0.8275 -2.8233 -0.8956
  354TIP3    H222554   1.679   3.011   0.439 -1.5101 -0.8519  0.6775
  355TIP3   OH222555   2.056   4.265  13.205 -0.6969 -0.3749 -0.4633
  355TIP3    H122556   2.056   4.328  13.132  0.1163 -0.2614 -0.3758
  355TIP3    H222557   1.972   4.221  13.199 -1.1600  0.5307 -0.7022
  356TIP3   OH222558   6.103   5.344   4.225 -0.2487 -0.4943  0.2544
  356TIP3    H122559   6.032   5.296   4.267 -0.0711  0.0648  1.2062
  356TIP3    H222560   6.072   5.434   4.220  0.7674 -0.0591  1.5608
  357TIP3   OH222561   1.840   1.242  16.086  0.1944  0.0926 -0.4764
  357TIP3    H122562   1.803   1.328  16.067 -0.4541 -0.1777 -0.4521
  357TIP3    H222563   1.889   1.254  16.167 -1.1553  0.0880  0.3522
  358TIP3   OH222564   4.849   1.332   5.121 -0.1760 -0.3247 -0.0371
  358TIP3    H122565   4.914   1.266   5.143  0.9127  1.0467  0.9432
  358TIP3    H222566   4.831   1.319   5.028 -0.3735 -2.3355  0.2702
  359TIP3   OH222567   2.312   2.545  10.777  0.1807 -0.6825 -0.8902
  359TIP3    H122568   2.283   2.612  10.839 -1.7514 -2.2256 -0.0403
  359TIP3    H222569   2.241   2.540  10.713 -0.0963 -2.4165 -0.4951
  360TIP3   OH222570   0.493   1.214  12.153 -0.4172 -0.0129 -0.6888
  360TIP3    H122571   0.404   1.227  12.188 -0.2644 -0.1279 -0.2604
  360TIP3    H222572   0.479   1.198  12.060 -0.9013 -0.7342 -0.4950
  361TIP3   OH222573   2.621   5.468   4.674  0.0116 -0.0894 -0.4331
  361TIP3    H122574   2.666   5.518   4.606  0.1401 -1.0398 -1.0548
  361TIP3    H222575   2.679   5.394   4.692 -0.9011 -0.8627 -0.6415
  362TIP3   OH222576   3.691   5.041   6.319 -0.2854 -0.5907 -0.3922
  362TIP3    H122577   3.606   5.062   6.282 -1.5954  0.0115  2.8150
  362TIP3    H222578   3.688   4.946   6.335 -0.0446 -0.7040 -1.0125
  363TIP3   OH222579   2.985   0.652   2.470  0.4540  0.2318 -0.2366
  363TIP3    H122580   3.012   0.743   2.460 -0.1338  0.5834  1.2407
  363TIP3    H222581   3.021   0.607   2.394  3.4961  1.0643  0.6447
  364TIP3   OH222582   5.350   1.545  12.898 -0.6036  0.3518 -0.6895
  364TIP3    H122583   5.310   1.538  12.811  1.4281 -0.5030 -1.6018
  364TIP3    H222584   5.423   1.483  12.896 -0.8121 -0.0365  1.8122
  365TIP3   OH222585   5.666   4.405  12.499  0.4791  0.0538 -0.5737
  365TIP3    H122586   5.606   4.420  12.573  1.2309 -0.6943  0.1903
  365TIP3    H222587   5.688   4.313  12.505  0.9030  0.0967 -1.4824
  366TIP3   OH222588   0.335   4.836   0.562  0.1484  0.0842  0.5211
  366TIP3    H122589   0.418   4.882   0.571  0.9995 -0.9856 -1.5298
  366TIP3    H222590   0.348   4.753   0.608  0.8005 -0.7491 -1.0914
  367TIP3   OH222591   6.761   2.181  11.385 -0.5554  0.4205  0.1111
  367TIP3    H122592   6.799   2.096  11.410 -1.5075 -0.2581 -0.7016
  367TIP3    H222593   6.731   2.167  11.295  1.9546  2.5157 -1.1012
  368TIP3   OH222594   1.397   6.501  14.610 -1.0974 -0.4477  0.3537
  368TIP3    H122595   1.450   6.581  14.617  0.5871 -1.5970  1.2024
  368TIP3    H222596   1.337   6.506  14.685 -1.8309  0.6011 -0.2932
  369TIP3   OH222597   0.689   2.223   1.182  1.2725  0.1613 -0.5175
  369TIP3    H122598   0.720   2.313   1.179  1.1741  0.3342  1.9365
  369TIP3    H222599   0.745   2.176   1.121  0.7927  2.0205 -2.4219
  370TIP3   OH222600   3.589   5.841  16.573  0.4675 -0.4735  0.1788
  370TIP3    H122601   3.613   5.755  16.540  1.5808 -0.4095  0.7869
  370TIP3    H222602   3.645   5.854  16.649 -1.5232 -0.2945  1.6454
  371TIP3   OH222603   4.156   1.699  13.028 -0.2001  0.3134 -0.6349
  371TIP3    H122604   4.078   1.756  13.031  0.0960  0.6868  0.0156
  371TIP3    H222605   4.200   1.715  13.111 -0.1376 -0.9119 -0.4331
  372TIP3   OH222606   5.085   2.285   0.976 -0.1474  0.1904 -0.1449
  372TIP3    H122607   5.127   2.349   0.918 -0.7119  1.3976  0.7356
  372TIP3    H222608   5.141   2.281   1.053  0.0948 -0.6900 -0.3599
  373TIP3   OH222609   0.555   2.233  12.391 -0.2421  0.2136 -0.5479
  373TIP3    H122610   0.467   2.199  12.401 -0.2364  0.3598  0.0047
  373TIP3    H222611   0.600   2.209  12.472  0.1932  0.2259 -0.7834
  374TIP3   OH222612   1.880   2.751  13.338  0.0776 -0.0003  0.0594
  374TIP3    H122613   1.867   2.695  13.415  1.2302  0.5360  0.6447
  374TIP3    H222614   1.799   2.802  13.332 -0.2183 -0.3909  0.6291
  375TIP3   OH222615   0.199   0.956   4.177  0.0137 -0.6955  0.1868
  375TIP3    H122616   0.174   0.867   4.203 -0.4345 -0.3395  1.0218
  375TIP3    H222617   0.160   0.968   4.091 -3.5343  0.1334  1.7932
  376TIP3   OH222618   5.516   2.892  12.752 -0.2765 -0.1519 -0.2707
  376TIP3    H122619   5.446   2.832  12.730  0.7502 -1.2424 -0.6041
  376TIP3    H222620   5.523   2.950  12.676 -1.0763  0.2200 -0.0654
  377TIP3   OH222621   3.707   5.723  14.563  0.8746  0.3526 -0.0457
  377TIP3    H122622   3.613   5.739  14.577  0.2240 -2.0462 -1.3656
  377TIP3    H222623   3.746   5.810  14.557 -1.2033  1.3873  0.8853
  378TIP3   OH222624   4.107   3.065  11.534  0.0180  0.2403 -0.0868
  378TIP3    H122625   4.014   3.057  11.510  0.0136  0.1353 -0.0359
  378TIP3    H222626   4.146   3.114  11.462 -0.2029  0.8397  0.1942
  379TIP3   OH222627   0.248   4.582   4.642 -0.0600 -0.2046 -0.0535
  379TIP3    H122628   0.221   4.558   4.731 -0.6233 -0.6444 -0.3403
  379TIP3    H222629   0.267   4.676   4.647 -0.5910 -0.1179  0.4117
  380TIP3   OH222630   3.862   3.310   5.310 -0.0971 -0.3052 -0.0320
  380TIP3    H122631   3.954   3.336   5.305 -0.4279  1.3193  1.7069
  380TIP3    H222632   3.831   3.313   5.219  1.6529 -1.2609 -0.6803
  381TIP3   OH222633   0.607   2.408  11.377  0.0895 -0.1221  0.3261
  381TIP3    H122634   0.578   2.408  11.285  1.9086 -0.5504 -0.2724
  381TIP3    H222635   0.674   2.476  11.381 -0.4295  0.3298  1.4989
  382TIP3   OH222636   5.373   3.179  12.385  0.4128 -0.4467  0.2598
  382TIP3    H122637   5.449   3.138  12.343  0.3076  1.7292 -2.2098
  382TIP3    H222638   5.298   3.133  12.348  0.3835  0.3997 -0.7554
  383TIP3   OH222639   5.011   4.150   2.902 -0.3204 -0.3102 -0.3113
  383TIP3    H122640   4.937   4.157   2.962 -1.0639 -0.6078 -1.1791
  383TIP3    H222641   5.063   4.077   2.936 -0.1047  0.2667  0.6283
  384TIP3   OH222642   5.609   4.774  11.661 -0.6013 -0.2431 -0.4583
  384TIP3    H122643   5.524   4.818  11.658 -0.5063 -0.1802 -2.8215
  384TIP3    H222644   5.589   4.681  11.652 -0.4872 -0.3011 -0.1071
  385TIP3   OH222645   4.876   6.265  13.073 -0.1347 -0.5001 -0.1919
  385TIP3    H122646   4.916   6.187  13.035 -0.9776 -0.4561 -1.1901
  385TIP3    H222647   4.949   6.317  13.106  0.4206 -1.8087  0.6715
  386TIP3   OH222648   6.254   3.702   4.463  0.1748 -0.0536  0.8570
  386TIP3    H122649   6.325   3.757   4.498  0.4936  0.2617 -0.2531
  386TIP3    H222650   6.243   3.732   4.373  1.1970 -2.6379 -0.1802
  387TIP3   OH222651   0.004   2.089  16.306 -0.4050  0.5434 -0.5599
  387TIP3    H122652   0.024   2.159  16.367 -0.1506  2.1124 -2.3918
  387TIP3    H222653   0.064   2.018  16.329 -0.4475  1.0302  1.0989
  388TIP3   OH222654   3.509   1.602   4.637 -0.3362 -0.5073  0.2213
  388TIP3    H122655   3.472   1.689   4.651  0.9197  0.0056  0.4234
  388TIP3    H222656   3.433   1.546   4.619 -1.3695  0.1837  2.2987
  389TIP3   OH222657   3.628   4.739  11.803  0.2762  0.1839 -0.1452
  389TIP3    H122658   3.610   4.820  11.853  0.8775  0.5030 -0.4463
  389TIP3    H222659   3.561   4.738  11.735 -0.7172 -0.3894  0.8267
  390TIP3   OH222660   3.450   4.123  11.929 -0.2097  0.0423  0.5486
  390TIP3    H122661   3.495   4.201  11.961  0.1853 -0.9711  2.5078
  390TIP3    H222662   3.519   4.057  11.920 -0.5192 -0.0807 -1.2067
  391TIP3   OH222663   2.587   6.761  15.171 -0.2682 -0.1948 -0.3711
  391TIP3    H122664   2.656   6.810  15.125 -0.4145  1.0627  0.7087
  391TIP3    H222665   2.547   6.707  15.104  2.4855 -1.7580 -0.8132
  392TIP3   OH222666   2.156   5.536  12.907  0.5562  0.3524  0.0481
  392TIP3    H122667   2.117   5.502  12.826  0.3797  1.8496 -0.5206
  392TIP3    H222668   2.232   5.480  12.923  0.0458 -0.5450 -0.6389
  393TIP3   OH222669   5.586   5.592  16.333  0.2787  0.9646 -0.1670
  393TIP3    H122670   5.653   5.563  16.395 -1.6785 -0.0824  1.4912
  393TIP3    H222671   5.582   5.522  16.268 -1.4443 -0.5118  1.4961
  394TIP3   OH222672   6.539   2.972  14.207  0.0100 -0.4524 -0.5041
  394TIP3    H122673   6.597   2.899  14.231  2.9320  1.8714 -0.1996
  394TIP3    H222674   6.592   3.050  14.221 -2.9274  1.7505 -1.1827
  395TIP3   OH222675   1.584   4.513  11.013 -0.1632 -0.0342  0.2631
  395TIP3    H122676   1.613   4.588  10.960 -1.0185 -0.3884 -0.7139
  395TIP3    H222677   1.664   4.480  11.054  0.1606  1.7003  1.0846
  396TIP3   OH222678   1.185   4.891  12.423  0.6818 -0.1750  0.2291
  396TIP3    H122679   1.206   4.981  12.400  0.8607 -0.1977  0.2977
  396TIP3    H222680   1.229   4.877  12.507  0.3198 -0.1986  0.4163
  397TIP3   OH222681   2.025   6.712   1.655  0.0823  0.4907  0.2044
  397TIP3    H122682   1.962   6.645   1.629  0.8885 -0.2639  0.1478
  397TIP3    H222683   2.106   6.687   1.610 -0.2400  2.9588 -1.9142
  398TIP3   OH222684   2.258   5.663   1.548  0.1678 -0.2592 -0.7557
  398TIP3    H122685   2.289   5.725   1.615 -1.0941 -0.0312 -0.3542
  398TIP3    H222686   2.179   5.704   1.513 -0.6365 -1.6015 -0.5485
  399TIP3   OH222687   2.012   6.739   2.617 -0.3406  0.1452 -0.2061
  399TIP3    H122688   1.953   6.719   2.545 -1.3633  1.0939  0.3596
  399TIP3    H222689   2.093   6.693   2.595 -0.9468 -0.3212 -1.4956
  400TIP3   OH222690   1.136   2.693   5.243  0.3361  0.3431  0.3933
  400TIP3    H122691   1.206   2.750   5.275  0.8829  0.5946 -1.1925
  400TIP3    H222692   1.167   2.662   5.158 -0.8237 -0.7531  0.3492
  401TIP3   OH222693   1.066   5.846  11.355 -0.1194 -0.8416 -0.3689
  401TIP3    H122694   1.151   5.804  11.368 -0.2513 -0.9322  0.2058
  401TIP3    H222695   1.007   5.799  11.415  0.0802  1.3046  1.5384
  402TIP3   OH222696   2.140   2.895  14.549  0.8243  0.0213 -0.5589
  402TIP3    H122697   2.106   2.815  14.589 -0.3025  0.4681 -0.5830
  402TIP3    H222698   2.061   2.941  14.518  1.6747 -0.3153 -3.2956
  403TIP3   OH222699   6.567   5.574  12.577  0.0844  0.1119  0.3014
  403TIP3    H122700   6.558   5.559  12.483 -0.4885  0.5711  0.2797
  403TIP3    H222701   6.602   5.663  12.584 -0.0517  0.1504  0.5270
  404TIP3   OH222702   0.565   4.571  16.438 -0.2132 -0.0673 -0.1983
  404TIP3    H122703   0.523   4.485  16.449 -0.0071 -0.1282  0.1222
  404TIP3    H222704   0.605   4.568  16.351  0.4172 -0.5643  0.1041
  405TIP3   OH222705   3.700   5.629  12.483  0.1983  0.6880 -0.0320
  405TIP3    H122706   3.775   5.658  12.431  0.1483  0.5173 -0.1993
  405TIP3    H222707   3.722   5.540  12.509  1.2894  1.5743  2.2335
  406TIP3   OH222708   3.223   4.347   4.244 -0.1729 -0.1388  0.3806
  406TIP3    H122709   3.169   4.420   4.216 -0.3448 -0.1976  0.5539
  406TIP3    H222710   3.186   4.322   4.329 -0.7042 -1.0296 -0.1106
  407TIP3   OH222711   5.794   0.852   2.858 -0.0629 -0.6845  0.5913
  407TIP3    H122712   5.709   0.895   2.869  1.1409  1.7295  0.9002
  407TIP3    H222713   5.802   0.794   2.934 -1.9327 -1.8430 -0.0780
  408TIP3   OH222714   4.761   2.116   5.025 -0.2241 -0.3447  0.1123
  408TIP3    H122715   4.697   2.186   5.033 -1.2882 -1.0159 -2.1125
  408TIP3    H222716   4.714   2.037   5.053 -0.0219 -0.6536 -0.3994
  409TIP3   OH222717   6.662   0.472  15.106 -0.5025  0.3533 -0.4618
  409TIP3    H122718   6.613   0.470  15.023 -2.2045  0.2691  0.5176
  409TIP3    H222719   6.663   0.381  15.136  2.8233 -0.1543 -1.8884
  410TIP3   OH222720   3.663   3.722  14.216  0.4082  0.3525 -1.0187
  410TIP3    H122721   3.695   3.636  14.191 -0.0058 -0.2171  0.3610
  410TIP3    H222722   3.619   3.708  14.300 -1.2995  1.5519 -1.6756
  411TIP3   OH222723   3.981   3.823   3.526 -0.6894  0.1449  0.1376
  411TIP3    H122724   4.021   3.743   3.561  0.3963  0.8738  0.5784
  411TIP3    H222725   4.055   3.878   3.502 -1.4365  0.6356 -1.0882
  412TIP3   OH222726   0.328   4.037  15.900 -0.1800 -0.9221 -0.2210
  412TIP3    H122727   0.385   4.062  15.828 -1.7486  2.1381 -0.4368
  412TIP3    H222728   0.269   3.971  15.862 -0.7601  0.3949 -1.6810
  413TIP3   OH222729   4.136   4.191   3.353 -0.2823  0.1269  0.5911
  413TIP3    H122730   4.115   4.102   3.324  0.5531 -0.6841  2.3799
  413TIP3    H222731   4.206   4.179   3.418  0.4397  2.1649  0.2204
  414TIP3   OH222732   3.662   0.498   5.133  0.3470 -0.4125  0.3773
  414TIP3    H122733   3.617   0.511   5.216  0.2199  1.0276  0.0911
  414TIP3    H222734   3.733   0.438   5.153 -0.2741 -0.8411  1.3224
  415TIP3   OH222735   4.285   5.790  12.280  0.1300  1.0504 -0.2688
  415TIP3    H122736   4.238   5.711  12.305 -0.9653  1.7972  0.0738
  415TIP3    H222737   4.371   5.781  12.321  0.4329 -0.4988 -1.2074
  416TIP3   OH222738   4.062   1.429   4.625 -0.3140  0.1982  0.1617
  416TIP3    H122739   4.136   1.405   4.680  0.5868 -0.3646 -1.2648
  416TIP3    H222740   4.101   1.473   4.549 -1.3554 -0.7176 -0.9379
  417TIP3   OH222741   0.221   3.902   4.374 -0.3958  0.2286  0.2018
  417TIP3    H122742   0.225   3.807   4.365 -1.3103  0.2503 -0.5451
  417TIP3    H222743   0.306   3.926   4.412 -0.6003 -0.9914  1.4822
  418TIP3   OH222744   1.858   3.174   4.016 -0.0863 -0.5945  0.5748
  418TIP3    H122745   1.830   3.107   4.078  0.2999 -0.2068  1.1807
  418TIP3    H222746   1.892   3.244   4.071 -0.3507  0.0365 -0.0558
  419TIP3   OH222747   5.352   3.083   4.436 -0.4553  0.1060  0.3099
  419TIP3    H122748   5.306   2.999   4.435 -1.7711  0.8043  1.8645
  419TIP3    H222749   5.373   3.098   4.528  0.2713  1.2373 -0.0287
  420TIP3   OH222750   2.142   0.945   5.092  0.6090 -0.0556  0.2917
  420TIP3    H122751   2.186   0.891   5.027  0.9598  0.2702  0.2538
  420TIP3    H222752   2.088   1.005   5.039  1.0877  0.3771  0.2849
  421TIP3   OH222753   6.295   0.853  16.957  0.0083 -0.4370 -0.4145
  421TIP3    H122754   6.216   0.855  16.904 -0.0346  0.4186 -0.3303
  421TIP3    H222755   6.285   0.776  17.013 -0.7715 -0.3107 -0.3843
  422TIP3   OH222756   0.286   0.506   1.077 -0.0281  0.0353  0.3677
  422TIP3    H122757   0.283   0.535   1.168 -2.8747 -2.3035  1.0734
  422TIP3    H222758   0.321   0.581   1.030 -1.0057  2.2519  3.0121
  423TIP3   OH222759   2.602   2.450   5.598 -0.2006 -0.1216  0.2194
  423TIP3    H122760   2.614   2.361   5.564  1.4130  0.0945  0.2014
  423TIP3    H222761   2.650   2.452   5.680  0.2968  0.9233 -0.0871
  424TIP3   OH222762   3.775   4.917  15.667 -0.0358  0.0677  0.5371
  424TIP3    H122763   3.739   4.921  15.755  1.0402 -0.9979  1.0360
  424TIP3    H222764   3.793   4.824  15.653  0.7394  0.3538 -0.4259
  425TIP3   OH222765   2.393   2.593  15.746 -0.5567 -0.0036 -0.4050
  425TIP3    H122766   2.357   2.531  15.809  0.2736  1.1127  1.1922
  425TIP3    H222767   2.316   2.635  15.707 -1.0648 -0.5991 -0.0423
  426TIP3   OH222768   5.171   0.407  15.921 -0.3238  0.6977 -0.0752
  426TIP3    H122769   5.266   0.404  15.908 -0.5840 -0.8103 -1.7919
  426TIP3    H222770   5.152   0.500  15.934  1.3955  1.0052  0.4008
  427TIP3   OH222771   2.861   0.456   1.314  0.7085 -0.1223  0.0071
  427TIP3    H122772   2.825   0.544   1.307  2.0068  0.4605  0.5793
  427TIP3    H222773   2.832   0.425   1.400  1.2289  0.1909  0.2954
  428TIP3   OH222774   1.104   4.266  11.347 -0.0096 -0.3097  0.1327
  428TIP3    H122775   1.173   4.233  11.404 -0.4458  1.0784  1.5031
  428TIP3    H222776   1.141   4.347  11.310 -0.7858  0.3069  0.6798
  429TIP3   OH222777   0.896   5.336  12.162  0.0477  0.0082  0.3586
  429TIP3    H122778   0.912   5.395  12.236  1.0170  0.9921 -0.6175
  429TIP3    H222779   0.810   5.362  12.129  0.4109  0.7836  0.0188
  430TIP3   OH222780   6.400   5.328   0.595 -0.3457  0.0897 -0.7929
  430TIP3    H122781   6.485   5.294   0.566 -0.0950 -0.5034  0.5601
  430TIP3    H222782   6.421   5.410   0.640 -0.3469 -0.5721  0.4486
  431TIP3   OH222783   0.427   0.701  10.637  0.0114  0.4575  0.1441
  431TIP3    H122784   0.494   0.691  10.705  0.0105 -0.5394  0.0138
  431TIP3    H222785   0.458   0.644  10.566  0.0511  1.5478 -0.7172
  432TIP3   OH222786   2.821   3.668   1.729 -0.8054 -0.5102  0.2985
  432TIP3    H122787   2.892   3.611   1.759  0.4531  0.1325 -1.4080
  432TIP3    H222788   2.860   3.755   1.722 -1.7786 -0.1275 -0.5659
  433TIP3   OH222789   4.601   0.973   6.757 -0.1454  0.2130  0.1346
  433TIP3    H122790   4.557   0.899   6.716  0.2611 -0.0056  0.0882
  433TIP3    H222791   4.659   0.933   6.822  2.9329  0.1991 -2.4821
  434TIP3   OH222792   4.566   5.010   5.766 -0.0570  0.1155  0.3129
  434TIP3    H122793   4.521   4.983   5.846  1.7807 -2.2504  0.5998
  434TIP3    H222794   4.626   5.078   5.794  0.7399 -0.8608  1.0333
  435TIP3   OH222795   0.492   0.700  15.153 -0.0227  0.2662  0.5519
  435TIP3    H122796   0.543   0.621  15.172 -1.2557 -0.3549  1.4121
  435TIP3    H222797   0.411   0.667  15.113 -1.0716  0.9939  2.0245
  436TIP3   OH222798   2.984   3.995   2.587  0.4673 -0.3280  0.1998
  436TIP3    H122799   2.969   4.042   2.669  2.3103 -1.4679  1.2363
  436TIP3    H222800   3.079   3.984   2.583  0.4760  0.3199 -2.4570
  437TIP3   OH222801   4.443   2.419   4.317 -0.0239 -0.3467 -0.5580
  437TIP3    H122802   4.456   2.481   4.389  1.4228  1.6829 -2.5245
  437TIP3    H222803   4.496   2.343   4.341 -0.3370 -0.1050  0.9753
  438TIP3   OH222804   3.435   5.286   0.915 -0.3589 -0.1062 -0.3821
  438TIP3    H122805   3.458   5.276   0.823 -1.1988 -0.2260 -0.5802
  438TIP3    H222806   3.344   5.256   0.921  0.0116 -1.0627  0.6705
  439TIP3   OH222807   1.825   4.354   2.367  0.9191 -0.1487 -0.0837
  439TIP3    H122808   1.810   4.448   2.357 -1.6899 -0.4811  0.3066
  439TIP3    H222809   1.789   4.315   2.287  0.2373 -0.9436  0.5968
  440TIP3   OH222810   0.492   0.573   2.297  0.1602 -0.3965 -0.2508
  440TIP3    H122811   0.465   0.651   2.345  1.0381  1.0961 -2.1163
  440TIP3    H222812   0.421   0.555   2.236  0.4715 -0.3704 -0.6232
  441TIP3   OH222813   0.920   2.526  13.139 -0.6583  0.0392 -0.2570
  441TIP3    H122814   0.914   2.608  13.188  0.4460 -0.9299  1.5290
  441TIP3    H222815   0.837   2.481  13.158 -0.1714 -0.4005  0.8611
  442TIP3   OH222816   2.710   2.207   5.488 -0.3938 -0.2211 -0.0636
  442TIP3    H122817   2.802   2.183   5.477  0.0017  1.2373  0.0052
  442TIP3    H222818   2.670   2.186   5.403  0.2279  0.1161 -0.4480
  443TIP3   OH222819   5.698   6.554   5.428 -0.0310 -0.2662 -0.3725
  443TIP3    H122820   5.651   6.472   5.410 -1.8965  0.5907  0.4671
  443TIP3    H222821   5.784   6.526   5.459 -0.4391 -1.8900 -0.6593
  444TIP3   OH222822   2.373   1.864  16.696  0.0186  0.8802 -0.0910
  444TIP3    H122823   2.449   1.818  16.660  0.3564  1.0377  0.4140
  444TIP3    H222824   2.343   1.809  16.768 -1.5724 -0.1918 -1.5251
  445TIP3   OH222825   5.576   2.463  17.138 -0.3663  0.5073  0.4462
  445TIP3    H122826   5.547   2.378  17.172 -1.1064  0.6393  0.1456
  445TIP3    H222827   5.581   2.519  17.216 -1.4148  0.6225  0.4319
  446TIP3   OH222828   2.058   5.307   1.688 -0.0554 -0.2859 -0.6650
  446TIP3    H122829   2.092   5.220   1.668  1.7200 -0.0415  1.1620
  446TIP3    H222830   2.135   5.363   1.689 -0.7725  0.7086  1.2885
  447TIP3   OH222831   2.988   6.146  16.596 -0.9929 -0.6621 -0.1250
  447TIP3    H122832   3.057   6.096  16.552 -0.5510  0.3155 -0.5748
  447TIP3    H222833   2.913   6.087  16.600  0.0817 -1.9777  0.9693
  448TIP3   OH222834   2.186   0.811  15.318  0.1604 -0.3905  0.5773
  448TIP3    H122835   2.105   0.844  15.278  0.6913  0.3689  0.1037
  448TIP3    H222836   2.172   0.822  15.412 -1.1574 -2.3376  0.6162
  449TIP3   OH222837   0.543   1.956  16.231  0.0014 -0.4383  0.3643
  449TIP3    H122838   0.535   1.862  16.246  1.9444 -0.8106 -0.7620
  449TIP3    H222839   0.575   1.964  16.141 -1.6486  1.3663 -0.0931
  450TIP3   OH222840   2.375   5.350   2.329 -0.3245 -0.1247 -0.1545
  450TIP3    H122841   2.335   5.377   2.412 -2.5094 -2.4694 -0.3837
  450TIP3    H222842   2.449   5.295   2.355 -1.7763 -1.9262  0.2942
  451TIP3   OH222843   2.535   4.919  13.019  0.3528 -0.2470 -0.2333
  451TIP3    H122844   2.525   4.875  12.935  0.9885 -0.2961 -0.2849
  451TIP3    H222845   2.446   4.939  13.047  0.2293  3.0122 -2.6611
  452TIP3   OH222846   5.415   3.966   1.992 -0.0095 -0.0599  0.0361
  452TIP3    H122847   5.434   4.015   2.072 -0.2471  1.6927 -0.9499
  452TIP3    H222848   5.491   3.910   1.979  1.1689  1.4947  0.1362
  453TIP3   OH222849   2.977   0.589  13.974  0.1250  0.6973 -0.4987
  453TIP3    H122850   2.907   0.567  14.035  1.1035 -0.2808  0.2770
  453TIP3    H222851   2.933   0.593  13.888 -0.4499 -2.5792 -0.4418
  454TIP3   OH222852   6.097   2.083  14.940  0.5674 -0.9583  0.0772
  454TIP3    H122853   6.063   2.074  14.851  0.8465 -0.9295 -0.0322
  454TIP3    H222854   6.033   2.038  14.995 -0.3881  0.2994  0.0269
  455TIP3   OH222855   2.756   0.009  12.032  0.3273  0.4523  0.6271
  455TIP3    H122856   2.801   0.074  12.086  1.3877  0.5823 -0.3891
  455TIP3    H222857   2.818  -0.064  12.026 -0.2404 -0.0258  0.5211
  456TIP3   OH222858   2.650   1.293   4.418 -0.9234 -0.4888 -0.0230
  456TIP3    H122859   2.610   1.269   4.502  0.0231  0.1436  0.6199
  456TIP3    H222860   2.595   1.365   4.386 -0.0495  0.7129  1.0960
  457TIP3   OH222861   2.142   0.161   2.661 -0.4130 -0.4327 -0.1283
  457TIP3    H122862   2.106   0.221   2.596 -2.2675  0.0035  1.2457
  457TIP3    H222863   2.095   0.078   2.646 -1.1612 -0.2122  0.8760
  458TIP3   OH222864   4.060   3.719   5.329 -0.0311 -0.4482  0.7033
  458TIP3    H122865   4.095   3.778   5.262  1.1867 -1.7440  0.1712
  458TIP3    H222866   4.097   3.752   5.411 -2.4078  1.8077  0.9194
  459TIP3   OH222867   1.565   2.843  13.039 -0.7573  0.0963 -0.0097
  459TIP3    H122868   1.559   2.789  13.117  2.4668 -0.6845 -0.2039
  459TIP3    H222869   1.528   2.790  12.969 -1.2131 -0.2694  0.5110
  460TIP3   OH222870   4.403   0.628   1.148 -0.6376 -0.1848 -0.7199
  460TIP3    H122871   4.457   0.707   1.146 -1.3671  0.2890 -2.9807
  460TIP3    H222872   4.316   0.658   1.176 -0.2853 -0.6335  0.9560
  461TIP3   OH222873   0.538   1.833  11.528 -0.2818 -0.0388  0.4781
  461TIP3    H122874   0.571   1.746  11.553  2.0130  0.4598 -0.6933
  461TIP3    H222875   0.457   1.814  11.480 -0.7809 -1.4049  1.7944
  462TIP3   OH222876   5.258   0.879  16.942 -0.1888 -0.0326 -0.1365
  462TIP3    H122877   5.294   0.848  17.025  0.5964  0.0112 -0.4510
  462TIP3    H222878   5.239   0.800  16.892 -2.5311 -0.1181  0.8422
  463TIP3   OH222879   0.949   2.576  16.467  0.2307  0.2146  0.4758
  463TIP3    H122880   0.981   2.568  16.556  0.5127 -0.5465  0.3062
  463TIP3    H222881   0.888   2.650  16.470  2.1856  1.8653  0.7364
  464TIP3   OH222882   0.238   5.649  14.779  0.2249  0.4615 -0.0123
  464TIP3    H122883   0.250   5.590  14.704 -0.7239 -2.8507  2.2968
  464TIP3    H222884   0.148   5.682  14.769 -0.2582 -0.7638  0.1495
  465TIP3   OH222885   5.397   0.844   2.330  0.2587  0.2250 -0.2011
  465TIP3    H122886   5.438   0.928   2.346  2.2915 -0.6702 -0.5678
  465TIP3    H222887   5.430   0.787   2.400  1.2216 -1.0207 -1.6329
  466TIP3   OH222888   2.766   3.838  15.096 -0.0316  0.0531 -0.5724
  466TIP3    H122889   2.761   3.885  15.013  3.5112 -0.2224 -1.0156
  466TIP3    H222890   2.729   3.751  15.077 -2.8279  1.2241 -0.7833
  467TIP3   OH222891   6.725   2.877  11.384 -0.0007 -0.5403  0.3939
  467TIP3    H122892   6.756   2.789  11.405 -0.1445 -0.4866  0.8563
  467TIP3    H222893   6.637   2.863  11.348  0.2537 -0.6353 -0.1923
  468TIP3   OH222894   4.706   3.049  11.867  0.0018 -0.9622  0.0635
  468TIP3    H122895   4.624   3.054  11.914  0.1537  1.0179  0.1586
  468TIP3    H222896   4.699   3.116  11.799  1.9368 -0.0217  0.7504
  469TIP3   OH222897   3.724   4.825   1.031  0.0705 -0.0052  0.2255
  469TIP3    H122898   3.667   4.751   1.052 -0.3197 -0.7385 -3.0816
  469TIP3    H222899   3.667   4.888   0.987  1.2692  0.3740 -0.8200
  470TIP3   OH222900   2.079   2.312  13.477  0.3826 -0.2777  1.2910
  470TIP3    H122901   2.061   2.386  13.419 -0.7902 -2.0125 -0.6122
  470TIP3    H222902   2.160   2.273  13.442 -1.7219 -2.8869 -0.8693
  471TIP3   OH222903   3.426   1.244  12.293 -0.1568  0.1746 -0.0619
  471TIP3    H122904   3.400   1.327  12.253  1.2889  0.7565  0.1660
  471TIP3    H222905   3.450   1.188  12.219  1.6425  0.9493 -0.1071
  472TIP3   OH222906   0.888   3.514  13.876  0.0114 -0.1606  0.5240
  472TIP3    H122907   0.856   3.569  13.947  0.1076  3.1145 -1.8286
  472TIP3    H222908   0.980   3.540  13.865  0.2695 -1.3258 -0.1711
  473TIP3   OH222909   0.155   2.101  13.141  0.4914 -0.2311 -0.5495
  473TIP3    H122910   0.178   2.191  13.164  2.6508 -0.6620 -0.9251
  473TIP3    H222911   0.204   2.083  13.061 -1.1839 -1.2141 -1.3823
  474TIP3   OH222912   0.024   6.735  11.913  0.1818 -0.2229 -0.1990
  474TIP3    H122913   0.002   6.642  11.911 -0.2026 -0.1701  1.0432
  474TIP3    H222914  -0.046   6.777  11.863 -0.5035 -0.4441  0.5639
  475TIP3   OH222915   4.855   3.085  15.730 -0.3643  0.6331  0.5711
  475TIP3    H122916   4.808   3.010  15.768  0.3376  0.6903  1.5867
  475TIP3    H222917   4.902   3.049  15.655 -2.7133  0.7496 -1.0182
  476TIP3   OH222918   3.089   4.563   0.508 -0.7422  0.4006  0.7745
  476TIP3    H122919   3.122   4.542   0.596 -2.5731 -0.3881  1.2860
  476TIP3    H222920   3.036   4.642   0.521  0.8834  1.6605 -0.0452
  477TIP3   OH222921   1.804   2.359  14.596 -0.2620 -0.2339 -0.3098
  477TIP3    H122922   1.841   2.279  14.558 -0.0648 -0.1837 -0.2237
  477TIP3    H222923   1.865   2.382  14.665 -1.5545 -1.3155  1.2275
  478TIP3   OH222924   1.443   2.917  17.164 -0.3763  0.5960  0.0815
  478TIP3    H122925   1.514   2.928  17.099  0.0180  3.5799  0.9083
  478TIP3    H222926   1.469   2.840  17.215 -0.1889 -1.2148 -2.6338
  479TIP3   OH222927   2.095   2.448   4.739  0.4773 -0.0242  0.0403
  479TIP3    H122928   2.180   2.480   4.768 -0.4840  2.3318  0.3895
  479TIP3    H222929   2.078   2.495   4.657 -0.8299  0.1737  0.4050
  480TIP3   OH222930   6.201   1.810   1.430 -0.1858  0.4892 -0.0522
  480TIP3    H122931   6.239   1.808   1.343 -0.7237 -1.3509 -0.2635
  480TIP3    H222932   6.110   1.781   1.417  0.1741 -1.3378  1.3076
  481TIP3   OH222933   2.315   6.599  14.353 -0.3978  0.1237 -0.1601
  481TIP3    H122934   2.369   6.609  14.275  0.2642 -0.5809  0.1946
  481TIP3    H222935   2.305   6.504  14.363 -0.4031  0.2070  0.6510
  482TIP3   OH222936   6.240   5.965  14.954  0.2002  0.8043  0.6626
  482TIP3    H122937   6.171   5.900  14.970  0.9715 -0.3468 -0.5554
  482TIP3    H222938   6.301   5.953  15.027  0.3530  0.1094  0.4321
  483TIP3   OH222939   2.489   4.566  14.371  0.1813 -0.0056 -0.3945
  483TIP3    H122940   2.536   4.630  14.425 -0.0226 -0.3006  0.1409
  483TIP3    H222941   2.481   4.608  14.285  0.3576  0.5391 -0.1476
  484TIP3   OH222942   0.778   6.392  15.055  0.1303  0.0040 -0.3456
  484TIP3    H122943   0.703   6.420  15.107 -0.3935  0.1671 -1.1966
  484TIP3    H222944   0.832   6.343  15.117 -0.3242  0.4938  0.4442
  485TIP3   OH222945   3.052   4.879  13.335 -0.0384  0.2042 -0.0657
  485TIP3    H122946   3.036   4.803  13.280  1.6886 -0.0441 -0.2434
  485TIP3    H222947   2.965   4.913  13.355 -0.7226 -0.3381 -2.0445
  486TIP3   OH222948   5.965   3.326  14.198 -0.1243  0.2410 -0.0863
  486TIP3    H122949   5.944   3.279  14.279 -2.2914  0.8112 -0.2878
  486TIP3    H222950   5.946   3.264  14.128 -1.2743  0.7754 -0.2701
  487TIP3   OH222951   4.978   6.039  16.903 -0.4059  0.2144  0.3318
  487TIP3    H122952   5.033   6.018  16.978  0.4051  0.2912 -0.2357
  487TIP3    H222953   4.890   6.010  16.929 -0.3165  1.1174  1.6806
  488TIP3   OH222954   0.874   3.222   0.314 -0.3964  0.9633 -0.5281
  488TIP3    H122955   0.822   3.206   0.235 -1.8295  1.3533  0.3155
  488TIP3    H222956   0.906   3.312   0.303 -0.2147  0.8565 -0.8798
  489TIP3   OH222957   2.385   5.900   5.785  0.0740  0.0068  0.0272
  489TIP3    H122958   2.414   5.826   5.732 -0.4078 -1.9970  2.4620
  489TIP3    H222959   2.292   5.909   5.764  0.3498  0.5739 -0.9966
  490TIP3   OH222960   0.785   3.998   2.886 -0.1518  0.1080  0.3637
  490TIP3    H122961   0.864   4.004   2.939  0.9405  3.8265 -1.5191
  490TIP3    H222962   0.729   4.069   2.917 -1.1386 -0.1073 -0.8455
  491TIP3   OH222963   3.752   6.139  16.285  0.2633  0.0860 -0.3642
  491TIP3    H122964   3.764   6.087  16.206 -1.4246 -0.7450 -0.0943
  491TIP3    H222965   3.658   6.160  16.286  0.2612  0.0949  1.3933
  492TIP3   OH222966   5.458   3.680   0.932  0.0192 -0.2190 -0.0034
  492TIP3    H122967   5.400   3.756   0.928 -0.4960 -0.6020  0.1052
  492TIP3    H222968   5.541   3.715   0.961  0.1313  0.5060 -1.1467
  493TIP3   OH222969   6.017   1.906   2.049  0.3926  0.0514 -0.4141
  493TIP3    H122970   6.095   1.931   2.098 -0.3347  1.0964  0.2570
  493TIP3    H222971   6.050   1.861   1.971  1.5584 -1.9171  1.1887
  494TIP3   OH222972   6.486   0.244  14.107 -0.3277  0.0358  0.1541
  494TIP3    H122973   6.512   0.173  14.048  2.0237 -0.7943  2.1003
  494TIP3    H222974   6.484   0.322  14.052 -1.9207 -1.3293 -1.8005
  495TIP3   OH222975   6.330   4.558   2.391  0.0246  0.2273  0.2755
  495TIP3    H122976   6.273   4.573   2.316 -1.6198 -1.3067  1.1607
  495TIP3    H222977   6.361   4.468   2.379 -0.0767  0.0507  1.3019
  496TIP3   OH222978   1.483   6.296  10.856  0.1752 -0.0967 -0.0834
  496TIP3    H122979   1.555   6.234  10.862 -0.3595 -0.9612 -2.2282
  496TIP3    H222980   1.411   6.245  10.819 -1.8255  0.5272  2.7959
  497TIP3   OH222981   1.487   4.827  16.604 -0.5728  0.0329 -0.0516
  497TIP3    H122982   1.428   4.757  16.575 -1.6358 -0.1243  2.3798
  497TIP3    H222983   1.575   4.791  16.593 -0.9811 -0.5246 -1.6975
  498TIP3   OH222984   0.221   6.308  17.217  0.0483  0.4626 -0.3473
  498TIP3    H122985   0.298   6.322  17.162  1.0981 -1.5405  0.5954
  498TIP3    H222986   0.255   6.277  17.301 -1.7125  0.8072  0.5444
  499TIP3   OH222987   1.835   5.585  14.513  0.0632  0.2710  0.1449
  499TIP3    H122988   1.742   5.577  14.491  0.2821  1.6110 -1.3638
  499TIP3    H222989   1.876   5.509  14.472 -0.6695 -1.7575  2.9549
  500TIP3   OH222990   0.977   3.822   0.188 -0.4517  0.2861 -0.3956
  500TIP3    H122991   1.023   3.862   0.114  0.0469 -1.4171 -1.0401
  500TIP3    H222992   1.047   3.797   0.248 -0.6003 -1.1664 -0.8002
  501TIP3   OH222993   2.539   3.839  12.191  0.3326 -0.5132 -0.2734
  501TIP3    H122994   2.554   3.855  12.098  0.2516 -0.3861 -0.2645
  501TIP3    H222995   2.444   3.844  12.201  0.2741 -1.4231 -0.3516
  502TIP3   OH222996   5.714   3.334   4.261 -0.0532 -0.7263 -0.1047
  502TIP3    H122997   5.729   3.420   4.222 -1.2736 -0.2615  0.4471
  502TIP3    H222998   5.623   3.335   4.290  0.5088 -1.4462  1.7754
  503TIP3   OH222999   1.677   1.374  12.703  0.2109  0.1424  0.0111
  503TIP3    H123000   1.706   1.293  12.660 -2.3885 -1.7633  1.6802
  503TIP3    H223001   1.715   1.369  12.791  0.7219  1.1829 -0.1379
  504TIP3   OH223002   2.802   2.081   3.905 -0.0535 -0.6285  0.3541
  504TIP3    H123003   2.725   2.114   3.860 -0.4756 -1.1023  0.7206
  504TIP3    H223004   2.780   1.990   3.927  0.9873 -1.0751 -0.4032
  505TIP3   OH223005   6.026   6.595  15.353  0.2319  0.4999  0.2235
  505TIP3    H123006   6.033   6.571  15.260  1.0758 -0.4162  0.5190
  505TIP3    H223007   6.116   6.604  15.382 -0.0420  2.1166  0.6336
  506TIP3   OH223008   2.446   6.153   3.272 -0.4084 -0.4060 -0.3037
  506TIP3    H123009   2.461   6.144   3.178 -2.9163 -0.7076 -0.7295
  506TIP3    H223010   2.389   6.230   3.280 -1.9068 -1.5839  0.7376
  507TIP3   OH223011   1.786   1.428   3.587  0.5665  0.3854 -0.2156
  507TIP3    H123012   1.851   1.460   3.525  1.4326  1.5825  1.2558
  507TIP3    H223013   1.837   1.383   3.655  0.0802  2.8873  1.8864
  508TIP3   OH223014   2.079   2.065   5.132  0.0159  0.0948  0.0088
  508TIP3    H123015   2.091   2.066   5.037  1.0331 -0.4630  0.1278
  508TIP3    H223016   1.984   2.071   5.144 -0.3784 -2.9909 -1.1059
  509TIP3   OH223017   2.733   1.116  13.930 -0.4572  0.1241  0.3224
  509TIP3    H123018   2.682   1.070  13.863 -1.7868  1.4414  0.4099
  509TIP3    H223019   2.806   1.057  13.949 -0.6101 -0.7067 -1.5676
  510TIP3   OH223020   0.642   6.346   2.832  0.3471 -0.4881 -0.4786
  510TIP3    H123021   0.654   6.255   2.861  0.2504 -0.1896  0.5111
  510TIP3    H223022   0.720   6.391   2.865 -0.4543  0.1551  0.5440
  511TIP3   OH223023   3.913   0.855   2.457 -0.7180 -0.0092  0.4586
  511TIP3    H123024   3.969   0.841   2.533 -0.7279 -2.2250  0.0995
  511TIP3    H223025   3.909   0.950   2.446 -0.4643  0.3099  3.0140
  512TIP3   OH223026   6.006   2.604  16.925 -0.2015 -0.0156  0.1640
  512TIP3    H123027   6.044   2.532  16.975  0.5678  0.4096  0.1965
  512TIP3    H223028   5.920   2.617  16.964  0.2753  0.1102  1.1825
  513TIP3   OH223029   5.423   6.314   2.742 -0.2773  0.3028 -0.1861
  513TIP3    H123030   5.448   6.349   2.656 -0.4663 -1.1436 -0.8451
  513TIP3    H223031   5.328   6.326   2.745 -0.1559  1.2311  0.2377
  514TIP3   OH223032   2.312   0.441   5.910  0.1280 -0.4491  0.1814
  514TIP3    H123033   2.313   0.536   5.915  2.6494 -0.4182 -0.1262
  514TIP3    H223034   2.341   0.421   5.821  1.5084 -1.4953  0.8319
  515TIP3   OH223035   4.264   5.711   6.079  0.3806  0.0523  0.4964
  515TIP3    H123036   4.256   5.719   6.174 -1.5678  0.6469  0.3118
  515TIP3    H223037   4.242   5.620   6.060  2.1761 -0.4626  0.7074
  516TIP3   OH223038   0.550   1.177  14.238  0.2347  0.1256  0.2029
  516TIP3    H123039   0.603   1.255  14.254  0.5232 -0.0233 -0.0163
  516TIP3    H223040   0.465   1.197  14.278  0.0870  0.8131 -0.4509
  517TIP3   OH223041   3.939   2.188  16.019 -0.2691 -0.1266 -0.4377
  517TIP3    H123042   3.923   2.153  16.107  0.5137 -0.2954 -0.3516
  517TIP3    H223043   3.877   2.141  15.963  0.6653 -1.5726 -0.3068
  518TIP3   OH223044   1.597   3.126   1.483 -0.3922  0.5265  0.3910
  518TIP3    H123045   1.605   3.032   1.466  0.1803  0.4883  0.8398
  518TIP3    H223046   1.688   3.157   1.482 -0.6004  1.1105  0.0242
  519TIP3   OH223047   0.698   5.717   4.799 -0.0033  0.3804 -0.1505
  519TIP3    H123048   0.777   5.665   4.818 -0.3424 -0.4496 -0.9778
  519TIP3    H223049   0.698   5.785   4.866  1.4157  0.3728 -0.1294
  520TIP3   OH223050   1.912   3.441  13.141 -0.0504  0.2236 -0.2576
  520TIP3    H123051   1.998   3.400  13.143 -0.3836 -0.4004  1.8895
  520TIP3    H223052   1.852   3.376  13.178 -0.8263  2.0165  1.8159
  521TIP3   OH223053   4.408   3.756   1.744 -0.2629 -0.5979  0.1303
  521TIP3    H123054   4.320   3.731   1.714  0.1996 -2.6371  0.4203
  521TIP3    H223055   4.457   3.674   1.748  1.9143  0.6183 -0.7824
  522TIP3   OH223056   4.529   3.938  14.754 -0.4032 -0.3770  0.1506
  522TIP3    H123057   4.480   4.020  14.748  0.5808  0.2348  0.4195
  522TIP3    H223058   4.618   3.964  14.775 -0.4906 -1.6004  2.2642
  523TIP3   OH223059   1.201   6.027  12.253 -0.7973  0.3953 -0.3563
  523TIP3    H123060   1.184   6.018  12.347 -0.8216 -0.9909 -0.4898
  523TIP3    H223061   1.116   6.014  12.211 -0.5130 -0.5038 -0.6592
  524TIP3   OH223062   5.414   4.389   5.917 -0.1623 -0.9055  0.0631
  524TIP3    H123063   5.507   4.402   5.937 -0.2374 -0.2793  0.0037
  524TIP3    H223064   5.368   4.455   5.969 -0.6330 -1.7024  0.6697
  525TIP3   OH223065   6.298   2.578   6.597 -0.2092  0.1737  0.1540
  525TIP3    H123066   6.253   2.648   6.645 -2.2856  0.2991 -1.8655
  525TIP3    H223067   6.228   2.521   6.567  1.1674 -0.7600 -1.3665
  526TIP3   OH223068   3.098   2.445   0.932  0.2684  0.4281 -0.0492
  526TIP3    H123069   3.159   2.495   0.877 -1.1864  1.5344 -0.7091
  526TIP3    H223070   3.072   2.371   0.878 -0.1504  0.8017 -0.3676
  527TIP3   OH223071   5.265   2.558   5.156 -0.2648 -0.0683 -0.3236
  527TIP3    H123072   5.209   2.575   5.080 -0.4707  0.9399  0.0548
  527TIP3    H223073   5.267   2.641   5.204  0.6556 -0.4211  0.2564
  528TIP3   OH223074   4.599   6.334  14.735  0.5057  0.4229  0.2338
  528TIP3    H123075   4.507   6.359  14.740  0.6058  0.9155 -0.3349
  528TIP3    H223076   4.624   6.319  14.826  0.0423  0.9542  0.4554
  529TIP3   OH223077   4.595   2.558  12.023 -0.8611  0.0923  0.3194
  529TIP3    H123078   4.645   2.535  12.101 -0.0270 -0.4154 -0.3576
  529TIP3    H223079   4.654   2.614  11.971 -0.9738 -0.5197 -0.4869
  530TIP3   OH223080   1.997   2.168   1.268 -0.2766  0.1849  0.5026
  530TIP3    H123081   1.963   2.086   1.304 -1.0945  0.3979  0.2167
  530TIP3    H223082   1.930   2.233   1.290  0.5620  0.8644  1.1006
  531TIP3   OH223083   2.827   0.498  16.674  0.2543  0.4128 -0.7571
  531TIP3    H123084   2.915   0.461  16.671  0.0658  0.0217 -3.8982
  531TIP3    H223085   2.788   0.471  16.591 -2.4981  1.4100  0.1680
  532TIP3   OH223086   1.549   3.281   0.753 -0.1225 -0.2677 -0.2247
  532TIP3    H123087   1.644   3.272   0.756 -0.1756 -0.7866  0.1551
  532TIP3    H223088   1.529   3.347   0.820  0.0867  0.9643 -1.3638
  533TIP3   OH223089   1.695   5.349  12.253  0.0783  0.2755  0.2875
  533TIP3    H123090   1.638   5.282  12.216  2.9600 -1.5631 -0.9589
  533TIP3    H223091   1.720   5.314  12.339  1.4294 -0.1606 -0.2820
  534TIP3   OH223092   4.135   0.119   0.403  0.2145  0.5682 -0.5534
  534TIP3    H123093   4.098   0.189   0.349 -3.0521  0.5867  1.5981
  534TIP3    H223094   4.070   0.103   0.471  2.9784 -1.3672  1.7854
  535TIP3   OH223095   5.105   3.793  16.976  0.1631  0.0545 -0.1133
  535TIP3    H123096   5.200   3.783  16.984 -0.0284 -1.7292  0.1198
  535TIP3    H223097   5.091   3.809  16.882  0.6501 -0.2920 -0.2490
  536TIP3   OH223098   3.308   4.322   4.802 -0.0397  0.0876  0.3846
  536TIP3    H123099   3.347   4.276   4.877 -0.8151 -3.5611 -1.3138
  536TIP3    H223100   3.221   4.349   4.833  0.2045 -0.1242  1.2677
  537TIP3   OH223101   0.939   3.348  10.811 -1.1232 -0.0460 -0.2122
  537TIP3    H123102   0.879   3.356  10.885 -2.7248  1.3622 -1.6326
  537TIP3    H223103   0.911   3.415  10.750  1.8625  0.5670 -0.9701
  538TIP3   OH223104   0.066   1.870  11.135  0.0284  0.3231 -0.2401
  538TIP3    H123105   0.081   1.812  11.060 -0.1713  1.9829 -1.5940
  538TIP3    H223106   0.151   1.911  11.150 -0.1630  0.6903 -0.1621
  539TIP3   OH223107   1.635   0.860  12.040  0.6356  0.2496  0.1461
  539TIP3    H123108   1.576   0.813  12.099  0.5104 -0.2952 -0.4165
  539TIP3    H223109   1.588   0.941  12.020 -0.3612 -0.6194 -1.0879
  540TIP3   OH223110   5.310   4.757  15.586 -1.1309  0.2612 -0.0095
  540TIP3    H123111   5.277   4.815  15.655  1.4924  0.8521  0.8155
  540TIP3    H223112   5.369   4.697  15.631  0.4515  0.5114 -1.6736
  541TIP3   OH223113   5.161   0.095  12.000 -0.2736 -0.4461 -0.1081
  541TIP3    H123114   5.201   0.177  11.969 -1.1560 -0.5497 -1.5359
  541TIP3    H223115   5.222   0.027  11.973 -0.9254 -0.5136 -1.4429
  542TIP3   OH223116   5.255   0.213   4.653  0.3564  0.3308 -0.3382
  542TIP3    H123117   5.182   0.187   4.597 -0.1621  2.3897 -0.6632
  542TIP3    H223118   5.311   0.136   4.657 -1.3292 -0.9498 -0.9133
  543TIP3   OH223119   3.003   0.718  14.233 -0.1101  0.2510 -0.1784
  543TIP3    H123120   3.075   0.721  14.170 -1.0852 -1.5767 -1.4087
  543TIP3    H223121   3.017   0.638  14.283 -1.6721 -0.4750 -0.8910
  544TIP3   OH223122   0.862   2.700   4.400  0.0549 -0.2809  0.4903
  544TIP3    H123123   0.916   2.721   4.324 -1.4282 -1.3424 -0.8876
  544TIP3    H223124   0.810   2.779   4.415  0.1464 -0.1717  0.2277
  545TIP3   OH223125   1.487   3.505   4.360  0.3033  0.2465  0.1467
  545TIP3    H123126   1.582   3.501   4.349  0.6294  2.2430  2.0853
  545TIP3    H223127   1.472   3.581   4.415 -2.3725 -0.6166  0.6688
  546TIP3   OH223128   5.948   1.304   5.622  0.0116  0.2065 -0.2912
  546TIP3    H123129   5.986   1.333   5.539  0.0559  1.4311  0.1590
  546TIP3    H223130   5.895   1.378   5.652  0.6495  0.0716  1.1808
  547TIP3   OH223131   5.109   4.117  15.066  0.3202  0.2850  0.2714
  547TIP3    H123132   5.093   4.043  15.007  0.8958  0.5574 -0.2322
  547TIP3    H223133   5.038   4.113  15.130 -0.7616  0.4684 -0.9041
  548TIP3   OH223134   4.064   2.171   5.735  0.3303 -0.7363 -0.0101
  548TIP3    H123135   4.108   2.192   5.653 -0.1378 -0.0710 -0.0997
  548TIP3    H223136   4.134   2.140   5.793  1.0720  1.0418  0.1038
  549TIP3   OH223137   2.620   6.594   3.912 -0.3099 -0.7634  0.2365
  549TIP3    H123138   2.572   6.537   3.852  0.7800 -2.5453  0.9881
  549TIP3    H223139   2.553   6.631   3.969 -1.1081 -0.7804 -0.6839
  550TIP3   OH223140   5.715   3.115  11.761 -0.1009  0.6385 -0.0486
  550TIP3    H123141   5.746   3.173  11.692 -0.8958  1.4938  0.3052
  550TIP3    H223142   5.658   3.053  11.717  1.1361 -0.2043 -0.5082
  551TIP3   OH223143   0.184   5.404  15.404  0.1001  0.2952 -0.3970
  551TIP3    H123144   0.211   5.477  15.461  2.2736  0.8212 -2.0166
  551TIP3    H223145   0.090   5.416  15.392 -0.4852  0.0791  3.1534
  552TIP3   OH223146   6.065   1.824  12.114 -0.1035  0.2040 -0.5247
  552TIP3    H123147   6.057   1.916  12.136  0.5900 -0.0673  0.9088
  552TIP3    H223148   6.081   1.823  12.020 -0.2808  1.5304 -0.5732
  553TIP3   OH223149   6.717   0.263   2.906 -0.2977  0.4718  0.1675
  553TIP3    H123150   6.655   0.190   2.907 -0.3906  0.5102 -1.9001
  553TIP3    H223151   6.782   0.238   2.841 -0.1981  2.1258 -0.3844
  554TIP3   OH223152   2.621   0.272   6.542 -0.1785  0.2267  0.0972
  554TIP3    H123153   2.651   0.200   6.597 -1.1948  1.2309  2.0101
  554TIP3    H223154   2.656   0.350   6.583 -0.4814  0.9568 -1.0087
  555TIP3   OH223155   1.740   0.733  16.635 -0.4807 -0.4412 -0.5575
  555TIP3    H123156   1.689   0.809  16.664  0.5215  0.1704 -0.3807
  555TIP3    H223157   1.733   0.735  16.539  1.1094  1.0022 -0.6759
  556TIP3   OH223158   3.851   5.965   0.953  0.5351  0.9237 -0.4014
  556TIP3    H123159   3.828   5.893   0.894 -0.7206 -0.0011  1.1863
  556TIP3    H223160   3.768   6.007   0.974  0.6635 -0.1135  2.4055
  557TIP3   OH223161   3.756   4.731  16.814  0.1039  0.5159  0.5525
  557TIP3    H123162   3.833   4.727  16.871  0.9270 -0.6497 -0.6164
  557TIP3    H223163   3.684   4.699  16.868  0.5707  0.9297  1.4254
  558TIP3   OH223164   2.763   6.638  17.207 -0.8264 -0.7369  0.1618
  558TIP3    H123165   2.846   6.661  17.249 -1.3883  0.2614  0.7367
  558TIP3    H223166   2.781   6.646  17.113 -0.5796  0.5803  0.3151
  559TIP3   OH223167   0.043   3.309  15.778 -0.1363 -0.5018 -0.2911
  559TIP3    H123168   0.058   3.258  15.699  0.3518 -1.0086  0.1218
  559TIP3    H223169   0.111   3.377  15.777 -0.4049 -0.2356 -0.5299
  560TIP3   OH223170   6.503   6.565   5.781 -0.4285  0.5978 -0.3668
  560TIP3    H123171   6.539   6.491   5.829 -1.5496  0.8223  0.8562
  560TIP3    H223172   6.580   6.615   5.753  0.2487  0.5508  1.3579
  561TIP3   OH223173   5.536   4.728  13.394  0.5059 -0.3650  0.5282
  561TIP3    H123174   5.477   4.786  13.346  3.2814  0.7639 -1.6688
  561TIP3    H223175   5.600   4.786  13.434  1.4967 -1.6899  0.9166
  562TIP3   OH223176   5.953   6.448   5.525 -0.0291  0.0911 -0.4032
  562TIP3    H123177   5.949   6.389   5.601 -1.0382 -1.6294 -1.7688
  562TIP3    H223178   6.042   6.484   5.528 -0.3724  0.8112  2.1544
  563TIP3   OH223179   5.754   6.545   1.624  0.3871  0.0861  0.3344
  563TIP3    H123180   5.659   6.546   1.616  0.3089 -0.5130  1.0613
  563TIP3    H223181   5.780   6.637   1.622  0.0362  0.1806 -2.4425
  564TIP3   OH223182   1.296   2.464  17.104 -0.6197  0.4397 -0.2786
  564TIP3    H123183   1.294   2.409  17.182  0.9040 -0.7377 -1.0494
  564TIP3    H223184   1.211   2.450  17.062 -0.2542 -1.2963 -0.4440
  565TIP3   OH223185   5.351   2.219   3.209 -0.2197 -0.0096  0.0829
  565TIP3    H123186   5.273   2.164   3.200  0.5902 -1.1192 -0.3164
  565TIP3    H223187   5.317   2.305   3.232 -1.5495 -0.5431  0.1808
  566TIP3   OH223188   0.175   2.616   1.742  0.3464 -0.1713 -0.1740
  566TIP3    H123189   0.169   2.609   1.647 -1.5781 -0.6708 -0.0251
  566TIP3    H223190   0.122   2.693   1.764 -0.0244 -0.6311  0.5753
  567TIP3   OH223191   2.656   4.525   4.290 -0.0200  0.3716  0.0718
  567TIP3    H123192   2.732   4.522   4.233  1.1076 -2.1779  1.5943
  567TIP3    H223193   2.582   4.507   4.232  0.7096  1.0878 -1.1114
  568TIP3   OH223194   3.205   0.439   5.565  0.2831  0.3655 -0.3587
  568TIP3    H123195   3.156   0.478   5.637 -2.3703 -1.9956 -0.8201
  568TIP3    H223196   3.279   0.394   5.606  0.5829  1.6685  0.5643
  569TIP3   OH223197   2.897   4.693  12.069  0.2720  0.4046 -0.2794
  569TIP3    H123198   2.921   4.611  12.025 -1.1517 -0.2610  0.1446
  569TIP3    H223199   2.868   4.666  12.156  3.5177  1.7672  1.3052
  570TIP3   OH223200   0.134   6.772   6.676 -0.3206  0.3478  0.0776
  570TIP3    H123201   0.069   6.761   6.745 -0.5308 -0.0146 -0.1816
  570TIP3    H223202   0.145   6.867   6.668 -0.8983  0.4093  0.0439
  571TIP3   OH223203   1.738   4.418   1.332 -0.1975 -0.1010  0.1465
  571TIP3    H123204   1.676   4.491   1.331 -3.0540 -2.4259  1.3961
  571TIP3    H223205   1.741   4.387   1.241  0.8597  1.3877 -0.3458
  572TIP3   OH223206   2.433   5.626   4.537  0.0168 -0.0903  0.3147
  572TIP3    H123207   2.465   5.537   4.550  0.7256  0.1543  0.3001
  572TIP3    H223208   2.474   5.654   4.455 -1.0296 -0.1177 -0.2213
  573TIP3   OH223209   2.457   1.541  11.963  0.3548  0.2415  0.0355
  573TIP3    H123210   2.551   1.522  11.966  0.8025  2.3927  1.0895
  573TIP3    H223211   2.434   1.562  12.054 -0.7393  1.4308 -0.5003
  574TIP3   OH223212   4.509   0.482   0.034  0.1862  0.2025 -0.3111
  574TIP3    H123213   4.433   0.538   0.050  0.5055  0.9787 -1.4304
  574TIP3    H223214   4.583   0.542   0.036  0.9820 -0.8097  2.4736
  575TIP3   OH223215   3.701   5.244   3.514  0.2356  0.5222 -0.3079
  575TIP3    H123216   3.748   5.240   3.597 -0.5490  0.2876  0.1283
  575TIP3    H223217   3.769   5.260   3.449  0.8646  0.6299  0.3688
  576TIP3   OH223218   3.830   5.583  10.768  0.1838  0.4249 -0.7489
  576TIP3    H123219   3.773   5.617  10.838  1.1453  0.8335 -0.1531
  576TIP3    H223220   3.791   5.616  10.687  0.0603  1.4341 -0.2925
  577TIP3   OH223221   3.736   3.249   2.918  0.4605 -0.1467 -0.3081
  577TIP3    H123222   3.694   3.295   2.991 -0.5726 -0.2806 -0.8063
  577TIP3    H223223   3.784   3.177   2.958  0.2555  0.0441  0.2763
  578TIP3   OH223224   0.468   2.057  10.486 -0.4091 -0.0982 -0.3878
  578TIP3    H123225   0.529   2.080  10.555  1.3209 -0.7664 -1.6591
  578TIP3    H223226   0.470   2.132  10.426  2.0672 -1.6359 -2.3616
  579TIP3   OH223227   4.429   6.004   0.959 -0.0209 -0.6030 -0.3534
  579TIP3    H123228   4.411   5.914   0.986  2.0439 -1.1746 -0.8194
  579TIP3    H223229   4.482   6.041   1.029 -0.5917  0.1550 -0.3142
  580TIP3   OH223230   4.936   6.324   5.007 -0.1020 -0.1226 -0.5046
  580TIP3    H123231   4.880   6.398   5.028 -1.4103 -0.7995 -1.5099
  580TIP3    H223232   4.975   6.346   4.923  0.3231 -0.1126 -0.3047
  581TIP3   OH223233   3.065   4.629  16.208 -0.0609 -0.1945 -0.3159
  581TIP3    H123234   3.070   4.600  16.118 -1.1181  2.3720 -1.2478
  581TIP3    H223235   2.974   4.616  16.234  0.2172 -0.8452  0.3666
  582TIP3   OH223236   4.263   3.162  11.307  0.2729  0.2055 -0.5142
  582TIP3    H123237   4.198   3.149  11.238  0.2106 -0.6383 -0.2927
  582TIP3    H223238   4.340   3.114  11.278 -0.5576 -2.2435  1.1433
  583TIP3   OH223239   5.770   3.115   3.652  0.5952 -0.6881  0.6644
  583TIP3    H123240   5.758   3.199   3.695 -2.7808 -1.2974  1.0902
  583TIP3    H223241   5.815   3.136   3.570 -1.6446  1.7926 -0.0061
  584TIP3   OH223242   4.564   3.715   4.932 -0.8247 -0.4677  0.0286
  584TIP3    H123243   4.516   3.786   4.976  0.1482 -0.7323  1.5276
  584TIP3    H223244   4.654   3.723   4.964 -0.3409 -1.3602 -1.0715
  585TIP3   OH223245   1.853   0.245  15.995 -0.3378  0.1988 -0.9165
  585TIP3    H123246   1.830   0.293  16.075 -2.1902 -1.5073 -0.3919
  585TIP3    H223247   1.855   0.311  15.927 -1.4282  1.2542  0.0555
  586TIP3   OH223248   6.208   4.200  12.242  1.0926  0.0818 -0.4724
  586TIP3    H123249   6.218   4.137  12.314 -0.3281  0.1520 -0.1843
  586TIP3    H223250   6.195   4.146  12.164 -2.4925 -0.0786  0.1189
  587TIP3   OH223251   5.317   0.037  11.672  0.0892  0.1237 -0.6974
  587TIP3    H123252   5.226   0.057  11.695  0.1411  0.4760 -0.8094
  587TIP3    H223253   5.355   0.121  11.648  0.4350 -0.0326 -0.6913
  588TIP3   OH223254   3.914   6.074   1.885  0.1628  0.2504 -0.2328
  588TIP3    H123255   3.931   6.168   1.885  0.6270  0.1684 -0.8296
  588TIP3    H223256   3.879   6.055   1.798  0.3400 -0.1805 -0.2130
  589TIP3   OH223257   6.255   2.044   2.118  0.4629 -0.5531  0.1688
  589TIP3    H123258   6.275   2.123   2.067  0.4155 -0.0543  0.9135
  589TIP3    H223259   6.227   2.077   2.204 -0.1984 -1.3615  0.2676
  590TIP3   OH223260   2.444   0.157   5.293  0.2223  0.2253  0.4833
  590TIP3    H123261   2.455   0.072   5.336  0.9682  1.1223  2.1170
  590TIP3    H223262   2.365   0.193   5.332  0.7720  0.9421  0.9479
  591TIP3   OH223263   0.114   5.862  15.918  0.0886 -0.3417  0.2216
  591TIP3    H123264   0.085   5.788  15.864  1.4203 -0.8631  0.2208
  591TIP3    H223265   0.033   5.908  15.939 -0.5488 -0.6167 -1.5008
  592TIP3   OH223266   0.227   0.363   1.665  0.2361 -0.6385 -0.2435
  592TIP3    H123267   0.217   0.338   1.574 -2.1653  1.8921 -0.7271
  592TIP3    H223268   0.138   0.375   1.697  1.0908  0.1289  1.9751
  593TIP3   OH223269   1.969   2.491   3.817  0.3896 -0.3512  0.6155
  593TIP3    H123270   2.043   2.536   3.775 -0.9145  0.5508 -0.7681
  593TIP3    H223271   1.931   2.438   3.747 -0.5968 -0.3763  1.1740
  594TIP3   OH223272   5.334   5.691   1.142  0.7089 -0.1561 -0.1757
  594TIP3    H123273   5.412   5.741   1.164 -0.7575  2.2427 -0.3271
  594TIP3    H223274   5.280   5.695   1.221  0.1997 -0.7660 -0.4876
  595TIP3   OH223275   4.812   4.816   2.628  0.2292 -0.1730 -0.1263
  595TIP3    H123276   4.791   4.833   2.536  0.9702  1.6284  0.0160
  595TIP3    H223277   4.836   4.724   2.631 -1.0076 -0.5601 -1.5167
  596TIP3   OH223278   0.022   5.522   5.161  0.1563 -0.0574  0.7108
  596TIP3    H123279  -0.068   5.522   5.192 -0.0731  0.9381  0.0751
  596TIP3    H223280   0.054   5.610   5.179  0.5670  0.0029 -0.2891
  597TIP3   OH223281   5.749   5.530   3.365  0.4656 -0.4960  0.5545
  597TIP3    H123282   5.655   5.522   3.349  0.3708 -1.3620  1.5049
  597TIP3    H223283   5.774   5.445   3.402  1.8148 -0.6378 -0.6464
  598TIP3   OH223284   3.389   0.935   0.849 -0.2138  0.3778  0.2217
  598TIP3    H123285   3.355   1.014   0.808 -1.3836 -0.1516  0.1773
  598TIP3    H223286   3.469   0.916   0.800 -1.9792 -0.6726 -2.3287
  599TIP3   OH223287   4.518   1.753   4.145 -0.2766  0.4746  0.3533
  599TIP3    H123288   4.566   1.681   4.186  0.0229  1.4485  1.7466
  599TIP3    H223289   4.450   1.710   4.093  0.7908 -0.8500  0.0376
  600TIP3   OH223290   4.332   2.349   4.857  0.3414  0.4656 -0.0203
  600TIP3    H123291   4.419   2.359   4.818  0.1168 -0.5293 -0.8040
  600TIP3    H223292   4.325   2.255   4.876 -0.7364  0.4578 -0.4168
  601TIP3   OH223293   4.347   4.539   1.181  0.2137 -0.0640  0.0082
  601TIP3    H123294   4.284   4.577   1.242  0.0782  0.0695 -0.2132
  601TIP3    H223295   4.308   4.455   1.157 -0.9215  0.9394 -1.7574
  602TIP3   OH223296   4.389   0.266  16.100 -0.4693  0.6039  0.0400
  602TIP3    H123297   4.465   0.276  16.158 -0.3023 -2.7315  0.4797
  602TIP3    H223298   4.314   0.269  16.159 -0.5101  0.7947 -0.0212
  603TIP3   OH223299   2.461   0.040  13.854 -0.1506 -0.0423 -0.3109
  603TIP3    H123300   2.491  -0.049  13.873 -2.3636 -0.2191  2.8188
  603TIP3    H223301   2.368   0.030  13.834 -0.5473  1.5778  0.6396
  604TIP3   OH223302   3.833   0.738  13.072  0.0456  0.0567  0.0376
  604TIP3    H123303   3.850   0.661  13.126 -0.8701 -0.9266 -1.0550
  604TIP3    H223304   3.739   0.754  13.082  0.1266  0.6767 -0.1950
  605TIP3   OH223305   3.306   5.034   3.027  0.4827 -0.3664 -0.1920
  605TIP3    H123306   3.327   5.061   2.938 -0.5869  0.7247 -0.1277
  605TIP3    H223307   3.288   5.116   3.073  0.6366 -0.9517  0.9278
  606TIP3   OH223308   2.149   5.391   6.426  0.1812  0.6748 -0.1768
  606TIP3    H123309   2.196   5.441   6.493 -0.8492  0.0860  1.0166
  606TIP3    H223310   2.183   5.302   6.436  0.7749  0.7883 -1.1471
  607TIP3   OH223311   5.328   3.666   6.107  0.1861 -0.2762  0.4949
  607TIP3    H123312   5.403   3.722   6.128 -0.5459  0.3965  1.3315
  607TIP3    H223313   5.323   3.666   6.012  0.2675  0.9653  0.4918
  608TIP3   OH223314   2.529   2.002   4.684  0.3811 -0.0170  0.1094
  608TIP3    H123315   2.450   1.967   4.726  0.0075  0.7087  0.0231
  608TIP3    H223316   2.502   2.087   4.651  0.7184 -0.5073 -1.4570
  609TIP3   OH223317   1.040   3.349   1.580  0.2699 -0.4040  0.1271
  609TIP3    H123318   1.061   3.256   1.582  2.1943  0.0423  1.4934
  609TIP3    H223319   1.042   3.377   1.671  0.3425  1.1060 -0.3177
  610TIP3   OH223320   3.569   0.639   4.900 -0.6826 -0.2891  0.2229
  610TIP3    H123321   3.605   0.553   4.878  0.8413  0.2513  0.6066
  610TIP3    H223322   3.567   0.641   4.995 -0.8302  0.0562  0.2134
  611TIP3   OH223323   1.717   4.505  14.286  0.1779  0.0695 -0.0704
  611TIP3    H123324   1.728   4.587  14.239 -1.2886  0.9027  1.0263
  611TIP3    H223325   1.676   4.446  14.222 -0.2598  0.6694 -0.3349
  612TIP3   OH223326   5.386   2.698   3.881  0.0737  0.8228 -0.0470
  612TIP3    H123327   5.296   2.725   3.864  0.3781  2.2681  0.5323
  612TIP3    H223328   5.438   2.744   3.815  0.4709  0.5998  0.1069
  613TIP3   OH223329   2.526   1.527  14.440 -0.2484 -0.1609  0.5304
  613TIP3    H123330   2.542   1.466  14.368  1.2340 -1.1118  1.6210
  613TIP3    H223331   2.591   1.502  14.507 -0.0461  2.1997  1.2592
  614TIP3   OH223332   5.794   1.765  13.011  0.0942 -0.7656  0.5749
  614TIP3    H123333   5.804   1.670  13.003 -0.1591 -0.8614  1.3789
  614TIP3    H223334   5.732   1.777  13.083 -0.3676 -0.0062  0.0560
  615TIP3   OH223335   3.817   1.980   5.242  0.1816  0.4910 -0.4645
  615TIP3    H123336   3.773   1.897   5.260 -0.6636  0.9776 -0.2370
  615TIP3    H223337   3.910   1.961   5.252 -0.1628  0.3971  3.0599
  616TIP3   OH223338   3.447   0.779  16.303  0.0858  0.1690 -0.5376
  616TIP3    H123339   3.430   0.705  16.361 -0.1887  0.4886 -0.2097
  616TIP3    H223340   3.427   0.746  16.216  0.9242 -0.4494 -0.5005
  617TIP3   OH223341   5.876   1.074   3.816  0.3921 -0.3506 -0.0355
  617TIP3    H123342   5.898   1.056   3.725 -2.8042  2.1997 -1.4090
  617TIP3    H223343   5.944   1.134   3.846  0.4614  0.1972 -1.2925
  618TIP3   OH223344   0.510   6.382   4.947  0.0900 -0.3319 -0.0714
  618TIP3    H123345   0.596   6.352   4.975  1.1466  1.7786 -0.9515
  618TIP3    H223346   0.448   6.327   4.995  1.9147 -1.4870  0.9963
  619TIP3   OH223347   4.426   2.689  12.715 -0.3887 -0.3389  0.0879
  619TIP3    H123348   4.430   2.608  12.765 -2.3836  0.1526  1.1220
  619TIP3    H223349   4.346   2.732  12.745 -0.1259  1.3404 -1.4708
  620TIP3   OH223350   3.740   0.602  15.567 -0.5103 -0.0773  0.0081
  620TIP3    H123351   3.659   0.568  15.606 -0.1603  0.6986  1.4714
  620TIP3    H223352   3.795   0.624  15.643 -0.6026  3.4122 -0.8711
  621TIP3   OH223353   3.233   4.488   3.928  0.1599  0.0260  0.3575
  621TIP3    H123354   3.282   4.551   3.876 -0.0323  1.1475  1.5018
  621TIP3    H223355   3.142   4.518   3.923 -0.4810 -2.0635 -1.7935
  622TIP3   OH223356   6.532   6.441  11.295 -0.3251  0.4596  0.0968
  622TIP3    H123357   6.439   6.445  11.317 -0.1507  0.7481  0.8179
  622TIP3    H223358   6.542   6.363  11.241 -0.4605 -1.3733  2.6485
  623TIP3   OH223359   4.640   6.724   2.782 -0.3925  0.2659  0.4667
  623TIP3    H123360   4.586   6.775   2.842  0.1403  0.2571  0.9534
  623TIP3    H223361   4.648   6.778   2.703  1.0667  1.4088  1.3818
  624TIP3   OH223362   6.187   6.190  15.548 -0.3887 -0.0395  0.3375
  624TIP3    H123363   6.271   6.194  15.503 -0.0524  3.5043  1.1531
  624TIP3    H223364   6.124   6.164  15.480  1.0212 -0.6037 -0.7699
  625TIP3   OH223365   4.034   2.913  13.727  0.0903 -0.5033 -0.0097
  625TIP3    H123366   4.115   2.942  13.768 -0.8299 -1.8191  2.8904
  625TIP3    H223367   3.975   2.988  13.734  0.5819 -0.0291 -0.8418
  626TIP3   OH223368   3.951   2.657  13.837 -0.1046  0.0039  0.0597
  626TIP3    H123369   3.956   2.582  13.778 -1.7715 -0.4385  0.4548
  626TIP3    H223370   3.991   2.729  13.788  0.0821 -0.7698 -0.9277
  627TIP3   OH223371   4.784   4.127  15.480 -0.1158  0.2915  0.5469
  627TIP3    H123372   4.877   4.138  15.502  0.0097 -1.7898  1.0685
  627TIP3    H223373   4.742   4.104  15.562 -0.7304 -0.9816 -0.1126
  628TIP3   OH223374   3.836   2.855   4.237 -0.0548 -0.2148  0.2912
  628TIP3    H123375   3.802   2.940   4.265 -0.0071 -0.1930  0.2828
  628TIP3    H223376   3.916   2.843   4.289  1.5521  1.0784 -1.8224
  629TIP3   OH223377   0.918   4.634   4.126  0.0750  0.1811  0.4563
  629TIP3    H123378   0.882   4.632   4.038 -0.3148 -0.7256  0.6250
  629TIP3    H223379   0.842   4.637   4.184  0.2479 -1.2292  0.7990
  630TIP3   OH223380   1.573   5.212   1.560 -0.2642 -0.1781  0.2074
  630TIP3    H123381   1.646   5.258   1.601 -0.7308  2.6563 -2.0291
  630TIP3    H223382   1.589   5.219   1.466 -3.0183 -0.1121 -0.3206
  631TIP3   OH223383   0.788   2.900  11.897  0.4812 -0.1096  0.6434
  631TIP3    H123384   0.720   2.913  11.831  1.1503 -1.9836 -0.4258
  631TIP3    H223385   0.740   2.898  11.980 -0.6760 -0.5902 -0.0226
  632TIP3   OH223386   2.748   4.370   1.212 -0.1258  0.5171 -0.4121
  632TIP3    H123387   2.781   4.319   1.138  0.4696 -0.5453  0.5501
  632TIP3    H223388   2.663   4.330   1.233 -0.5158  1.1319 -0.8385
  633TIP3   OH223389   3.355   0.814   4.840  0.3807 -0.0707  0.0406
  633TIP3    H123390   3.425   0.753   4.863  1.6295  1.4919  0.4142
  633TIP3    H223391   3.377   0.895   4.885 -0.7090  0.9990 -1.2966
  634TIP3   OH223392   6.396   2.891  12.997 -0.2203  0.0706 -0.5866
  634TIP3    H123393   6.332   2.865  13.063 -0.6708  0.7357 -0.7618
  634TIP3    H223394   6.420   2.809  12.954  0.6755 -0.4857  0.9284
  635TIP3   OH223395   3.384   1.959  12.200  0.2280 -0.1814  0.2262
  635TIP3    H123396   3.298   1.929  12.172  0.4319 -1.1420  0.6341
  635TIP3    H223397   3.378   2.055  12.198 -1.1220 -0.2495  1.1181
  636TIP3   OH223398   0.605   0.168   4.345 -0.3767  0.1586  0.3451
  636TIP3    H123399   0.643   0.140   4.262 -0.6404  1.9377 -0.3919
  636TIP3    H223400   0.679   0.172   4.405 -0.0298 -0.1977 -0.0552
  637TIP3   OH223401   2.604   5.469   5.375  0.4332 -0.5571 -0.0860
  637TIP3    H123402   2.625   5.518   5.455 -0.4764  0.0545 -0.2140
  637TIP3    H223403   2.687   5.430   5.349  1.3867  1.6327 -0.4592
  638TIP3   OH223404   2.978   3.262  15.757 -0.3085 -0.1249  0.7584
  638TIP3    H123405   2.894   3.302  15.783 -1.1654 -1.4704  0.1329
  638TIP3    H223406   2.952   3.187  15.703  1.3223 -0.4076  0.3621
  639TIP3   OH223407   4.094   4.109  14.085  0.3856  0.0360 -0.3057
  639TIP3    H123408   4.110   4.015  14.071 -0.6769 -0.7237  2.9384
  639TIP3    H223409   4.011   4.126  14.040  0.8516 -0.4452 -1.3649
  640TIP3   OH223410   2.759   3.564  16.363 -0.0095 -0.3632 -0.3656
  640TIP3    H123411   2.683   3.524  16.406  0.9813 -2.2966 -0.3597
  640TIP3    H223412   2.801   3.616  16.432  0.8100 -2.3573  0.6799
  641TIP3   OH223413   3.171   0.031   6.458  0.0676  0.1266 -0.5090
  641TIP3    H123414   3.088   0.078   6.467 -0.4100 -0.6576 -0.7469
  641TIP3    H223415   3.157  -0.052   6.503  0.3717 -0.4422 -1.4394
  642TIP3   OH223416   5.557   2.196   4.307 -0.4953  0.7064 -0.4037
  642TIP3    H123417   5.548   2.109   4.270  0.9836  0.6648 -0.6851
  642TIP3    H223418   5.473   2.238   4.291 -0.1657  0.4089 -3.0699
  643TIP3   OH223419   2.903   1.065  17.139  0.5031  0.8362 -0.7297
  643TIP3    H123420   2.894   1.107  17.224 -0.4357  0.5104 -0.6638
  643TIP3    H223421   2.816   1.072  17.100  0.3114 -1.1304 -0.6783
  644TIP3   OH223422   3.943   0.960  15.837 -0.1515 -0.4633  0.5593
  644TIP3    H123423   4.035   0.939  15.851  0.8052  0.8666 -3.2265
  644TIP3    H223424   3.928   1.038  15.892  1.3115  0.0342  0.2749
  645TIP3   OH223425   3.365   0.750  16.036 -0.3308  0.1309 -0.2106
  645TIP3    H123426   3.444   0.762  15.983 -0.0695 -0.9007 -0.0559
  645TIP3    H223427   3.331   0.839  16.048 -0.5310  0.3688 -2.3007
  646TIP3   OH223428   4.908   6.596  13.887 -0.4811  0.0747  0.1455
  646TIP3    H123429   4.865   6.681  13.892  1.3703  1.0332  0.1527
  646TIP3    H223430   4.986   6.605  13.942  0.9576 -0.8974 -1.6748
  647TIP3   OH223431   1.141   4.418   5.739  0.5534 -0.2440  0.1010
  647TIP3    H123432   1.110   4.329   5.720  0.7301 -0.3339  0.2300
  647TIP3    H223433   1.228   4.422   5.700  0.6850 -0.2401  0.3934
  648TIP3   OH223434   0.081   6.607   0.915  0.4520 -0.0400 -0.3231
  648TIP3    H123435   0.061   6.632   0.825 -0.1474  0.7824  0.0301
  648TIP3    H223436   0.038   6.674   0.969 -3.0961 -2.9771  0.7300
  649TIP3   OH223437   1.256   4.885   6.003 -1.3881  0.2252  0.6005
  649TIP3    H123438   1.350   4.886   5.987 -1.2484 -0.5871  1.3541
  649TIP3    H223439   1.221   4.826   5.937 -1.2886  0.0192  0.7304
  650TIP3   OH223440   4.610   5.787  13.820 -0.1482  0.0118 -0.0228
  650TIP3    H123441   4.705   5.788  13.832 -0.1215 -0.5710 -0.1946
  650TIP3    H223442   4.591   5.868  13.773  0.3639 -0.2797 -0.7375
  651TIP3   OH223443   2.692   1.545   5.493  0.1639 -0.3763 -0.1410
  651TIP3    H123444   2.730   1.530   5.579 -0.5375  0.5105  0.3311
  651TIP3    H223445   2.746   1.494   5.433  0.9911 -0.5508  0.7536
  652TIP3   OH223446   5.219   2.980   1.077 -0.5257 -0.0600 -0.1311
  652TIP3    H123447   5.251   2.958   0.990 -0.7463  1.5217 -0.6249
  652TIP3    H223448   5.281   3.044   1.111 -1.3282  0.5543  0.2120
  653TIP3   OH223449   5.403   3.695  14.524  0.2124 -0.2027  0.4160
  653TIP3    H123450   5.418   3.610  14.565 -0.0821  0.0654  1.0870
  653TIP3    H223451   5.345   3.741  14.585 -2.1759 -0.6637 -1.4352
  654TIP3   OH223452   0.843   0.026   4.710  0.3908 -0.0564  0.3340
  654TIP3    H123453   0.748   0.009   4.707  0.1146  1.6452 -1.9757
  654TIP3    H223454   0.882  -0.061   4.719 -1.3608 -0.9035  0.1037
  655TIP3   OH223455   5.222   2.403   5.503  0.0484  0.0141 -0.7492
  655TIP3    H123456   5.286   2.334   5.484 -0.9227 -0.7324 -1.3272
  655TIP3    H223457   5.189   2.430   5.417  0.2985  1.0957 -0.5220
  656TIP3   OH223458   1.470   5.127  13.896  0.1843  0.0676 -0.1150
  656TIP3    H123459   1.504   5.192  13.834  0.5271  1.2592  1.2583
  656TIP3    H223460   1.489   5.043  13.856 -0.2054  0.8226 -1.9194
  657TIP3   OH223461   1.262   0.439   5.208 -0.4871 -0.1117  0.3126
  657TIP3    H123462   1.292   0.408   5.122  0.0416  0.5030  0.2728
  657TIP3    H223463   1.291   0.530   5.212  0.4505 -0.4561  1.5975
  658TIP3   OH223464   1.544   5.594  11.859  0.2189  0.2836 -0.0103
  658TIP3    H123465   1.506   5.607  11.772 -0.0449  4.8510  0.6283
  658TIP3    H223466   1.639   5.598  11.845  0.2566 -1.6399 -0.3921
  659TIP3   OH223467   5.757   2.038   4.110 -0.5177 -0.0551 -0.5384
  659TIP3    H123468   5.839   1.999   4.141  0.6072  1.2680 -1.7264
  659TIP3    H223469   5.706   2.053   4.190  0.7656 -0.1076  0.3181
  660TIP3   OH223470   2.602   0.770  17.285 -0.4974  0.6145  0.2644
  660TIP3    H123471   2.543   0.731  17.220 -1.3546  0.6495  1.0150
  660TIP3    H223472   2.619   0.859  17.252 -0.8779  0.6124  0.0645
  661TIP3   OH223473   6.008   1.908  13.612  0.3088 -0.5217 -0.3882
  661TIP3    H123474   5.965   1.931  13.529 -0.6809  1.0730  0.5246
  661TIP3    H223475   5.989   1.815  13.624 -0.0862 -0.6153 -1.6398
  662TIP3   OH223476   5.313   4.974   0.353  0.1187  0.1553  0.0265
  662TIP3    H123477   5.405   4.961   0.374 -0.0362 -1.1536 -0.0888
  662TIP3    H223478   5.313   5.030   0.276  0.7728  1.6427  1.0883
  663TIP3   OH223479   3.715   0.843  13.334  0.2026  0.0834 -0.3128
  663TIP3    H123480   3.796   0.893  13.332  0.9194 -1.0478  0.1253
  663TIP3    H223481   3.668   0.870  13.255  0.6653  1.2906 -0.1765
  664TIP3   OH223482   0.493   5.638  11.822  0.5366 -0.0135 -0.2196
  664TIP3    H123483   0.456   5.712  11.773 -0.3869 -0.4261 -0.1572
  664TIP3    H223484   0.489   5.565  11.761 -1.8884 -0.8603  0.9009
  665TIP3   OH223485   3.286   6.430  12.905  0.0710  0.0080 -0.0677
  665TIP3    H123486   3.207   6.384  12.933  0.0618  0.7355  1.1191
  665TIP3    H223487   3.358   6.384  12.948  0.1957  0.1153 -0.1590
  666TIP3   OH223488   0.427   0.207  16.164  0.1997 -0.3775 -0.0515
  666TIP3    H123489   0.400   0.202  16.072  0.6355  1.4743 -0.3109
  666TIP3    H223490   0.345   0.201  16.213  0.0795 -2.6401 -0.4939
  667TIP3   OH223491   3.132   5.062  12.432 -0.2421  0.8632  0.1910
  667TIP3    H123492   3.042   5.033  12.450 -0.3644  1.2108  0.1333
  667TIP3    H223493   3.166   5.090  12.517  0.0971 -0.0551  0.3654
  668TIP3   OH223494   1.868   4.062  15.712  0.3029  0.4023 -0.0488
  668TIP3    H123495   1.902   4.050  15.800 -0.4695 -2.4646 -0.0893
  668TIP3    H223496   1.782   4.103  15.725  0.9919  1.7526  0.3865
  669TIP3   OH223497   4.234   3.850  16.723  0.0645 -0.3561  0.0261
  669TIP3    H123498   4.186   3.920  16.679  0.0711  0.6709  1.6036
  669TIP3    H223499   4.306   3.829  16.664  0.6008  1.6181 -0.0640
  670TIP3   OH223500   6.584   2.950   4.754 -0.2939 -0.0280 -0.0291
  670TIP3    H123501   6.563   2.904   4.835  0.4128  0.4579  0.4297
  670TIP3    H223502   6.539   3.034   4.761 -0.8319 -0.2714 -0.4677
  671TIP3   OH223503   3.157   3.953  15.481  0.3770  0.2292  0.9761
  671TIP3    H123504   3.158   4.048  15.470  1.1656  0.1194  0.0776
  671TIP3    H223505   3.067   3.928  15.463  0.1251  0.8258  1.3808
  672TIP3   OH223506   0.647   4.927   5.457 -0.0732  0.3835  0.6333
  672TIP3    H123507   0.642   4.982   5.535 -0.4317 -0.0724  0.9318
  672TIP3    H223508   0.566   4.944   5.410  0.9186  1.9808 -0.5288
  673TIP3   OH223509   0.499   4.429  11.771 -0.2245 -0.1686  0.2386
  673TIP3    H123510   0.463   4.384  11.847  1.3951 -1.0819  0.5027
  673TIP3    H223511   0.457   4.386  11.696  1.4258 -2.3435  0.4786
  674TIP3   OH223512   1.920   0.408  16.803  0.3372 -0.4720 -0.3213
  674TIP3    H123513   1.895   0.343  16.868 -0.5220  1.0346  0.8696
  674TIP3    H223514   1.950   0.356  16.728  0.1152 -2.2256  0.7798
  675TIP3   OH223515   0.918   6.690  13.045 -0.1966 -0.8207 -0.0923
  675TIP3    H123516   0.873   6.725  12.968  0.8987 -0.8770 -0.7775
  675TIP3    H223517   0.890   6.746  13.117 -2.0777 -1.4304 -0.3297
  676TIP3   OH223518   4.716   6.141   2.441  0.4444 -0.3805 -0.3201
  676TIP3    H123519   4.682   6.079   2.505  0.9439  0.5239  0.8217
  676TIP3    H223520   4.647   6.205   2.429  1.1373  0.5997  0.8588
  677TIP3   OH223521   6.384   4.859   5.218 -0.6722  0.5421  0.0985
  677TIP3    H123522   6.330   4.891   5.290 -1.6697 -0.3611 -0.2282
  677TIP3    H223523   6.367   4.765   5.216  0.5592  0.3166 -0.3156
  678TIP3   OH223524   2.313   2.210   5.216 -0.4789 -0.4902  0.7139
  678TIP3    H123525   2.229   2.183   5.181 -0.2799 -0.6772  0.3780
  678TIP3    H223526   2.310   2.306   5.214  0.3792 -0.4802 -1.9207
  679TIP3   OH223527   6.166   6.560   3.186  0.5389 -0.2569 -0.2892
  679TIP3    H123528   6.103   6.628   3.161 -1.2319 -1.6792  0.2169
  679TIP3    H223529   6.212   6.596   3.262  0.1401  0.6750 -0.4829
  680TIP3   OH223530   4.385   2.419  16.174  0.0128  0.3445  0.0515
  680TIP3    H123531   4.386   2.497  16.229 -0.9110  0.5888 -0.2586
  680TIP3    H223532   4.292   2.406  16.153  0.4402  1.0001 -2.4585
  681TIP3   OH223533   6.557   2.004   1.051 -0.3077  0.0744  0.2779
  681TIP3    H123534   6.569   1.909   1.054  0.4904  0.0938 -1.5310
  681TIP3    H223535   6.631   2.039   1.102 -1.4383 -0.2958  2.2198
  682TIP3   OH223536   5.035   1.341  16.244  0.5521 -0.4684  0.0834
  682TIP3    H123537   5.058   1.434  16.246  1.5441 -0.6921 -0.7754
  682TIP3    H223538   4.948   1.339  16.204 -0.2585  0.2368  1.7592
  683TIP3   OH223539   5.750   2.312  14.780  0.4268 -0.4320 -0.1697
  683TIP3    H123540   5.791   2.266  14.853  0.3910 -1.6956 -0.9205
  683TIP3    H223541   5.698   2.381  14.821  2.5330  0.6054  0.8343
  684TIP3   OH223542   0.584   1.362  11.112  0.1739 -0.0023 -0.2734
  684TIP3    H123543   0.557   1.302  11.043  0.7578  1.9867 -2.2820
  684TIP3    H223544   0.504   1.408  11.136  0.4306  1.0769 -1.4278
  685TIP3   OH223545   4.664   5.968  15.112  0.2724  0.5875  0.2318
  685TIP3    H123546   4.620   5.950  15.028  0.3243  1.2885  0.0499
  685TIP3    H223547   4.593   5.982  15.174  0.2337  0.6626  0.1703
  686TIP3   OH223548   1.203   0.738  15.544 -0.3182 -0.4539  0.1527
  686TIP3    H123549   1.225   0.830  15.557 -1.0034 -0.3395  0.4962
  686TIP3    H223550   1.230   0.720  15.453 -2.9179  0.8765 -0.9182
  687TIP3   OH223551   6.808   2.719  12.257 -0.2225 -0.0824 -0.2580
  687TIP3    H123552   6.827   2.627  12.241  3.8311  0.4778  0.8079
  687TIP3    H223553   6.849   2.738  12.342  0.7673  3.1217 -1.3673
  688TIP3   OH223554   6.248   0.130  11.631  0.1886  0.1409  0.1531
  688TIP3    H123555   6.250   0.225  11.637 -0.5185  0.2312 -0.8504
  688TIP3    H223556   6.295   0.109  11.550  1.0964 -0.4155  0.8175
  689TIP3   OH223557   4.120   4.814  15.499 -0.1718  0.3672  0.4774
  689TIP3    H123558   4.166   4.890  15.534  1.8459 -0.5246 -0.1747
  689TIP3    H223559   4.142   4.743  15.559 -0.3733 -0.1641 -0.0770
  690TIP3   OH223560   5.735   4.282  14.342  0.1288  0.2176 -0.4443
  690TIP3    H123561   5.643   4.253  14.340 -0.0658  0.7594  0.7216
  690TIP3    H223562   5.785   4.200  14.347 -0.3961  0.0110  2.0317
  691TIP3   OH223563   2.956   5.720  14.143 -0.5642  0.1924  0.0723
  691TIP3    H123564   3.042   5.745  14.176 -0.9142 -0.6328  1.6276
  691TIP3    H223565   2.898   5.790  14.172 -0.5191  0.5069 -0.5728
  692TIP3   OH223566   2.717   4.469  16.555 -0.0690  0.4882 -0.3112
  692TIP3    H123567   2.775   4.394  16.560 -1.5133 -0.5193  2.0231
  692TIP3    H223568   2.632   4.437  16.586 -1.3461  2.4592 -1.6084
  693TIP3   OH223569   0.001   6.602  15.323 -0.1076 -0.1235 -0.2130
  693TIP3    H123570  -0.025   6.557  15.404  0.3234 -2.1430 -1.1631
  693TIP3    H223571   0.069   6.664  15.351  0.2634 -1.0199  0.9313
  694TIP3   OH223572   3.810   4.063  15.432 -0.0691 -0.1558  0.4596
  694TIP3    H123573   3.747   4.002  15.394 -1.6166  0.8254  1.4474
  694TIP3    H223574   3.882   4.008  15.461  1.0676 -1.0158 -3.5788
  695TIP3   OH223575   0.148   6.695   2.984  0.3028 -0.5151 -0.0480
  695TIP3    H123576   0.153   6.783   3.022  0.3364 -0.6121  0.1774
  695TIP3    H223577   0.229   6.686   2.934  0.0062 -0.1816 -0.5867
  696TIP3   OH223578   5.405   4.588  16.454  0.0251 -0.4983 -0.1178
  696TIP3    H123579   5.366   4.510  16.415 -0.0720 -0.4932 -0.0330
  696TIP3    H223580   5.476   4.554  16.509  0.0305 -0.5208 -0.1373
  697TIP3   OH223581   6.604   3.496   0.092 -0.5085 -0.2079 -0.0405
  697TIP3    H123582   6.571   3.572   0.043 -1.2600 -0.1447  0.5658
  697TIP3    H223583   6.694   3.519   0.113 -0.2305 -0.1527 -1.2325
  698TIP3   OH223584   2.518   3.830  16.380 -0.4164  0.3035 -0.0804
  698TIP3    H123585   2.529   3.916  16.420 -0.0347  0.1156  0.2243
  698TIP3    H223586   2.494   3.849  16.289 -0.9946  0.7270  0.1618
  699TIP3   OH223587   1.400   1.955  16.482  0.1262 -0.4844 -0.1206
  699TIP3    H123588   1.376   1.876  16.434 -2.8281  0.0179  0.4690
  699TIP3    H223589   1.410   2.022  16.414  0.9828 -0.9378 -0.4582
  700TIP3   OH223590   4.794   3.062  13.446 -0.0117 -0.3480  0.0172
  700TIP3    H123591   4.849   3.125  13.491 -0.0842 -0.7031  0.6085
  700TIP3    H223592   4.813   2.979  13.490 -0.3441 -0.6288 -0.3759
  701TIP3   OH223593   2.852   4.234  16.548 -0.2597  0.0364  0.5506
  701TIP3    H123594   2.886   4.154  16.587  0.4519  0.5195  0.9488
  701TIP3    H223595   2.827   4.210  16.459  1.7393 -0.1875  0.0329
  702TIP3   OH223596   0.210   5.061  13.460 -0.6416  0.0257  0.4304
  702TIP3    H123597   0.181   4.983  13.414  1.4683 -0.8242  0.4530
  702TIP3    H223598   0.167   5.133  13.415 -1.3327 -1.0329 -0.6443
  703TIP3   OH223599   1.948   4.036  11.197 -0.0689  0.0188  0.3960
  703TIP3    H123600   2.033   4.055  11.237 -0.7061 -0.1822  1.8802
  703TIP3    H223601   1.884   4.061  11.264 -1.1709 -0.1367 -0.5825
  704TIP3   OH223602   5.113   3.514  14.666 -0.9964  0.1926  0.0318
  704TIP3    H123603   5.106   3.460  14.744  0.7888 -0.8873 -0.5191
  704TIP3    H223604   5.162   3.591  14.694 -1.4919  0.4145  0.2821
  705TIP3   OH223605   5.352   0.733  16.214  0.2631 -0.1917 -0.0194
  705TIP3    H123606   5.429   0.701  16.167 -1.7326 -0.8430 -3.0122
  705TIP3    H223607   5.358   0.829  16.208  0.1038 -0.2685 -1.5103
  706TIP3   OH223608   6.722   0.973  12.509 -0.5099 -0.3853  0.2401
  706TIP3    H123609   6.650   1.024  12.472  0.2986 -0.6863 -1.8138
  706TIP3    H223610   6.787   1.038  12.536 -0.9179 -0.1778  0.7114
  707TIP3   OH223611   2.443   3.194  11.476 -0.1093 -0.1594  0.0714
  707TIP3    H123612   2.507   3.260  11.448 -0.7391  0.6231  0.4474
  707TIP3    H223613   2.385   3.241  11.535 -0.5174 -1.0853  0.4150
  708TIP3   OH223614   4.916   1.792   2.834  0.1288 -0.5560  0.5335
  708TIP3    H123615   4.843   1.768   2.777 -0.4704  2.3349  0.0200
  708TIP3    H223616   4.978   1.719   2.826 -1.6153 -1.9145 -0.8998
  709TIP3   OH223617   2.058   5.663   0.177  1.2143  0.5269  0.5493
  709TIP3    H123618   2.013   5.727   0.232 -2.7992 -0.8897 -0.8708
  709TIP3    H223619   2.087   5.713   0.100  3.5203  1.7546  2.1663
  710TIP3   OH223620   4.549   4.554   3.836  0.1855  0.0826 -0.2934
  710TIP3    H123621   4.529   4.475   3.886  1.5527 -0.6752 -0.9073
  710TIP3    H223622   4.464   4.595   3.819 -0.4851 -0.9968  0.4403
  711TIP3   OH223623   2.545   5.680   3.194  0.3805 -0.0671  0.4151
  711TIP3    H123624   2.525   5.726   3.112  2.8753  0.2139 -0.0867
  711TIP3    H223625   2.459   5.659   3.232 -0.8022  1.5741 -1.2670
  712TIP3   OH223626   1.931   6.534   3.414  0.6113 -0.3820  0.0457
  712TIP3    H123627   2.015   6.560   3.375  0.4662  0.4082  0.2441
  712TIP3    H223628   1.955   6.493   3.497  0.9941 -3.1059 -1.3552
  713TIP3   OH223629   2.831   1.074   0.161 -0.7396 -0.5348 -0.1240
  713TIP3    H123630   2.845   0.980   0.176 -3.0766 -1.1971 -1.7632
  713TIP3    H223631   2.815   1.110   0.249  1.8524 -1.3120  0.7246
  714TIP3   OH223632   3.847   0.391  12.179  0.2240  0.1846 -0.2137
  714TIP3    H123633   3.793   0.422  12.107 -1.3208 -0.0166  0.8321
  714TIP3    H223634   3.916   0.457  12.188 -0.9481  1.4499 -0.3370
  715TIP3   OH223635   1.405   0.582   1.006  0.2510 -0.7502 -0.3122
  715TIP3    H123636   1.436   0.669   1.032 -0.6307  0.1111 -2.0467
  715TIP3    H223637   1.482   0.539   0.968  0.2533 -0.0460 -1.1111
  716TIP3   OH223638   2.902   5.008   1.036 -0.0257 -0.1054 -0.2879
  716TIP3    H123639   2.843   5.073   0.997 -1.8571 -1.4403  0.1799
  716TIP3    H223640   2.904   5.030   1.129 -0.4860 -0.5970 -0.1617
  717TIP3   OH223641   5.463   1.951  16.665  0.3547  0.1612 -0.1635
  717TIP3    H123642   5.470   1.892  16.590 -0.3224  0.9866 -0.8962
  717TIP3    H223643   5.553   1.961  16.697  0.7736  0.4891 -1.4158
  718TIP3   OH223644   5.983   3.253   4.174  0.3741 -0.2665 -0.2761
  718TIP3    H123645   5.902   3.272   4.220  1.3372  1.0640  0.9116
  718TIP3    H223646   5.980   3.309   4.096 -0.8076 -1.8066 -1.3775
  719TIP3   OH223647   4.430   2.280  14.774  0.6291 -0.3833  0.2701
  719TIP3    H123648   4.359   2.217  14.783 -0.0501 -0.1432 -2.6516
  719TIP3    H223649   4.462   2.294  14.863 -2.7675 -0.7316  1.6263
  720TIP3   OH223650   0.124   2.795   3.919 -0.4257 -0.0382  0.2374
  720TIP3    H123651   0.195   2.781   3.856 -2.2433 -0.6489 -1.7478
  720TIP3    H223652   0.168   2.829   3.997  2.0705 -0.6246 -0.8366
  721TIP3   OH223653   1.136   0.594   0.123 -0.1837  0.2849 -0.1471
  721TIP3    H123654   1.114   0.591   0.216 -0.8102  0.8900 -0.2730
  721TIP3    H223655   1.094   0.517   0.086 -0.4256  0.3612 -0.0311
  722TIP3   OH223656   6.698   2.039   5.167  0.2405 -0.3172 -0.0678
  722TIP3    H123657   6.647   2.114   5.136 -1.4241 -1.8769 -1.2218
  722TIP3    H223658   6.762   2.024   5.098  1.5120  0.9112  0.8302
  723TIP3   OH223659   1.840   5.963  16.902  0.4623 -0.4696  0.5213
  723TIP3    H123660   1.815   6.033  16.842 -0.8861  0.3954  2.0405
  723TIP3    H223661   1.831   5.882  16.850 -3.3618  0.0064  0.3077
  724TIP3   OH223662   2.379   6.800  12.022  0.2175 -0.1847 -0.0539
  724TIP3    H123663   2.400   6.775  12.112 -1.0924  0.3221  0.4012
  724TIP3    H223664   2.380   6.895  12.022 -0.3322 -0.1781 -0.4494
  725TIP3   OH223665   2.068   1.004  14.043 -0.1020  0.0229 -0.0371
  725TIP3    H123666   2.116   1.046  13.972 -0.5068  0.1753 -0.2202
  725TIP3    H223667   2.079   1.062  14.118 -1.8647  1.2014 -0.6644
  726TIP3   OH223668   3.504   5.617   3.819  0.4996 -0.4135 -0.5978
  726TIP3    H123669   3.418   5.585   3.794 -0.1245  0.9467 -0.2061
  726TIP3    H223670   3.487   5.693   3.875  1.9461  0.6072 -1.5136
  727TIP3   OH223671   4.243   6.527   1.386  0.3237  0.4334  0.0392
  727TIP3    H123672   4.310   6.556   1.323 -0.1413 -1.3441 -1.3081
  727TIP3    H223673   4.175   6.486   1.332 -0.9576  0.4925  1.5589
  728TIP3   OH223674   1.177   2.513   1.866 -0.1821 -0.1901 -0.2434
  728TIP3    H123675   1.115   2.492   1.935 -1.7080 -0.2055 -1.5995
  728TIP3    H223676   1.134   2.583   1.816  1.6112  0.9713 -0.2004
  729TIP3   OH223677   1.626   5.282  11.418 -0.0653 -0.7585  0.1754
  729TIP3    H123678   1.593   5.346  11.482  1.2307 -0.4370  0.5252
  729TIP3    H223679   1.682   5.334  11.360 -0.0178 -1.3448 -0.2977
  730TIP3   OH223680   2.230   5.708   0.552  0.2927  0.0672 -0.4220
  730TIP3    H123681   2.322   5.735   0.541 -0.5258  3.7704  1.1546
  730TIP3    H223682   2.180   5.789   0.546 -3.0595 -2.0096 -2.3013
  731TIP3   OH223683   1.118   3.922  15.358  0.2856 -0.9279 -0.0261
  731TIP3    H123684   1.155   3.937  15.445 -0.0416 -1.5821  0.2272
  731TIP3    H223685   1.076   3.837  15.364 -0.1016 -0.7889 -0.7058
  732TIP3   OH223686   1.616   6.615   1.345  0.6927  0.0361  0.0286
  732TIP3    H123687   1.593   6.654   1.260  1.6708  0.0234 -0.2486
  732TIP3    H223688   1.581   6.526   1.341 -0.2031  0.3778  0.0639
  733TIP3   OH223689   1.800   4.617   4.328 -0.2374  0.8753 -0.3007
  733TIP3    H123690   1.787   4.625   4.422  0.6964  0.6920 -0.1500
  733TIP3    H223691   1.724   4.662   4.289 -0.2718  1.5573  0.5346
  734TIP3   OH223692   0.356   1.400   4.044  0.5042  0.7002 -0.1562
  734TIP3    H123693   0.264   1.428   4.043  0.9822  2.3349 -1.8454
  734TIP3    H223694   0.406   1.481   4.051  1.8406 -0.1443  0.2976
  735TIP3   OH223695   3.442   2.646  13.487  0.1228 -0.3436  0.7303
  735TIP3    H123696   3.362   2.603  13.516 -2.4617  1.8848 -2.6523
  735TIP3    H223697   3.483   2.583  13.428 -0.6517 -0.4238  0.2622
  736TIP3   OH223698   0.856   6.530  12.625  0.0629 -0.0295  0.0861
  736TIP3    H123699   0.805   6.504  12.702  1.1482  0.3470  0.9380
  736TIP3    H223700   0.930   6.470  12.623  0.2536  0.2156 -0.4506
  737TIP3   OH223701   2.496   5.160  17.015 -0.3092  0.0771 -0.6994
  737TIP3    H123702   2.473   5.128  17.103 -0.7471  0.5632 -0.6341
  737TIP3    H223703   2.413   5.164  16.969 -0.2953  1.3267 -0.6410
  738TIP3   OH223704   5.163   3.831   2.141 -0.6401  0.2124 -0.1197
  738TIP3    H123705   5.135   3.820   2.050 -1.9309  2.2579  0.0181
  738TIP3    H223706   5.225   3.903   2.138  1.3959 -1.4619  0.2533
  739TIP3   OH223707   2.898   1.549  12.986  0.4798  0.3875 -0.2586
  739TIP3    H123708   2.956   1.621  12.960  2.3064 -0.7258  0.6082
  739TIP3    H223709   2.948   1.470  12.965 -1.0558 -0.6208 -0.1768
  740TIP3   OH223710   1.323   3.378   5.618 -0.2768  0.4847  0.2707
  740TIP3    H123711   1.359   3.320   5.685  0.5328 -0.1638 -0.7063
  740TIP3    H223712   1.244   3.333   5.587 -1.3778  1.4189  1.7042
  741TIP3   OH223713   3.600   5.588   0.069  0.3297  0.8644 -0.0476
  741TIP3    H123714   3.611   5.593  -0.026  0.0656  2.2238 -0.0176
  741TIP3    H223715   3.680   5.546   0.101  0.8426  1.2814 -0.7801
  742TIP3   OH223716   2.750   4.221  15.989  0.0049 -0.0508 -0.2236
  742TIP3    H123717   2.655   4.221  15.976  0.1580  0.0896 -1.4671
  742TIP3    H223718   2.783   4.270  15.914  1.0430  0.1525  0.3639
  743TIP3   OH223719   6.794   1.366  16.587 -0.1378 -0.4018  0.4422
  743TIP3    H123720   6.834   1.295  16.538  1.1172  0.4708  0.1692
  743TIP3    H223721   6.739   1.323  16.652  0.5259 -1.6130  0.2157
  744TIP3   OH223722   2.162   0.599  16.918  0.5584 -0.2367 -0.3974
  744TIP3    H123723   2.206   0.657  16.856 -2.3465  2.9893  0.4322
  744TIP3    H223724   2.073   0.593  16.885 -0.0506 -1.5252  1.4535
  745TIP3   OH223725   2.945   3.978  16.294  1.0453  0.3919 -0.8902
  745TIP3    H123726   3.037   3.998  16.312  0.6441  2.3240 -0.8739
  745TIP3    H223727   2.899   4.060  16.312 -1.3088 -1.6723  3.4089
  746TIP3   OH223728   6.690   0.933  15.378 -0.1625 -0.1610  0.2910
  746TIP3    H123729   6.596   0.936  15.396 -0.2182  0.1225 -0.0449
  746TIP3    H223730   6.728   0.900  15.459 -0.2833  2.3745  1.4585
  747TIP3   OH223731   1.888   0.766  11.992 -0.2819 -0.0408  0.3020
  747TIP3    H123732   1.802   0.803  12.010 -0.2823 -0.2250  0.6750
  747TIP3    H223733   1.947   0.812  12.050 -0.1924 -0.2172  0.3495
  748TIP3   OH223734   0.212   2.401   3.391 -0.0382  0.4796  0.6368
  748TIP3    H123735   0.117   2.391   3.389  0.0959 -0.7507 -0.0085
  748TIP3    H223736   0.242   2.366   3.308  0.8775  2.1599  0.2301
  749TIP3   OH223737   5.453   2.291   0.689  0.3071  0.1896 -0.2439
  749TIP3    H123738   5.495   2.245   0.616  0.1112  0.9515 -0.8468
  749TIP3    H223739   5.360   2.269   0.682  0.1679  0.8920 -0.7094
  750TIP3   OH223740   1.242   0.391   0.549 -0.1878  0.0052  0.5949
  750TIP3    H123741   1.255   0.360   0.459  0.3853  0.8095  0.3941
  750TIP3    H223742   1.323   0.437   0.570 -0.7774  0.8091  1.1111
  751TIP3   OH223743   0.300   6.529   2.046  0.6328  0.3991  0.3538
  751TIP3    H123744   0.382   6.577   2.035  0.6731  0.2426 -0.0415
  751TIP3    H223745   0.235   6.582   2.000  0.5385  0.4568  0.5559
  752TIP3   OH223746   2.924   0.100   3.098 -0.1251  0.3103  0.0433
  752TIP3    H123747   2.850   0.154   3.073 -0.6260  0.1640  1.1510
  752TIP3    H223748   2.922   0.101   3.194  0.6044 -0.6460  0.0732
  753TIP3   OH223749   3.462   3.708   4.697 -0.7372 -1.0007 -0.1926
  753TIP3    H123750   3.391   3.658   4.738  0.2187 -0.7863  1.8004
  753TIP3    H223751   3.418   3.766   4.635 -2.2410 -1.4529  0.4254
  754TIP3   OH223752   5.025   2.825  12.416  0.0011  0.2911 -0.0455
  754TIP3    H123753   5.037   2.875  12.335  2.0409  0.8884  0.5955
  754TIP3    H223754   5.106   2.775  12.425  0.0937  0.7846  2.0181
  755TIP3   OH223755   0.584   1.016  12.891  0.4965 -0.9904 -0.0407
  755TIP3    H123756   0.648   1.071  12.937  0.4117 -0.5583 -0.4286
  755TIP3    H223757   0.632   0.937  12.868  1.8983  0.7026 -3.3096
  756TIP3   OH223758   5.789   2.062   2.044 -0.1934  0.3796  0.4088
  756TIP3    H123759   5.868   2.009   2.043  0.2209  1.0118 -1.4002
  756TIP3    H223760   5.778   2.091   1.953 -2.1661  0.7787  0.7547
  757TIP3   OH223761   2.593   3.330  11.059  0.4798 -0.2504  0.2074
  757TIP3    H123762   2.640   3.289  10.987 -0.7438  1.6007 -1.7081
  757TIP3    H223763   2.658   3.386  11.102  1.3134 -1.6723  0.8106
  758TIP3   OH223764   6.078   1.944   3.521 -0.2686 -0.0976  0.0104
  758TIP3    H123765   6.006   1.897   3.478 -0.6615 -0.3323  0.9134
  758TIP3    H223766   6.141   1.875   3.545 -0.4863 -0.0812  0.6416
  759TIP3   OH223767   6.651   4.921   5.242 -0.1060 -0.2332 -0.4771
  759TIP3    H123768   6.562   4.888   5.253  0.6383 -2.0625  0.3463
  759TIP3    H223769   6.687   4.925   5.330  0.5232  0.8210 -0.7720
  760TIP3   OH223770   4.506   4.715   1.859 -0.0705 -0.2207  0.1584
  760TIP3    H123771   4.507   4.734   1.953 -1.1112 -0.3063  0.1919
  760TIP3    H223772   4.474   4.795   1.819  1.1671  0.1032 -0.2035
  761TIP3   OH223773   4.820   2.472  10.968  0.2773  0.1017  0.6091
  761TIP3    H123774   4.876   2.444  11.040 -1.0744  1.6705  2.3189
  761TIP3    H223775   4.756   2.401  10.958  0.7697 -0.3453  0.6221
  762TIP3   OH223776   0.067   1.878  12.869  0.4835  0.4940  0.3026
  762TIP3    H123777   0.134   1.947  12.868  0.4517  0.5314  0.6788
  762TIP3    H223778  -0.015   1.925  12.854  0.5072  0.4816  0.1219
  763TIP3   OH223779   4.147   0.547  11.352  0.3090 -0.3707 -0.1680
  763TIP3    H123780   4.156   0.598  11.271  1.7045 -0.4720 -0.0934
  763TIP3    H223781   4.154   0.612  11.422  1.0398 -0.5315 -0.0912
  764TIP3   OH223782   4.135   6.760  14.606 -0.1075  0.0303  0.2238
  764TIP3    H123783   4.110   6.830  14.546  1.3809  1.1639  0.8903
  764TIP3    H223784   4.211   6.719  14.564 -0.2916 -0.4576  0.3688
  765TIP3   OH223785   5.043   5.229  15.781 -0.0424 -0.2093 -0.2638
  765TIP3    H123786   5.038   5.235  15.686 -1.1202  2.9266 -0.0866
  765TIP3    H223787   5.130   5.265  15.803 -1.7613  3.9988  0.1440
  766TIP3   OH223788   4.499   3.283  13.947  0.1843  0.7111 -0.8367
  766TIP3    H123789   4.492   3.378  13.953 -0.4387  0.6766 -0.9506
  766TIP3    H223790   4.433   3.258  13.882 -1.4226 -0.0184  1.0002
  767TIP3   OH223791   3.813   6.057   3.995 -0.2806 -0.6455 -0.0545
  767TIP3    H123792   3.879   6.022   4.055 -1.6031  0.9037  2.3921
  767TIP3    H223793   3.734   6.008   4.016 -0.3415 -1.2799 -1.7549
  768TIP3   OH223794   5.016   6.053   4.891  0.2217 -0.1917  0.1854
  768TIP3    H123795   4.990   6.078   4.802  2.3829 -0.5577 -0.5859
  768TIP3    H223796   4.972   6.116   4.948 -0.9985  0.1980 -1.1390
  769TIP3   OH223797   0.241   4.681   2.319 -0.1833 -0.1726  0.3791
  769TIP3    H123798   0.325   4.652   2.354  0.8749  1.4723 -0.7658
  769TIP3    H223799   0.221   4.618   2.249 -0.8561 -1.6790  1.8763
  770TIP3   OH223800   6.658   4.177   4.934  0.3872  0.2007  0.4406
  770TIP3    H123801   6.598   4.109   4.966  0.2630  0.4161  0.6681
  770TIP3    H223802   6.601   4.241   4.891  0.7370 -1.1042 -2.0618
  771TIP3   OH223803   6.366   2.481  16.823 -0.5957  0.0859  0.2740
  771TIP3    H123804   6.319   2.486  16.906  0.3090 -1.5137  0.9203
  771TIP3    H223805   6.299   2.457  16.759 -1.1528  0.5349  0.6851
  772TIP3   OH223806   4.665   6.163  16.127  0.0889 -0.3714  0.4556
  772TIP3    H123807   4.736   6.221  16.153 -0.6183 -0.1203  1.8547
  772TIP3    H223808   4.706   6.100  16.068  1.7498 -0.9849  2.2186
  773TIP3   OH223809   6.091   3.745  16.308 -0.5682 -0.3838  0.2131
  773TIP3    H123810   6.028   3.680  16.339 -0.3569 -0.7436 -0.1067
  773TIP3    H223811   6.144   3.766  16.385 -0.0992 -1.2108  0.1142
  774TIP3   OH223812   4.947   1.750   4.266 -0.7366 -0.9153  0.1006
  774TIP3    H123813   4.872   1.737   4.323  0.5934  0.4418  2.2121
  774TIP3    H223814   4.936   1.839   4.232  1.6525  0.6861  3.2017
  775TIP3   OH223815   2.761   5.058   2.629  0.3057  0.1392 -0.0410
  775TIP3    H123816   2.689   5.120   2.646 -2.1069 -2.7952  0.8397
  775TIP3    H223817   2.816   5.064   2.707 -0.3778  0.5450  0.4197
  776TIP3   OH223818   5.177   1.609  11.345  0.7829 -0.3870 -0.0930
  776TIP3    H123819   5.158   1.628  11.253  2.4167 -0.9793 -0.5627
  776TIP3    H223820   5.248   1.545  11.342  4.0378  2.9929  1.6128
  777TIP3   OH223821   5.557   4.557   1.481  0.6389 -0.3860  0.0521
  777TIP3    H123822   5.575   4.629   1.541  1.5739 -0.1211 -0.5321
  777TIP3    H223823   5.544   4.481   1.537 -0.8516  0.3382  0.6951
  778TIP3   OH223824   5.597   3.498   2.929  0.8840 -0.0319 -0.5243
  778TIP3    H123825   5.611   3.591   2.947 -0.8849 -0.3927  3.2497
  778TIP3    H223826   5.638   3.453   3.003 -2.4627 -1.9623  0.2860
  779TIP3   OH223827   2.150   0.404  16.400  0.1711 -0.7810 -0.6735
  779TIP3    H123828   2.204   0.366  16.470 -1.0443  0.0434  0.7445
  779TIP3    H223829   2.168   0.498  16.405 -0.1927 -0.6811 -1.2379
  780TIP3   OH223830   4.367   5.714   0.956 -0.2800  0.6407 -0.1213
  780TIP3    H123831   4.358   5.753   0.869  0.3414 -0.6927 -0.8034
  780TIP3    H223832   4.462   5.714   0.972 -0.2521 -0.8294 -0.2545
  781TIP3   OH223833   4.647   3.187   5.761 -0.0830 -0.1230  0.4196
  781TIP3    H123834   4.655   3.279   5.736  0.7028 -0.1814  0.4558
  781TIP3    H223835   4.571   3.185   5.820  1.1320  0.8188  2.0400
  782TIP3   OH223836   1.876   2.389  13.859  0.6058 -0.1762 -0.9621
  782TIP3    H123837   1.941   2.419  13.796 -0.4416  0.7341 -1.6415
  782TIP3    H223838   1.878   2.454  13.929  1.1116 -0.6744 -0.5161
  783TIP3   OH223839   2.144   4.045  12.775 -0.0619 -0.4413  0.6859
  783TIP3    H123840   2.156   3.965  12.723  2.2448  0.9531 -1.0455
  783TIP3    H223841   2.221   4.049  12.831  0.6200  1.3186 -0.3368
  784TIP3   OH223842   1.274   6.139  15.589  0.6750 -0.0258  0.7978
  784TIP3    H123843   1.351   6.113  15.538  1.3630  0.3170  1.6526
  784TIP3    H223844   1.225   6.058  15.603  0.0393 -0.0054 -1.1086
  785TIP3   OH223845   3.497   1.622   3.320  0.5533  0.4247  0.2397
  785TIP3    H123846   3.549   1.598   3.397 -0.0767 -1.6702  0.0446
  785TIP3    H223847   3.545   1.586   3.246 -0.6197 -0.6370 -0.0290
  786TIP3   OH223848   4.389   5.421   3.291 -0.1638  0.4053  0.4232
  786TIP3    H123849   4.327   5.478   3.337 -0.3064 -0.1426  0.9068
  786TIP3    H223850   4.408   5.351   3.353 -2.9110 -2.1781 -1.5266
  787TIP3   OH223851   5.299   5.583  14.256 -0.5414  0.0009 -0.2575
  787TIP3    H123852   5.251   5.505  14.229  0.5909 -0.8102  0.0337
  787TIP3    H223853   5.381   5.578  14.207 -0.8468  1.5151 -0.9716
  788TIP3   OH223854   5.445   4.839   5.948 -0.4222 -0.1853  0.5000
  788TIP3    H123855   5.509   4.837   6.019  0.5755 -1.0398 -0.4029
  788TIP3    H223856   5.491   4.881   5.875 -1.4856  0.8445  0.3947
  789TIP3   OH223857   2.805   4.668  14.612  0.2544  0.5564  0.8957
  789TIP3    H123858   2.815   4.678  14.707 -1.2011 -1.9510  1.3602
  789TIP3    H223859   2.889   4.634  14.583 -1.1526 -4.5130  2.2734
  790TIP3   OH223860   1.252   1.887   1.630 -0.3361 -0.7172 -0.1096
  790TIP3    H123861   1.303   1.915   1.705 -0.4315 -0.1786 -0.2431
  790TIP3    H223862   1.232   1.968   1.582 -1.1731 -0.9321 -0.1472
  791TIP3   OH223863   4.313   6.154   6.356 -0.2025  0.2321 -0.4888
  791TIP3    H123864   4.332   6.062   6.337 -1.4706  0.1323 -1.3174
  791TIP3    H223865   4.301   6.157   6.451 -0.6991 -0.5565 -0.5250
  792TIP3   OH223866   1.222   2.491  10.811 -0.6121 -0.6513  0.3411
  792TIP3    H123867   1.145   2.436  10.799  0.4853 -2.2034  0.1909
  792TIP3    H223868   1.254   2.469  10.899 -1.6077  1.6436  1.3217
  793TIP3   OH223869   3.957   1.112  12.779 -0.0233  0.4740 -0.1345
  793TIP3    H123870   3.892   1.183  12.783 -0.4513  0.0911 -0.2945
  793TIP3    H223871   3.930   1.052  12.849 -1.8998 -1.4389 -2.4097
  794TIP3   OH223872   2.727   5.313  14.255  0.5081 -0.5036 -0.2021
  794TIP3    H123873   2.704   5.406  14.250  1.0037 -0.2474  1.8781
  794TIP3    H223874   2.651   5.268  14.218 -0.5765  0.6393  0.5794
  795TIP3   OH223875   5.510   3.068  17.047  0.1696  0.3743  0.1679
  795TIP3    H123876   5.521   3.161  17.063  0.6685 -0.0534  2.4586
  795TIP3    H223877   5.425   3.047  17.086  0.3286 -0.2392  0.1889
  796TIP3   OH223878   5.401   4.757   5.256  0.3936 -0.2595 -0.3281
  796TIP3    H123879   5.458   4.823   5.296  2.5098 -1.9084 -0.4794
  796TIP3    H223880   5.409   4.772   5.162 -2.1164  1.6377 -0.2664
  797TIP3   OH223881   3.773   6.271   6.762 -0.0501  0.6475  0.0193
  797TIP3    H123882   3.824   6.319   6.698 -0.5898  1.7974  0.4494
  797TIP3    H223883   3.838   6.229   6.818  0.4592 -1.4248 -2.0051
  798TIP3   OH223884   3.274   6.449  17.214  0.0794  0.4105 -0.4253
  798TIP3    H123885   3.252   6.387  17.144  2.6386 -1.4791  0.3420
  798TIP3    H223886   3.199   6.447  17.273  0.5229 -2.8040  0.1019
  799TIP3   OH223887   0.924   1.361  12.066 -0.5606 -0.6110 -0.1039
  799TIP3    H123888   0.926   1.308  12.146 -1.4474 -0.7176 -0.1445
  799TIP3    H223889   0.831   1.371  12.047 -0.3361 -1.7022 -1.8686
  800TIP3   OH223890   1.707   6.695   6.807 -0.1353  0.1567 -0.2046
  800TIP3    H123891   1.801   6.686   6.797  0.0309  1.0692  0.4572
  800TIP3    H223892   1.687   6.653   6.891 -0.1547  0.9181  0.1776
  801TIP3   OH223893   3.588   1.943  14.753 -0.1615  0.2093  0.2590
  801TIP3    H123894   3.554   1.868  14.802 -0.8679  0.6276  0.4073
  801TIP3    H223895   3.659   1.977  14.807  0.6117 -0.7489 -0.1195
  802TIP3   OH223896   6.179   0.445  16.885 -0.1441 -0.2902 -0.8505
  802TIP3    H123897   6.262   0.472  16.846  0.8372 -0.6600  0.9215
  802TIP3    H223898   6.187   0.351  16.897 -0.7385 -0.2971 -0.4650
  803TIP3   OH223899   0.725   5.829   4.107 -0.2636 -0.3668  0.3299
  803TIP3    H123900   0.645   5.822   4.159  0.0916 -1.8731  0.7085
  803TIP3    H223901   0.788   5.872   4.166 -0.2541 -0.8609  0.6809
  804TIP3   OH223902   1.599   3.309  13.496 -0.4384  0.2285 -0.0124
  804TIP3    H123903   1.595   3.380  13.560 -2.7519  0.5173 -0.4598
  804TIP3    H223904   1.512   3.269  13.498 -0.0917 -0.6806 -1.9451
  805TIP3   OH223905   0.236   5.458   3.998 -0.2032 -0.0955 -0.2093
  805TIP3    H123906   0.297   5.510   4.052 -0.5333  0.4500 -0.3558
  805TIP3    H223907   0.153   5.504   4.005 -0.2643 -0.0429 -1.1507
  806TIP3   OH223908   6.264   0.864  16.356  0.0958  0.0530 -0.2160
  806TIP3    H123909   6.227   0.909  16.281 -0.2112 -0.2038 -0.2191
  806TIP3    H223910   6.192   0.813  16.392  0.3754 -0.2423 -0.0656
  807TIP3   OH223911   1.160   0.829  13.425  0.1332  0.6257 -0.1590
  807TIP3    H123912   1.097   0.901  13.431 -1.2172 -0.5395 -0.2132
  807TIP3    H223913   1.115   0.755  13.465  1.5332 -0.1852 -0.0685
  808TIP3   OH223914   5.717   0.948  11.991 -0.0457  0.2521 -0.0990
  808TIP3    H123915   5.695   0.973  11.902 -1.9561 -0.9245  0.0154
  808TIP3    H223916   5.752   0.859  11.982  0.5554  0.4487  0.2430
  809TIP3   OH223917   1.434   1.672  10.921  0.0273  0.3254  0.0414
  809TIP3    H123918   1.373   1.627  10.863 -0.0267  0.3680  0.0658
  809TIP3    H223919   1.515   1.678  10.870 -0.1660  0.7979 -0.2137
  810TIP3   OH223920   5.775   2.233   5.714 -0.2791 -0.5241  0.3888
  810TIP3    H123921   5.723   2.312   5.731  1.0342  0.0072  2.1444
  810TIP3    H223922   5.713   2.170   5.680 -1.4690  1.0921 -0.5363
  811TIP3   OH223923   5.879   0.351   5.754 -0.2179  0.7525 -0.2455
  811TIP3    H123924   5.831   0.358   5.837  0.7032 -1.0946  0.4569
  811TIP3    H223925   5.922   0.437   5.745 -2.8489  2.1013 -0.4276
  812TIP3   OH223926   4.957   0.674  12.814 -0.4271  0.3638  0.2681
  812TIP3    H123927   4.992   0.751  12.859 -1.0052  1.1065 -0.5595
  812TIP3    H223928   4.943   0.611  12.885 -1.1297  1.4489  1.1115
  813TIP3   OH223929   2.323   6.724   1.896 -0.2408 -0.0237 -0.2008
  813TIP3    H123930   2.385   6.651   1.892 -0.1455  0.0296  0.3281
  813TIP3    H223931   2.284   6.726   1.808  0.3611 -0.1796 -0.4794
  814TIP3   OH223932   1.748   6.669  13.085  0.8184  0.1861  0.2059
  814TIP3    H123933   1.683   6.672  13.015 -0.2656  1.5695  1.2593
  814TIP3    H223934   1.774   6.760  13.098  2.4335 -0.2758  0.3001
  815TIP3   OH223935   0.692   3.354   3.201  0.0857 -0.2411 -0.5744
  815TIP3    H123936   0.659   3.316   3.120  0.7946 -0.4135 -0.7862
  815TIP3    H223937   0.629   3.328   3.268 -1.7537  1.7972 -1.4525
  816TIP3   OH223938   5.936   5.880   0.205 -0.0022 -0.1337 -0.3642
  816TIP3    H123939   5.855   5.832   0.219 -0.8791  1.0394 -1.3239
  816TIP3    H223940   5.922   5.929   0.124  1.0838  1.2747  0.2708
  817TIP3   OH223941   3.896   1.193   0.480  0.1997  0.0843 -0.0297
  817TIP3    H123942   3.831   1.256   0.450 -0.3085 -1.1582 -1.5783
  817TIP3    H223943   3.886   1.118   0.421  2.7354 -0.2954 -0.0338
  818TIP3   OH223944   3.041   5.426  12.101  0.2578 -0.0531  0.2773
  818TIP3    H123945   3.028   5.359  12.167  0.3127  0.6844  1.0458
  818TIP3    H223946   2.996   5.392  12.023 -1.7228  0.0506  1.3301
  819TIP3   OH223947   1.031   4.086  16.180 -0.4257  0.2724  0.0215
  819TIP3    H123948   1.117   4.092  16.221  0.0669 -1.2617 -0.7225
  819TIP3    H223949   0.974   4.053  16.249 -0.2795  0.7069  0.3485
  820TIP3   OH223950   1.549   6.225  16.603  0.7178 -0.6112 -0.3112
  820TIP3    H123951   1.632   6.234  16.650  1.0248 -2.0658 -0.5637
  820TIP3    H223952   1.571   6.239  16.511  0.2082  1.6868 -0.1140
  821TIP3   OH223953   3.693   6.338   1.639  0.4357 -0.1704  0.4485
  821TIP3    H123954   3.667   6.314   1.728 -0.3994 -2.2346 -0.3250
  821TIP3    H223955   3.612   6.367   1.598  0.4299 -1.1246 -0.2309
  822TIP3   OH223956   4.530   4.014   5.706  0.5014 -0.1050 -0.3682
  822TIP3    H123957   4.455   4.062   5.742 -0.6486 -2.7832  0.9847
  822TIP3    H223958   4.605   4.047   5.755 -0.5353 -0.9893  1.8952
  823TIP3   OH223959   2.770   3.660   2.861  0.9367  0.1573 -0.6175
  823TIP3    H123960   2.683   3.699   2.848  0.7390 -0.3342 -0.7744
  823TIP3    H223961   2.777   3.648   2.956  0.7813  0.0866 -0.6139
  824TIP3   OH223962   0.138   0.035  13.346 -0.4486  0.2847  0.1651
  824TIP3    H123963   0.074   0.053  13.415 -0.9575 -0.6001 -0.0678
  824TIP3    H223964   0.209   0.096  13.364 -0.6557  0.2020  1.3583
  825TIP3   OH223965   3.438   3.349   0.793  0.3100  0.3963 -0.5556
  825TIP3    H123966   3.496   3.305   0.855 -0.6662  0.6405  0.5571
  825TIP3    H223967   3.480   3.433   0.776  0.9296  0.0484 -0.7717
  826TIP3   OH223968   3.794   3.783  11.792 -0.4486 -0.4677 -0.4654
  826TIP3    H123969   3.746   3.763  11.872  0.1413 -0.9542 -0.2267
  826TIP3    H223970   3.849   3.859  11.816 -0.4312 -0.4787 -0.4699
  827TIP3   OH223971   5.205   2.971   2.207 -0.4079 -0.0172  0.0674
  827TIP3    H123972   5.275   3.034   2.192  0.0988 -0.8141 -1.0257
  827TIP3    H223973   5.125   3.016   2.178 -0.1081  0.2625 -0.3232
  828TIP3   OH223974   6.622   2.389   5.326 -0.2342 -0.3216 -0.1740
  828TIP3    H123975   6.593   2.316   5.272  0.0959 -0.7986  0.2837
  828TIP3    H223976   6.630   2.462   5.266  0.2423 -0.8776 -0.7858
  829TIP3   OH223977   2.244   3.331   4.993 -0.1096 -0.3443  0.6158
  829TIP3    H123978   2.151   3.332   4.971  0.3039  0.2029 -1.1350
  829TIP3    H223979   2.278   3.250   4.955  0.4944  0.3181 -0.2643
  830TIP3   OH223980   4.714   0.302   6.496 -0.0332  0.2172  0.7085
  830TIP3    H123981   4.803   0.321   6.526 -0.5493  1.4469  1.4978
  830TIP3    H223982   4.670   0.267   6.574  0.0541 -1.4336  0.0431
  831TIP3   OH223983   2.092   2.780  12.444  0.6378  1.0742  0.1019
  831TIP3    H123984   2.057   2.850  12.388 -0.6732 -0.4100 -0.9894
  831TIP3    H223985   2.014   2.735  12.476  1.5085 -1.6489 -1.4993
  832TIP3   OH223986   0.736   6.588  16.112  0.0203  1.1528  0.2102
  832TIP3    H123987   0.817   6.585  16.162  0.5503 -1.8957 -0.7252
  832TIP3    H223988   0.756   6.543  16.030 -2.9091 -0.8682  0.4924
  833TIP3   OH223989   4.096   6.753  16.834  0.4068 -0.8161  0.3074
  833TIP3    H123990   4.155   6.799  16.895 -0.5967 -0.0522  0.7224
  833TIP3    H223991   4.123   6.784  16.747  1.4136 -1.4060  0.4060
  834TIP3   OH223992   3.738   4.653  16.348 -0.1900 -0.0043 -0.4447
  834TIP3    H123993   3.810   4.643  16.410  0.0263  1.0298 -0.5203
  834TIP3    H223994   3.741   4.573  16.295  0.7611 -0.0710 -0.2969
  835TIP3   OH223995   0.297   1.968   5.246 -0.3339 -0.2483  0.1872
  835TIP3    H123996   0.226   2.011   5.198 -0.8010 -0.1168  0.9961
  835TIP3    H223997   0.306   1.882   5.203  0.4854  0.5586 -1.3165
  836TIP3   OH223998   3.809   0.364   1.734  0.4433 -0.3301  0.4166
  836TIP3    H123999   3.718   0.342   1.716  0.6265  0.2958 -1.3408
  836TIP3    H224000   3.804   0.432   1.802 -0.4297  0.2151 -0.1839
  837TIP3   OH224001   5.979   4.765  12.615 -0.5269  0.3471 -0.1618
  837TIP3    H124002   5.993   4.705  12.541 -1.3469 -1.4647  1.0986
  837TIP3    H224003   6.065   4.774  12.655 -0.5178 -0.5167  0.0234
  838TIP3   OH224004   2.858   3.533  12.686  0.0571 -0.4791  0.0635
  838TIP3    H124005   2.869   3.565  12.775 -1.2343 -0.6473  0.2936
  838TIP3    H224006   2.765   3.546  12.667 -0.0672 -2.1812 -0.5766
  839TIP3   OH224007   5.989   6.751   3.101  0.4702  0.6928  0.1240
  839TIP3    H124008   5.894   6.749   3.091  0.3745  1.4868  0.7748
  839TIP3    H224009   6.023   6.760   3.012 -0.0845  1.0658 -0.0501
  840TIP3   OH224010   2.962   2.330   3.844  0.3534 -0.0726 -0.3707
  840TIP3    H124011   2.980   2.340   3.937 -0.9950  1.4248 -0.2579
  840TIP3    H224012   2.938   2.238   3.834 -0.0988 -0.0942  0.8655
  841TIP3   OH224013   1.007   5.209   0.183 -0.3000 -0.1157 -0.3787
  841TIP3    H124014   1.038   5.202   0.093 -1.5238 -0.6083 -0.7758
  841TIP3    H224015   0.915   5.182   0.179 -0.0987 -1.1210  1.1729
  842TIP3   OH224016   4.410   6.739   3.750 -0.2505  0.1579  0.5279
  842TIP3    H124017   4.344   6.680   3.787  0.8327 -0.8558  0.8962
  842TIP3    H224018   4.430   6.702   3.664  0.8946 -0.3916  1.0192
  843TIP3   OH224019   1.081   2.928   3.764  0.1191 -0.1235 -0.0184
  843TIP3    H124020   1.062   2.956   3.853  1.1751  0.8075 -0.0772
  843TIP3    H224021   1.172   2.953   3.749 -0.4198  0.9253 -1.7946
  844TIP3   OH224022   5.701   1.561  16.462  0.6902  0.2682 -0.2659
  844TIP3    H124023   5.760   1.486  16.471  0.3961 -0.1505 -1.6993
  844TIP3    H224024   5.614   1.527  16.483  0.9235  0.8502  1.7038
  845TIP3   OH224025   6.018   4.234  11.845  0.8598 -1.1981  0.4374
  845TIP3    H124026   6.044   4.317  11.806  0.0447 -0.6292  1.0980
  845TIP3    H224027   5.947   4.202  11.788  0.1267 -0.6915  1.0558
  846TIP3   OH224028   6.618   2.472  11.625  0.6465  0.4636  0.3476
  846TIP3    H124029   6.670   2.512  11.556  0.0509 -0.6097 -0.7541
  846TIP3    H224030   6.564   2.543  11.660  1.0987  1.0487 -0.1570
  847TIP3   OH224031   1.634   3.734  13.203 -0.6032 -0.2718 -0.8529
  847TIP3    H124032   1.621   3.828  13.192  0.8550  0.0684  0.1619
  847TIP3    H224033   1.624   3.719  13.297  3.2926 -0.4138 -0.3718
  848TIP3   OH224034   2.651   5.803  12.170 -0.6807  0.6004 -0.3743
  848TIP3    H124035   2.695   5.721  12.191 -3.0205 -0.7127 -0.3604
  848TIP3    H224036   2.642   5.848  12.254  0.5105  0.8465 -0.3680
  849TIP3   OH224037   5.507   3.630  15.464  0.3849 -0.1535  0.1430
  849TIP3    H124038   5.592   3.620  15.506 -0.5100 -0.5428  1.9277
  849TIP3    H224039   5.448   3.574  15.516 -0.5899 -1.3610 -2.1943
  850TIP3   OH224040   5.873   1.514   1.443  0.0534 -0.1431  0.5359
  850TIP3    H124041   5.901   1.529   1.353 -0.0180 -0.1698  0.5094
  850TIP3    H224042   5.818   1.589   1.465 -0.4527 -0.4570  0.3418
  851TIP3   OH224043   5.669   3.453   3.202  0.3834  0.2681 -0.1232
  851TIP3    H124044   5.734   3.499   3.255 -0.7539  0.3929  1.1852
  851TIP3    H224045   5.585   3.491   3.228 -0.6629 -2.9225  1.4211
  852TIP3   OH224046   5.818   3.833   1.528  0.9611 -0.8084 -0.2421
  852TIP3    H124047   5.840   3.740   1.526 -0.1589 -1.0623 -0.8688
  852TIP3    H224048   5.890   3.873   1.577  2.0440 -1.8286 -0.9742
  853TIP3   OH224049   3.504   1.721   5.207 -0.3721  0.2340  0.0876
  853TIP3    H124050   3.580   1.721   5.265 -1.3342 -1.4222  1.3612
  853TIP3    H224051   3.448   1.650   5.239 -1.8506  0.5759 -1.6386
  854TIP3   OH224052   4.012   1.706   5.517 -0.3338  0.0721 -0.2315
  854TIP3    H124053   3.990   1.628   5.467  1.0832  0.0756 -0.8769
  854TIP3    H224054   4.042   1.673   5.602 -0.2533 -0.0471 -0.3079
  855TIP3   OH224055   2.748   4.096  10.860  0.4535  0.7356  0.7198
  855TIP3    H124056   2.721   4.117  10.771  2.1151 -0.8170 -0.1823
  855TIP3    H224057   2.668   4.069  10.904 -0.0472 -0.4940 -0.9152
  856TIP3   OH224058   0.210   2.336  10.696  0.0142  0.3286 -0.3593
  856TIP3    H124059   0.293   2.346  10.649 -0.6371 -1.7929 -2.0651
  856TIP3    H224060   0.223   2.256  10.747 -0.3043  1.0606  0.8579
  857TIP3   OH224061   3.964   4.799   4.404  0.1481 -0.9982 -0.1853
  857TIP3    H124062   3.960   4.869   4.469 -2.1426  0.3217 -1.6996
  857TIP3    H224063   4.045   4.815   4.355  0.7047 -0.6773  0.8313
  858TIP3   OH224064   4.812   0.164   3.325  0.0458  0.1700  0.4583
  858TIP3    H124065   4.744   0.104   3.294 -0.9006  0.5301  1.8087
  858TIP3    H224066   4.871   0.108   3.375  1.2749 -0.3099 -1.4389
  859TIP3   OH224067   4.992   3.622  15.764 -0.1815  0.1827  0.1565
  859TIP3    H124068   4.915   3.608  15.820  0.1929  0.6707  0.7974
  859TIP3    H224069   5.061   3.648  15.824  0.6893 -0.9484 -0.3284
  860TIP3   OH224070   4.700   6.714   0.384 -1.1134 -0.0730  0.0926
  860TIP3    H124071   4.711   6.785   0.447 -1.4759 -0.0465  0.1255
  860TIP3    H224072   4.788   6.698   0.351 -0.8640 -0.3485  0.8895
  861TIP3   OH224073   4.566   1.968  15.257 -0.1109 -0.0458  0.0786
  861TIP3    H124074   4.599   2.025  15.188  1.1117 -1.5624 -0.6263
  861TIP3    H224075   4.578   2.018  15.338  2.3523  0.1520 -0.3592
  862TIP3   OH224076   5.534   0.663   5.464  0.4433 -0.2795 -0.1269
  862TIP3    H124077   5.536   0.589   5.526 -0.4809 -0.0667  0.1531
  862TIP3    H224078   5.475   0.634   5.395 -0.4265  0.4521  0.3047
  863TIP3   OH224079   5.162   6.524  16.160  0.2189  0.4034 -0.0167
  863TIP3    H124080   5.204   6.473  16.229 -0.5655  0.8749  0.8209
  863TIP3    H224081   5.204   6.610  16.165 -0.3508  0.6595  0.3573
  864TIP3   OH224082   1.676   5.689  17.192  0.2864  0.0542 -0.4587
  864TIP3    H124083   1.672   5.707  17.285 -0.3026 -1.0877 -0.2570
  864TIP3    H224084   1.587   5.707  17.160  0.7744  1.5398 -1.0074
  865TIP3   OH224085   2.894   2.785  15.749  0.3258 -0.3614  0.1849
  865TIP3    H124086   2.929   2.697  15.762  1.5041  0.0714  0.0205
  865TIP3    H224087   2.812   2.787  15.798  0.6242 -1.3418  0.7144
  866TIP3   OH224088   5.757   0.682  14.188  0.0610 -0.0737  0.2286
  866TIP3    H124089   5.683   0.645  14.140 -0.2181 -1.1453  1.4385
  866TIP3    H224090   5.747   0.647  14.277  1.6352  0.3232  0.5700
  867TIP3   OH224091   0.270   4.420   3.433 -0.2650  0.0219 -0.6902
  867TIP3    H124092   0.185   4.382   3.454  0.2954 -0.5968  0.5628
  867TIP3    H224093   0.250   4.496   3.378 -1.7073  0.6968  0.7343
  868TIP3   OH224094   3.753   2.295   3.544  0.1273  0.4510  0.0083
  868TIP3    H124095   3.838   2.332   3.567 -0.5044  1.2137  1.1339
  868TIP3    H224096   3.740   2.319   3.452  1.0047  0.5519 -0.0948
  869TIP3   OH224097   4.650   0.486   1.568 -0.2114 -0.2019 -0.3870
  869TIP3    H124098   4.622   0.399   1.595 -0.8242  0.0051 -0.3255
  869TIP3    H224099   4.624   0.543   1.641  0.5481 -0.0255 -0.2483
  870TIP3   OH224100   2.692   3.908   2.685 -0.3401  0.6861 -0.0604
  870TIP3    H124101   2.758   3.942   2.624  0.0105  2.0488  1.0612
  870TIP3    H224102   2.740   3.888   2.765 -1.1753  1.1046  0.5559
  871TIP3   OH224103   6.178   0.387  14.036  0.0197 -0.1205  0.3813
  871TIP3    H124104   6.086   0.407  14.055 -0.1769 -1.0543  0.4423
  871TIP3    H224105   6.224   0.468  14.055 -0.7205  0.1968  0.8743
  872TIP3   OH224106   3.076   1.178  16.639 -0.4261 -0.2049  0.2904
  872TIP3    H124107   3.068   1.191  16.734  0.3059  3.1520 -0.0507
  872TIP3    H224108   3.161   1.133  16.629  0.8121  1.8674  1.0883
  873TIP3   OH224109   2.815   1.468  14.999  0.6583 -0.2689 -0.1465
  873TIP3    H124110   2.805   1.379  15.034  0.2073 -0.2212 -0.1592
  873TIP3    H224111   2.731   1.511  15.016  1.2030  0.4609  0.7332
  874TIP3   OH224112   5.206   3.798   1.620 -0.3823 -0.0097  0.0466
  874TIP3    H124113   5.245   3.884   1.601  1.0682 -0.4420  0.9909
  874TIP3    H224114   5.135   3.789   1.556  1.5755  0.4525 -2.2575
  875TIP3   OH224115   5.285   3.315   3.514  0.2794  0.3114  0.2620
  875TIP3    H124116   5.237   3.362   3.446 -1.0215 -1.4616 -0.0684
  875TIP3    H224117   5.358   3.274   3.469  0.7442  1.0535  0.3419
  876TIP3   OH224118   5.202   1.687  14.227 -0.1782  0.0181 -0.2120
  876TIP3    H124119   5.262   1.743  14.177  0.6957 -1.2778 -0.6714
  876TIP3    H224120   5.240   1.599  14.218 -1.2448 -0.5645  0.8986
  877TIP3   OH224121   0.106   0.851   3.866 -0.0408 -0.7814 -0.5716
  877TIP3    H124122   0.037   0.793   3.899 -1.7367  0.7830 -1.2485
  877TIP3    H224123   0.072   0.939   3.881  2.3266  0.0458  0.0868
  878TIP3   OH224124   1.166   3.772  16.368  0.4892  0.1912  0.3811
  878TIP3    H124125   1.180   3.731  16.282 -0.1394 -0.5472  0.6224
  878TIP3    H224126   1.092   3.831  16.353  0.2925 -0.0379  0.4462
  879TIP3   OH224127   0.368   4.993   3.444 -0.1039 -0.4666 -0.3602
  879TIP3    H124128   0.445   5.020   3.393 -0.9839  0.2478 -1.3198
  879TIP3    H224129   0.395   5.006   3.535  0.5466  0.7923 -0.7229
  880TIP3   OH224130   6.341   1.086   1.657  0.4390  0.2716 -0.0400
  880TIP3    H124131   6.268   1.125   1.704  0.3914 -0.6745  0.6968
  880TIP3    H224132   6.362   1.148   1.587 -1.6392  0.1360 -0.7933
  881TIP3   OH224133   5.876   5.029   5.287  0.6287  0.3213  0.2006
  881TIP3    H124134   5.861   5.032   5.382 -0.5706 -0.3185  0.0343
  881TIP3    H224135   5.844   5.113   5.254 -0.4260 -0.1049  0.1498
  882TIP3   OH224136   5.134   5.626  11.224  0.3809  0.0841  0.0521
  882TIP3    H124137   5.195   5.677  11.277  0.2159 -0.1190  0.4390
  882TIP3    H224138   5.176   5.620  11.138  0.5839  0.5321  0.1168
  883TIP3   OH224139   1.873   4.847   1.074 -0.0486 -0.2155  0.7547
  883TIP3    H124140   1.801   4.818   1.130  0.6666 -1.0882  1.2266
  883TIP3    H224141   1.949   4.846   1.131  0.3271  0.8612  0.2981
  884TIP3   OH224142   4.063   5.075  12.345 -0.3080 -0.1054  0.3230
  884TIP3    H124143   4.112   5.049  12.423 -1.1030  0.1754  0.9215
  884TIP3    H224144   4.088   5.011  12.279 -0.5377 -1.0615  1.1461
  885TIP3   OH224145   0.526   5.752  14.344  0.0766 -0.1335 -0.0907
  885TIP3    H124146   0.538   5.657  14.349  0.4768 -0.0311  1.0624
  885TIP3    H224147   0.580   5.779  14.271 -0.9828 -0.9421 -1.1963
  886TIP3   OH224148   6.414   4.057  15.867  0.3685 -0.0485  0.1342
  886TIP3    H124149   6.417   4.012  15.952  0.4448  0.6400  0.4966
  886TIP3    H224150   6.432   3.988  15.803  0.6899 -0.5002  0.7023
  887TIP3   OH224151   2.339   3.431   2.230  0.4858 -0.0100  0.3157
  887TIP3    H124152   2.249   3.441   2.259  0.2046 -1.8665  0.1362
  887TIP3    H224153   2.333   3.415   2.136  1.1606  2.2523 -0.1288
  888TIP3   OH224154   2.793   4.083   2.425  0.5645  0.3891  0.2138
  888TIP3    H124155   2.853   4.036   2.483  1.0467  1.2350  0.4102
  888TIP3    H224156   2.849   4.117   2.355  0.1594  0.3360 -0.1412
  889TIP3   OH224157   5.072   4.758   3.762 -0.2080  0.4278 -0.1395
  889TIP3    H124158   5.145   4.734   3.705  0.6848  1.7837  0.4254
  889TIP3    H224159   5.042   4.674   3.798 -1.0361 -0.5007 -2.8518
  890TIP3   OH224160   5.495   6.795  11.415  0.2618 -0.3494  0.3159
  890TIP3    H124161   5.472   6.884  11.443  0.3909 -0.4529  0.7395
  890TIP3    H224162   5.582   6.804  11.376  1.2335 -0.6855  2.3594
  891TIP3   OH224163   2.893   3.072  15.246 -0.0306 -0.0215  0.0105
  891TIP3    H124164   2.847   2.999  15.288  1.3203 -0.7050  0.3279
  891TIP3    H224165   2.980   3.071  15.285  0.2299  1.3235 -0.5084
  892TIP3   OH224166   6.465   2.407  16.040  0.2952 -0.0258 -0.5280
  892TIP3    H124167   6.371   2.403  16.058  0.2261 -1.0037 -1.0462
  892TIP3    H224168   6.471   2.449  15.954  0.3352  0.1089 -0.4578
  893TIP3   OH224169   5.352   0.528  15.691  0.0191  0.0521 -0.1157
  893TIP3    H124170   5.414   0.493  15.754  0.4306  0.4630 -0.2820
  893TIP3    H224171   5.398   0.524  15.607 -0.6094 -0.7056 -0.4238
  894TIP3   OH224172   5.663   0.625   2.698  0.2015 -0.4540  0.1054
  894TIP3    H124173   5.725   0.695   2.679  0.6901 -0.9500 -0.1701
  894TIP3    H224174   5.593   0.667   2.748 -0.3200  0.5606 -1.4313
  895TIP3   OH224175   5.636   5.165  11.318  0.2059 -0.1684 -0.3629
  895TIP3    H124176   5.682   5.237  11.360  0.8633 -0.8157  0.0466
  895TIP3    H224177   5.546   5.172  11.349 -0.1585  1.5265 -1.7185
  896TIP3   OH224178   2.110   3.402   5.741 -0.2036  0.1226  0.2745
  896TIP3    H124179   2.042   3.467   5.752  0.3178  0.8631 -0.8660
  896TIP3    H224180   2.102   3.372   5.651  2.0827  1.4939 -0.4208
  897TIP3   OH224181   2.553   1.283  13.649  0.2791  0.3989 -0.2662
  897TIP3    H124182   2.539   1.359  13.593 -0.5252  0.1852 -0.3690
  897TIP3    H224183   2.640   1.251  13.625  0.3941  0.9561 -0.6104
  898TIP3   OH224184   3.822   6.603  14.266  0.3341 -0.1497 -0.6343
  898TIP3    H124185   3.878   6.557  14.329  0.0050 -0.4298 -0.5439
  898TIP3    H224186   3.767   6.535  14.228  0.9586 -0.0729 -1.6862
  899TIP3   OH224187   1.092   0.807   4.551 -0.1802 -0.3037 -0.1815
  899TIP3    H124188   1.081   0.751   4.473 -1.6351  0.3492 -0.4509
  899TIP3    H224189   1.060   0.753   4.623 -2.6086  0.5438 -0.5843
  900TIP3   OH224190   5.087   4.965   5.072  0.3224 -0.2671  0.0244
  900TIP3    H124191   5.062   4.932   4.986 -2.5344 -0.4254  0.8473
  900TIP3    H224192   5.058   4.897   5.133  2.0010  0.0006  1.1370
  901TIP3   OH224193   5.145   5.235   5.373 -0.1807  0.1305  0.5357
  901TIP3    H124194   5.095   5.153   5.374  0.0637 -0.0300 -0.2081
  901TIP3    H224195   5.169   5.248   5.282 -0.7043  1.3283  0.5491
  902TIP3   OH224196   6.438   5.605   0.627 -0.3542 -0.0390  0.6489
  902TIP3    H124197   6.461   5.687   0.672 -1.1905  0.1265  0.7838
  902TIP3    H224198   6.472   5.615   0.539 -2.6927  1.5373 -0.1254
  903TIP3   OH224199   3.911   4.910   1.255  0.2393  0.2691 -0.2503
  903TIP3    H124200   3.835   4.951   1.296  0.4780  1.1133 -0.6320
  903TIP3    H224201   3.881   4.889   1.166  0.2752  0.0788 -0.2170
  904TIP3   OH224202   2.406   6.648  12.309  0.0545  0.3465  0.2491
  904TIP3    H124203   2.459   6.682  12.380 -1.1312  0.3634  1.1518
  904TIP3    H224204   2.429   6.555  12.304  2.1582  0.9070 -1.1967
  905TIP3   OH224205   0.269   5.853  13.524  0.3037 -0.6312 -0.2262
  905TIP3    H124206   0.219   5.799  13.463  2.3773 -0.2733 -2.3173
  905TIP3    H224207   0.237   5.942  13.509 -0.8685 -0.8343  0.9557
  906TIP3   OH224208   1.212   2.847  13.642  0.3312  0.0288 -0.0919
  906TIP3    H124209   1.151   2.857  13.715  0.7292 -0.7458  0.3351
  906TIP3    H224210   1.169   2.894  13.570 -0.5622 -0.1307  0.3322
  907TIP3   OH224211   1.150   5.604  15.544  0.5088  0.7168  0.1825
  907TIP3    H124212   1.197   5.650  15.475  3.5010  0.0510  1.6951
  907TIP3    H224213   1.063   5.589  15.508  2.1141  0.0066 -3.6235
  908TIP3   OH224214   4.061   3.204  10.511  0.5147  0.3359 -0.5443
  908TIP3    H124215   4.121   3.221  10.437  2.7343  1.3945  1.4323
  908TIP3    H224216   4.031   3.290  10.538  0.4468  0.0316  0.3674
  909TIP3   OH224217   4.428   1.568   5.289  0.8339 -0.0984 -0.1060
  909TIP3    H124218   4.361   1.514   5.329  0.5134 -0.8634 -1.6532
  909TIP3    H224219   4.508   1.548   5.339  0.6103 -1.5990 -0.3330
  910TIP3   OH224220   0.047   6.028  13.310  0.3255 -0.6742 -0.0122
  910TIP3    H124221  -0.009   6.073  13.373 -0.3801 -0.6546 -0.6498
  910TIP3    H224222   0.080   6.098  13.254 -0.5531 -0.9109 -0.8355
  911TIP3   OH224223   1.641   0.687   1.400 -0.2385  0.2375 -0.0662
  911TIP3    H124224   1.709   0.637   1.354  0.7672  0.8204  0.7718
  911TIP3    H224225   1.689   0.755   1.446 -1.5857  1.8396 -0.9941
  912TIP3   OH224226   3.934   0.444  12.832  0.1923  0.3360 -0.5842
  912TIP3    H124227   3.882   0.367  12.809  0.3428  0.0563 -0.0062
  912TIP3    H224228   3.872   0.517  12.833 -0.8146 -0.4558  2.9624
  913TIP3   OH224229   0.844   3.036   3.105 -0.2483 -0.0942  0.5000
  913TIP3    H124230   0.782   2.977   3.148 -0.4989  0.8762  1.4861
  913TIP3    H224231   0.790   3.095   3.053  0.0222 -0.9191 -0.7666
  914TIP3   OH224232   0.252   5.875   3.394  0.0161 -0.3706 -0.0399
  914TIP3    H124233   0.163   5.910   3.390  0.7232  1.3304 -1.3477
  914TIP3    H224234   0.258   5.816   3.319  0.3729  0.4754 -0.6870
  915TIP3   OH224235   4.634   0.016   1.173  0.0648 -0.3102 -0.0377
  915TIP3    H124236   4.619  -0.073   1.205 -0.4526 -0.0941  0.3198
  915TIP3    H224237   4.721   0.013   1.134 -0.1360 -1.0902 -0.4293
  916TIP3   OH224238   3.377   1.962   5.195 -0.0884  0.7061 -0.3848
  916TIP3    H124239   3.420   1.877   5.195 -0.4712  0.5059 -1.5723
  916TIP3    H224240   3.366   1.983   5.288  0.8375 -0.1078 -0.0778
  917TIP3   OH224241   2.904   4.238   3.651 -0.0875  0.4453  0.1688
  917TIP3    H124242   2.977   4.286   3.613 -0.9294  1.1424 -0.5994
  917TIP3    H224243   2.860   4.199   3.576 -0.1233 -0.5228  0.6841
  918TIP3   OH224244   3.798   3.737   2.650 -0.9025 -0.0226 -0.1813
  918TIP3    H124245   3.814   3.806   2.715 -0.1239 -0.7416  0.4208
  918TIP3    H224246   3.704   3.721   2.655 -0.5448 -1.6392  2.4459
  919TIP3   OH224247   5.220   0.972  15.115  0.1228 -0.6282  0.1428
  919TIP3    H124248   5.212   1.046  15.176 -0.8325  0.3420 -1.1324
  919TIP3    H224249   5.314   0.951  15.116  0.0454 -0.9659  2.3138
  920TIP3   OH224250   6.064   4.998   3.792  0.2149  0.4623 -0.5075
  920TIP3    H124251   6.078   4.920   3.846 -0.5907 -0.7070 -1.9644
  920TIP3    H224252   6.103   4.977   3.708 -1.3415  1.0526 -1.3878
  921TIP3   OH224253   4.258   3.753  13.852  0.3400  0.1238 -0.2802
  921TIP3    H124254   4.227   3.805  13.778  0.4310  0.6424  0.0417
  921TIP3    H224255   4.336   3.801  13.883  0.1725  0.0253  0.2836
  922TIP3   OH224256   4.621   4.550  15.123 -0.4667  0.2687 -0.6124
  922TIP3    H124257   4.684   4.614  15.156 -0.1150  0.6602 -2.0093
  922TIP3    H224258   4.674   4.489  15.072 -0.8476 -0.9705  0.4301
  923TIP3   OH224259   5.895   1.615  15.066  0.3584 -0.7589 -0.0303
  923TIP3    H124260   5.938   1.560  15.131 -1.8478 -0.5357  1.6889
  923TIP3    H224261   5.833   1.557  15.022 -0.5782 -0.1215  0.4333
  924TIP3   OH224262   5.256   4.438   0.209  0.5576  0.2884  0.2854
  924TIP3    H124263   5.329   4.492   0.242 -0.4388 -0.1069  3.2792
  924TIP3    H224264   5.181   4.498   0.208 -0.4757 -0.9009  3.2941
  925TIP3   OH224265   0.519   3.032   1.565  0.7916  0.3962 -0.0110
  925TIP3    H124266   0.552   3.032   1.654 -0.0739  0.6903  0.3154
  925TIP3    H224267   0.571   2.965   1.520  0.8550 -0.1377  0.8460
  926TIP3   OH224268   0.940   4.183  12.637  0.9474 -0.5235  0.1268
  926TIP3    H124269   0.952   4.109  12.578 -0.4998 -0.6397 -0.0564
  926TIP3    H224270   0.987   4.255  12.596  0.7924 -0.8645 -0.6637
  927TIP3   OH224271   1.338   0.514   2.658  0.1706  0.5564 -0.4746
  927TIP3    H124272   1.355   0.573   2.732 -1.4671  1.8388 -1.0994
  927TIP3    H224273   1.342   0.426   2.696  3.8316  0.9301  0.2414
  928TIP3   OH224274   0.529   3.204  15.457 -0.5190  0.2764 -0.0598
  928TIP3    H124275   0.505   3.201  15.364 -0.0944 -0.1583 -0.1579
  928TIP3    H224276   0.609   3.150  15.463  0.5689  1.8824  0.2081
  929TIP3   OH224277   4.029   6.547  11.368  0.7600  0.0703 -0.2808
  929TIP3    H124278   3.999   6.538  11.277 -1.3114 -1.4989  0.5145
  929TIP3    H224279   4.019   6.460  11.405  0.0921  1.0500  1.8996
  930TIP3   OH224280   1.714   3.736  15.817  0.2254  0.2013  0.0302
  930TIP3    H124281   1.726   3.813  15.873 -0.4809  0.5437 -0.2841
  930TIP3    H224282   1.778   3.747  15.747  1.8593 -0.7667  1.3176
  931TIP3   OH224283   3.484   3.892   0.481  0.1150 -0.3108 -0.4259
  931TIP3    H124284   3.407   3.836   0.479  0.4459 -0.7502 -1.0218
  931TIP3    H224285   3.482   3.940   0.399 -0.3876  0.8636  0.2653
  932TIP3   OH224286   6.253   1.093   6.529 -0.1196 -0.3687  0.2453
  932TIP3    H124287   6.332   1.121   6.575 -2.0037  1.1756  2.6627
  932TIP3    H224288   6.207   1.174   6.508 -1.2152 -1.2538 -0.8531
  933TIP3   OH224289   0.174   5.655  15.542  0.0085  0.0015  0.7233
  933TIP3    H124290   0.138   5.672  15.455 -0.4585 -0.5838  0.7973
  933TIP3    H224291   0.259   5.698  15.542 -0.0753  0.1720  0.0458
  934TIP3   OH224292   6.443   5.864  14.629 -0.6769  0.2109  0.4055
  934TIP3    H124293   6.471   5.794  14.688 -0.1611  0.0767  0.0121
  934TIP3    H224294   6.510   5.931  14.639 -0.4892  0.1129 -0.1514
  935TIP3   OH224295   3.910   2.050  12.136 -0.1582  0.3163 -0.3544
  935TIP3    H124296   3.935   2.137  12.168 -0.7218 -0.3275  1.9882
  935TIP3    H224297   3.859   2.067  12.057  0.1891  2.0892 -0.2106
  936TIP3   OH224298   2.282   6.425   0.506  0.5559 -0.0819 -0.0903
  936TIP3    H124299   2.229   6.371   0.447 -2.0136  0.0693  1.9725
  936TIP3    H224300   2.287   6.374   0.587  0.2498  1.6265  1.0393
  937TIP3   OH224301   3.979   3.277  14.561 -0.0216 -0.0186 -0.0545
  937TIP3    H124302   4.058   3.272  14.509  0.9068  0.3891  1.2869
  937TIP3    H224303   3.962   3.186  14.588  0.7518  0.0715  0.7585
  938TIP3   OH224304   3.564   6.645  15.044 -0.2096  0.4076 -0.3125
  938TIP3    H124305   3.567   6.740  15.037 -0.2095  0.6101  2.0924
  938TIP3    H224306   3.637   6.614  14.990  0.0439  1.7807 -0.7747
  939TIP3   OH224307   5.396   0.178  11.161  0.4138 -0.2635 -0.0159
  939TIP3    H124308   5.326   0.182  11.095 -1.3408 -1.8848  1.6769
  939TIP3    H224309   5.351   0.191  11.244  2.4642  0.8040  0.9556
  940TIP3   OH224310   3.646   0.267   2.574  0.4042 -0.0684  0.7424
  940TIP3    H124311   3.730   0.260   2.619  2.0621  2.0315 -1.8389
  940TIP3    H224312   3.662   0.233   2.486 -1.4699  0.2064  0.2632
  941TIP3   OH224313   6.772   6.658   6.270  0.8045  0.4845  0.2585
  941TIP3    H124314   6.796   6.603   6.345 -0.8360 -0.6424 -0.0057
  941TIP3    H224315   6.849   6.658   6.214  1.9058  0.9999  1.7497
  942TIP3   OH224316   1.562   6.208   0.240 -0.3946 -0.2367  0.2610
  942TIP3    H124317   1.589   6.240   0.326 -1.5161 -2.1009  1.3380
  942TIP3    H224318   1.627   6.141   0.219  0.5345  0.9841 -0.8945
  943TIP3   OH224319   1.058   2.424  12.937 -0.4448 -0.0255 -0.2417
  943TIP3    H124320   0.997   2.456  13.004 -0.4613 -1.9550  0.6837
  943TIP3    H224321   1.010   2.435  12.855 -1.6191 -0.4732  0.3668
  944TIP3   OH224322   6.409   4.211  15.092 -0.4307  0.2031 -0.3311
  944TIP3    H124323   6.318   4.233  15.070 -0.1903  1.6169  0.0342
  944TIP3    H224324   6.403   4.165  15.175 -1.0702 -2.4483 -1.7855
  945TIP3   OH224325   6.483   3.685  16.230  0.4190  0.2651 -0.4592
  945TIP3    H124326   6.510   3.709  16.318 -0.7802 -2.0678  0.6010
  945TIP3    H224327   6.564   3.666  16.183  1.0478  1.3159  0.1974
  946TIP3   OH224328   3.025   4.845   2.731 -0.9131  0.1895 -0.2871
  946TIP3    H124329   2.948   4.879   2.778 -1.8916 -1.4721 -0.6561
  946TIP3    H224330   2.989   4.806   2.652  0.1912 -1.6047  0.0855
  947TIP3   OH224331   5.443   3.189   0.437 -0.0184  0.4899  0.3051
  947TIP3    H124332   5.438   3.284   0.449 -0.4704  0.4447  0.4882
  947TIP3    H224333   5.447   3.177   0.342  2.1037  0.7864  0.3151
  948TIP3   OH224334   1.918   5.809   4.330 -0.0574 -0.3576 -0.2506
  948TIP3    H124335   1.849   5.860   4.288  0.1643 -1.3184 -1.8078
  948TIP3    H224336   1.872   5.742   4.380 -0.2552 -1.4799 -1.9070
  949TIP3   OH224337   2.676   4.530   3.577  0.3577  0.7692  0.2179
  949TIP3    H124338   2.723   4.539   3.661 -0.2065 -0.9455  0.7439
  949TIP3    H224339   2.588   4.502   3.602  0.7194 -1.5806 -1.0039
  950TIP3   OH224340   4.718   5.198  11.614  0.7644  0.5009 -0.3713
  950TIP3    H124341   4.672   5.231  11.690 -2.8867 -5.0253  0.0740
  950TIP3    H224342   4.671   5.235  11.539 -0.4203 -0.1014  0.0726
  951TIP3   OH224343   0.297   1.077  15.813  0.3625  0.1801  0.3480
  951TIP3    H124344   0.327   0.986  15.803 -0.1218 -0.4563  3.8461
  951TIP3    H224345   0.209   1.078  15.778  0.7383 -0.4415 -0.6387
  952TIP3   OH224346   4.913   2.175   2.948 -0.0133 -0.3557  0.2573
  952TIP3    H124347   4.999   2.145   2.917 -0.0089 -0.8517  0.7571
  952TIP3    H224348   4.867   2.200   2.868  0.5987 -0.0823 -0.0153
  953TIP3   OH224349   6.138   1.583   3.479  0.0379  0.0718  0.2296
  953TIP3    H124350   6.177   1.604   3.394 -1.5752 -0.6374 -0.7189
  953TIP3    H224351   6.057   1.635   3.480 -0.4458 -0.6994  0.8981
  954TIP3   OH224352   5.746   2.852  14.422  0.1174  0.1452  0.7054
  954TIP3    H124353   5.677   2.898  14.469  2.6907  3.2097  1.6487
  954TIP3    H224354   5.787   2.796  14.488  0.6300  0.7988  0.9419
  955TIP3   OH224355   3.895   2.716   1.298 -0.0102 -0.4713  0.0638
  955TIP3    H124356   3.933   2.803   1.307 -0.0358 -0.4830  0.2879
  955TIP3    H224357   3.823   2.726   1.236 -1.2894  0.0553  1.6197
  956TIP3   OH224358   4.478   2.199  12.611 -0.1214 -0.4384 -0.4094
  956TIP3    H124359   4.468   2.294  12.613 -0.4688 -0.4997  1.1917
  956TIP3    H224360   4.481   2.173  12.703 -0.1997 -1.9947 -0.8324
  957TIP3   OH224361   3.993   3.516  11.995  0.1882  0.3205  0.4368
  957TIP3    H124362   4.001   3.600  11.950  0.2275 -0.1593 -0.4694
  957TIP3    H224363   3.980   3.452  11.924 -2.6075 -0.0904  1.2575
  958TIP3   OH224364   1.045   5.607   1.278 -0.6117  0.5758 -0.3432
  958TIP3    H124365   1.044   5.547   1.352 -2.5046  0.5497 -0.3671
  958TIP3    H224366   1.094   5.561   1.210 -0.3892 -0.1268  0.2898
  959TIP3   OH224367   5.416   6.099   1.112  0.0209  0.1635  0.0121
  959TIP3    H124368   5.464   6.022   1.142 -2.5581 -2.0470 -1.3258
  959TIP3    H224369   5.462   6.128   1.034  0.5445 -0.4763  0.0794
  960TIP3   OH224370   5.054   2.252  11.064  0.0869 -0.2351 -0.4607
  960TIP3    H124371   5.041   2.212  11.151  0.4050  1.2238  0.2708
  960TIP3    H224372   4.978   2.224  11.014  0.4028 -1.9369 -0.0322
  961TIP3   OH224373   1.759   3.538  11.460 -0.5986  0.2677 -0.3556
  961TIP3    H124374   1.682   3.507  11.413 -0.9462  0.2755  0.1995
  961TIP3    H224375   1.725   3.567  11.545 -0.3350  2.5223 -0.9938
  962TIP3   OH224376   2.982   5.108   5.275 -0.2693  0.1462  0.6527
  962TIP3    H124377   2.959   5.161   5.351  0.5508  1.7660 -0.1809
  962TIP3    H224378   3.012   5.025   5.310  1.1706  1.2792  2.1567
  963TIP3   OH224379   0.158   6.036   1.368 -0.2806 -0.4566 -0.0870
  963TIP3    H124380   0.209   6.009   1.291  0.0282 -2.5662  0.8093
  963TIP3    H224381   0.222   6.035   1.439 -1.2035 -1.4326  0.7348
  964TIP3   OH224382   5.452   3.364  16.459 -0.3867  0.0015 -0.8485
  964TIP3    H124383   5.493   3.349  16.374  0.5509 -2.8127  0.0433
  964TIP3    H224384   5.524   3.389  16.517 -0.5205 -1.0953 -0.1918
  965TIP3   OH224385   2.305   6.592   4.671  0.3008  0.4149 -0.2984
  965TIP3    H124386   2.382   6.642   4.695  1.5732  0.4435 -4.0183
  965TIP3    H224387   2.231   6.646   4.697  1.6239  2.7283 -1.2174
  966TIP3   OH224388   3.671   5.071  16.869 -0.3721  0.6001  0.6260
  966TIP3    H124389   3.703   5.019  16.796  1.6529 -0.4546  2.2209
  966TIP3    H224390   3.585   5.033  16.889 -0.4055  0.1051 -0.4081
  967TIP3   OH224391   6.816   3.184  13.266 -0.1874 -0.2502 -0.0797
  967TIP3    H124392   6.896   3.171  13.317  1.4335 -0.4814 -2.5853
  967TIP3    H224393   6.768   3.102  13.275  0.1905 -0.3727  0.8456
  968TIP3   OH224394   2.069   5.653   6.470 -0.1267  0.2651  0.0733
  968TIP3    H124395   1.993   5.634   6.525 -0.1574  0.7891  0.2159
  968TIP3    H224396   2.069   5.584   6.405 -1.8635  1.3235 -1.0974
  969TIP3   OH224397   4.827   0.909   4.762  0.0999 -0.1553  0.0510
  969TIP3    H124398   4.862   0.940   4.846 -0.8734  2.4688 -0.4633
  969TIP3    H224399   4.732   0.913   4.773 -0.0391 -1.2598 -0.6698
  970TIP3   OH224400   2.200   6.415   2.837  0.4208  0.5002 -0.1390
  970TIP3    H124401   2.232   6.326   2.820 -0.6637 -0.4694  2.5705
  970TIP3    H224402   2.279   6.466   2.853  1.0561  0.0366 -1.7375
  971TIP3   OH224403   6.694   6.658   5.597  0.0118  0.2280 -0.9081
  971TIP3    H124404   6.685   6.578   5.545  0.4333 -1.1086  1.0171
  971TIP3    H224405   6.696   6.728   5.533  1.5405 -1.4541 -2.7598
  972TIP3   OH224406   1.796   2.921   3.172 -0.0997  0.8973 -0.3031
  972TIP3    H124407   1.790   3.005   3.127 -0.6467  0.6499 -0.6907
  972TIP3    H224408   1.750   2.934   3.255 -2.5279  0.2156 -1.4933
  973TIP3   OH224409   4.641   4.924   3.831  0.5649  0.5887 -0.0309
  973TIP3    H124410   4.709   4.873   3.786 -0.3178 -0.8419  0.2172
  973TIP3    H224411   4.638   4.888   3.919  0.8766  2.0188  0.5687
  974TIP3   OH224412   0.554   5.378  13.829  0.3898 -0.0297  0.4528
  974TIP3    H124413   0.648   5.375  13.812  0.5607  0.0796  1.3615
  974TIP3    H224414   0.538   5.308  13.892 -0.5734 -1.7715 -1.6895
  975TIP3   OH224415   1.411   5.011   5.610  0.4930 -0.1214 -0.0333
  975TIP3    H124416   1.415   4.916   5.613 -0.6624 -0.1625  0.5765
  975TIP3    H224417   1.331   5.033   5.657  0.2598  1.1159 -0.9954
  976TIP3   OH224418   2.282   1.415  11.763  0.8157 -0.1229 -0.4851
  976TIP3    H124419   2.321   1.451  11.843  0.4167  0.5483 -0.5881
  976TIP3    H224420   2.239   1.490  11.722  0.0526 -0.7011 -0.7502
  977TIP3   OH224421   0.621   3.127   5.036  0.0321 -0.1987  0.1616
  977TIP3    H124422   0.662   3.181   4.969  1.4285 -1.1825  0.2100
  977TIP3    H224423   0.551   3.080   4.990  0.7155 -0.5542 -0.5158
  978TIP3   OH224424   6.803   3.561   2.698 -0.0848  0.0976  0.1451
  978TIP3    H124425   6.889   3.565   2.739  0.3701 -1.3434 -0.6388
  978TIP3    H224426   6.782   3.468   2.696 -1.2065  0.3585 -0.6173
  979TIP3   OH224427   1.026   0.028  13.671  0.5721 -0.3324 -0.4284
  979TIP3    H124428   1.080   0.032  13.750 -0.2748  0.4526  0.1142
  979TIP3    H224429   1.077   0.076  13.606 -0.3789  2.2640  0.6539
  980TIP3   OH224430   5.857   2.332  16.737  0.1847  0.0206 -0.1805
  980TIP3    H124431   5.816   2.405  16.691  0.9371  0.5632  0.0053
  980TIP3    H224432   5.806   2.322  16.817  0.3736  0.6531  0.0182
  981TIP3   OH224433   3.800   5.736  11.962 -0.6177  0.4549 -0.4238
  981TIP3    H124434   3.812   5.655  11.912 -1.9667  0.4126 -0.7185
  981TIP3    H224435   3.881   5.746  12.011 -0.7080 -1.4667  0.1777
  982TIP3   OH224436   1.363   4.623  15.717  0.4302 -0.0628  0.1375
  982TIP3    H124437   1.307   4.637  15.641 -0.7549 -2.5365  0.4876
  982TIP3    H224438   1.362   4.528  15.731  2.8819  0.0611  1.5556
  983TIP3   OH224439   4.565   3.607  15.277 -0.4729 -0.3022  0.1307
  983TIP3    H124440   4.616   3.650  15.345 -1.0270 -0.5821  0.7329
  983TIP3    H224441   4.613   3.527  15.257  0.5185  0.5527 -0.9395
  984TIP3   OH224442   5.788   3.583  13.273 -0.0402 -0.1828  0.1158
  984TIP3    H124443   5.773   3.672  13.302  1.5667  0.2563 -0.3106
  984TIP3    H224444   5.871   3.587  13.225 -0.1272 -1.8271 -0.2270
  985TIP3   OH224445   3.052   2.616  13.479 -0.0586  0.3434  0.1204
  985TIP3    H124446   3.134   2.571  13.498  0.2758  0.4872 -0.9920
  985TIP3    H224447   3.060   2.645  13.389 -2.0190 -1.0930 -0.5529
  986TIP3   OH224448   0.204   2.386   2.358  0.7763 -0.0433  0.2927
  986TIP3    H124449   0.132   2.333   2.323  0.7005  0.2037  0.0728
  986TIP3    H224450   0.273   2.378   2.292  1.1417 -0.6942  0.7439
  987TIP3   OH224451   6.012   1.436   5.374 -0.1250 -0.0473 -0.6368
  987TIP3    H124452   5.984   1.527   5.390 -0.6193 -0.2632 -0.2690
  987TIP3    H224453   5.998   1.423   5.280 -1.3832 -0.1891 -0.4360
  988TIP3   OH224454   6.722   0.702  12.363  0.2615  0.1544  0.0997
  988TIP3    H124455   6.670   0.638  12.411 -0.2091 -0.0225 -0.6434
  988TIP3    H224456   6.712   0.783  12.412 -1.0994  0.2358 -0.2916
  989TIP3   OH224457   2.760   5.422  16.125  0.2483 -1.0696 -0.0959
  989TIP3    H124458   2.702   5.367  16.179 -0.1543 -0.6121 -0.0612
  989TIP3    H224459   2.701   5.481  16.079  0.8720  1.5080  2.2733
  990TIP3   OH224460   4.132   1.177  11.283  0.4330  0.6965  0.4102
  990TIP3    H124461   4.165   1.173  11.372 -1.2348  1.7206  1.0931
  990TIP3    H224462   4.191   1.238  11.238  0.3608  1.3699  1.2221
  991TIP3   OH224463   0.955   2.175  17.158  0.1376  0.2495  0.7889
  991TIP3    H124464   1.008   2.109  17.202  2.2500  0.7218 -0.9651
  991TIP3    H224465   0.885   2.125  17.115 -1.7015 -0.2567  4.1467
  992TIP3   OH224466   5.027   2.003  16.291 -0.5248  0.7495 -0.2506
  992TIP3    H124467   5.052   1.929  16.347  1.3019  1.3276 -0.2603
  992TIP3    H224468   4.967   2.055  16.345 -0.3499  0.2465  0.4357
  993TIP3   OH224469   6.230   4.427  13.966  0.0564 -0.1371 -0.9269
  993TIP3    H124470   6.257   4.439  13.875  0.9146 -0.9311 -0.7790
  993TIP3    H224471   6.200   4.513  13.994  0.4216  0.2608 -1.7539
  994TIP3   OH224472   1.187   0.831   5.511  0.0568 -0.2616  0.3239
  994TIP3    H124473   1.111   0.872   5.552  1.0904  2.2414 -0.1813
  994TIP3    H224474   1.160   0.816   5.421 -0.9327 -2.3466  0.9490
  995TIP3   OH224475   0.499   0.566  14.544 -0.4438  0.5481 -0.2325
  995TIP3    H124476   0.418   0.529  14.579  0.6814 -0.4931  1.3182
  995TIP3    H224477   0.502   0.655  14.578 -1.3901  0.9142 -1.0724
  996TIP3   OH224478   4.009   0.886   1.188  0.5575  0.1403  0.4204
  996TIP3    H124479   3.914   0.893   1.199  0.2719 -1.2871 -0.9311
  996TIP3    H224480   4.030   0.952   1.123  0.2283 -0.6932 -0.5429
  997TIP3   OH224481   4.265   6.327   4.261 -0.2203  0.1509 -0.1167
  997TIP3    H124482   4.280   6.239   4.294 -0.3165 -0.0301 -0.5556
  997TIP3    H224483   4.253   6.316   4.167  1.4425  0.8381 -0.4128
  998TIP3   OH224484   4.548   1.685  15.189 -0.1470  0.0072  0.0508
  998TIP3    H124485   4.584   1.665  15.103  1.3748  0.5563  0.5362
  998TIP3    H224486   4.555   1.780  15.197  1.0914 -0.1751  1.3470
  999TIP3   OH224487   5.041   0.322  13.266 -0.2981 -1.1021  0.2022
  999TIP3    H124488   5.049   0.226  13.268 -0.8929 -1.1349  1.7968
  999TIP3    H224489   5.103   0.353  13.332 -1.1338 -0.4775  0.7125
 1000TIP3   OH224490   5.158   1.811   1.823 -0.2592  0.5587 -0.6154
 1000TIP3    H124491   5.093   1.758   1.776  0.2670  0.6735 -1.4703
 1000TIP3    H224492   5.128   1.901   1.812 -0.1718  0.5805 -0.6756
 1001TIP3   OH224493   1.728   5.513   6.022 -0.3767  0.3865 -0.3238
 1001TIP3    H124494   1.729   5.517   6.118 -0.1185 -0.9393 -0.2590
 1001TIP3    H224495   1.640   5.542   5.998 -1.5209 -2.2300  0.5010
 1002TIP3   OH224496   4.056   5.959  14.261 -0.1755 -0.2894  0.5581
 1002TIP3    H124497   4.124   5.984  14.198 -1.1417 -0.5935 -0.6337
 1002TIP3    H224498   3.984   6.020  14.243 -1.7256 -2.4934 -0.9102
 1003TIP3   OH224499   3.130   5.606  11.356 -0.5994  0.1735 -0.2060
 1003TIP3    H124500   3.193   5.572  11.292 -3.8123 -3.3719 -1.7444
 1003TIP3    H224501   3.154   5.564  11.438 -0.8352 -1.1242 -0.7778
 1004TIP3   OH224502   2.962   5.177   0.568 -0.4222  0.0020 -0.6776
 1004TIP3    H124503   3.013   5.100   0.594  2.0240  1.6352 -0.4921
 1004TIP3    H224504   2.956   5.230   0.648 -1.3899  0.3935 -1.0006
 1005TIP3   OH224505   3.192   3.193   0.805 -0.1608  0.3492  0.1945
 1005TIP3    H124506   3.224   3.105   0.786  0.7502  0.7180 -0.0193
 1005TIP3    H224507   3.262   3.251   0.775 -0.9956  1.1751 -0.1897
 1006TIP3   OH224508   0.069   6.511  12.905 -0.1857 -0.1667 -0.2220
 1006TIP3    H124509  -0.017   6.552  12.914 -0.2868 -0.4774  0.2811
 1006TIP3    H224510   0.129   6.583  12.889 -0.1036  0.3843  2.3048
 1007TIP3   OH224511   6.085   0.201  12.818 -0.2923  0.2728 -0.2249
 1007TIP3    H124512   6.020   0.137  12.788 -0.7272  0.9668 -0.7768
 1007TIP3    H224513   6.132   0.225  12.738 -0.9793  1.6081 -0.2318
 1008TIP3   OH224514   0.183   6.418   4.914 -0.6748 -0.1793  0.0279
 1008TIP3    H124515   0.242   6.349   4.944 -0.8467 -1.0209 -1.5055
 1008TIP3    H224516   0.232   6.464   4.845  0.2090  2.5343  2.3534
 1009TIP3   OH224517   0.052   2.754  10.956  0.4719  0.0701  0.1178
 1009TIP3    H124518   0.109   2.676  10.959  1.0045  0.4843  0.9427
 1009TIP3    H224519   0.105   2.823  10.995 -0.1735  0.7476 -0.2064
 1010TIP3   OH224520   0.970   6.707  14.567  0.2805 -0.5387 -0.1628
 1010TIP3    H124521   0.890   6.751  14.597  1.4563  0.8086  1.0484
 1010TIP3    H224522   0.939   6.623  14.532 -1.8640  0.7591 -1.4713
 1011TIP3   OH224523   6.703   0.014   4.590  0.0899  0.3194 -0.7177
 1011TIP3    H124524   6.788   0.038   4.553  0.2437  1.0898  0.1017
 1011TIP3    H224525   6.645   0.006   4.514  1.0866 -1.0675 -1.3595
 1012TIP3   OH224526   6.220   3.728   1.802  0.6185  0.3153 -0.0815
 1012TIP3    H124527   6.315   3.720   1.792  0.7735 -0.7234  2.0775
 1012TIP3    H224528   6.202   3.699   1.891 -1.9070 -0.8322 -0.9118
 1013TIP3   OH224529   1.612   3.747   4.856 -0.1522  0.1587  0.6280
 1013TIP3    H124530   1.598   3.671   4.913 -1.0969  1.0045  1.5610
 1013TIP3    H224531   1.704   3.770   4.869  0.7562 -2.1812 -1.4011
 1014TIP3   OH224532   6.099   0.182   5.718 -0.2299 -0.3088  0.6964
 1014TIP3    H124533   6.056   0.266   5.705  0.3406 -0.1745 -0.3274
 1014TIP3    H224534   6.029   0.123   5.746 -0.7914  0.2908  0.5628
 1015TIP3   OH224535   0.527   5.478   5.946 -0.0426  0.3875  0.7324
 1015TIP3    H124536   0.574   5.410   5.994  0.3095 -1.6206 -2.3211
 1015TIP3    H224537   0.434   5.463   5.967  0.0089 -1.2634 -0.1680
 1016TIP3   OH224538   1.700   2.539   5.149 -0.5420 -0.4045 -0.2403
 1016TIP3    H124539   1.683   2.473   5.216 -2.1943 -0.4283 -0.6535
 1016TIP3    H224540   1.685   2.622   5.194 -0.0163 -0.3628 -0.1405
 1017TIP3   OH224541   5.929   2.934   2.473 -0.6239 -0.0441  0.1732
 1017TIP3    H124542   5.875   2.998   2.428 -1.2504  0.5371  1.7134
 1017TIP3    H224543   6.019   2.960   2.453 -0.8375  2.0204  1.6691
 1018TIP3   OH224544   2.240   2.011   2.927 -0.5492 -0.1653 -0.0360
 1018TIP3    H124545   2.275   2.099   2.912  0.4074 -0.5774 -0.2672
 1018TIP3    H224546   2.286   1.956   2.863 -1.0126 -0.8687  0.2277
 1019TIP3   OH224547   2.088   6.753  12.491 -0.3577 -0.2624  0.0654
 1019TIP3    H124548   2.089   6.670  12.539 -1.4734 -1.2803 -1.6114
 1019TIP3    H224549   1.995   6.773  12.479 -0.1042  1.3804  0.6859
 1020TIP3   OH224550   5.576   1.636   4.294  0.0482 -0.1119 -0.2044
 1020TIP3    H124551   5.534   1.632   4.380 -0.9529 -1.4647 -0.7347
 1020TIP3    H224552   5.626   1.554   4.288  0.7954  0.3667 -0.5756
 1021TIP3   OH224553   5.364   5.884   1.611 -0.1410  0.0925 -0.3725
 1021TIP3    H124554   5.393   5.936   1.686  2.4765 -0.8152 -0.7023
 1021TIP3    H224555   5.419   5.915   1.539 -1.4427 -0.2578 -1.5171
 1022TIP3   OH224556   2.497   1.435   3.029 -0.0900 -0.0343 -0.4383
 1022TIP3    H124557   2.533   1.351   3.058  0.4436  0.4305  0.2738
 1022TIP3    H224558   2.403   1.427   3.043 -0.3123 -1.3395 -2.5111
 1023TIP3   OH224559   6.559   1.029  11.349  0.0627 -1.2759 -0.2001
 1023TIP3    H124560   6.540   1.107  11.297  1.2099 -2.0167 -1.7745
 1023TIP3    H224561   6.615   1.061  11.420  1.0510 -0.7525 -1.1975
 1024TIP3   OH224562   3.540   2.979   0.110 -0.0271 -0.2801 -0.1753
 1024TIP3    H124563   3.539   3.075   0.107 -1.3343 -0.2483  1.2174
 1024TIP3    H224564   3.448   2.954   0.103  0.3254 -1.4488 -0.7041
 1025TIP3   OH224565   2.472   5.076   4.129  0.0541  0.0911  0.4107
 1025TIP3    H124566   2.481   4.985   4.101  1.2273 -0.2837  1.9575
 1025TIP3    H224567   2.380   5.097   4.111  0.2543 -0.7598 -1.7711
 1026TIP3   OH224568   3.584   5.152  13.030  0.3326  0.2702  0.0942
 1026TIP3    H124569   3.562   5.060  13.015 -1.0621  0.5736  0.1770
 1026TIP3    H224570   3.677   5.151  13.053  0.3305 -1.1148  0.0983
 1027TIP3   OH224571   5.742   5.622   2.467  0.0059 -0.1119 -0.1573
 1027TIP3    H124572   5.819   5.658   2.423  0.3854 -1.3985 -0.5670
 1027TIP3    H224573   5.765   5.625   2.560  0.3404 -0.0057 -0.2411
 1028TIP3   OH224574   2.749   0.554  12.670  0.6369 -0.4684 -0.3894
 1028TIP3    H124575   2.781   0.464  12.667  0.7247 -0.4256 -0.8547
 1028TIP3    H224576   2.829   0.608  12.674  0.5412 -0.4723  1.7152
 1029TIP3   OH224577   4.298   2.718   3.129 -0.0986 -0.3736  0.4325
 1029TIP3    H124578   4.345   2.784   3.077 -0.6780  0.6136  1.1478
 1029TIP3    H224579   4.366   2.655   3.154  0.2218 -0.7537 -1.3494
 1030TIP3   OH224580   5.849   5.173   3.733  0.2950 -0.7941 -0.0808
 1030TIP3    H124581   5.853   5.166   3.828  0.8973 -0.1733 -0.0583
 1030TIP3    H224582   5.922   5.120   3.702  0.2430 -0.8002 -0.1932
 1031TIP3   OH224583   0.526   6.139  13.787 -0.6422  0.0105  0.2625
 1031TIP3    H124584   0.456   6.074  13.785 -1.5146  0.9516  0.0257
 1031TIP3    H224585   0.520   6.179  13.874 -0.5414  0.2322  0.1690
 1032TIP3   OH224586   5.394   5.775  10.612 -0.0272  0.0407 -1.1862
 1032TIP3    H124587   5.436   5.716  10.549 -0.9495  1.0961 -2.8066
 1032TIP3    H224588   5.302   5.777  10.586 -0.2768  1.0868 -0.2620
 1033TIP3   OH224589   4.099   6.391   6.577 -0.7082  0.0046  0.1675
 1033TIP3    H124590   4.084   6.298   6.559  0.6422 -0.3698  0.8573
 1033TIP3    H224591   4.017   6.434   6.554 -0.6368 -1.0593 -2.2499
 1034TIP3   OH224592   4.994   6.269  11.180 -0.4697 -0.4950 -0.5126
 1034TIP3    H124593   4.913   6.309  11.211  0.2835  1.0258 -0.4894
 1034TIP3    H224594   5.063   6.311  11.231  0.5635  0.1915 -2.4650
 1035TIP3   OH224595   3.597   2.675   0.674  0.0741 -0.1427  0.1202
 1035TIP3    H124596   3.588   2.585   0.707 -0.3014  0.8050  2.7190
 1035TIP3    H224597   3.584   2.667   0.580 -0.0185 -2.8143  0.3162
 1036TIP3   OH224598   6.699   6.590  13.859  0.1166  0.7562 -0.2301
 1036TIP3    H124599   6.680   6.576  13.766 -0.6629 -0.4624  0.0981
 1036TIP3    H224600   6.671   6.680  13.875 -2.8914 -0.0747 -0.4289
 1037TIP3   OH224601   0.254   1.592   2.137  0.4556 -0.5014  0.0199
 1037TIP3    H124602   0.319   1.586   2.207 -1.1319  0.5088  1.6432
 1037TIP3    H224603   0.284   1.530   2.071  2.3794 -0.9693  1.2766
 1038TIP3   OH224604   6.314   6.104  12.978 -0.4192  0.2123  0.0186
 1038TIP3    H124605   6.374   6.149  13.037 -1.0113 -0.9456  1.5331
 1038TIP3    H224606   6.266   6.175  12.935  1.4683  1.1349 -0.6718
 1039TIP3   OH224607   0.360   0.781   1.070  0.7344  1.1730 -0.1404
 1039TIP3    H124608   0.450   0.798   1.099  1.4810  0.1182 -1.7448
 1039TIP3    H224609   0.344   0.848   1.003  1.4897 -0.6017 -2.1284
 1040TIP3   OH224610   1.019   4.319   0.840  0.8193 -0.2954  0.0978
 1040TIP3    H124611   0.955   4.269   0.890 -0.4593 -0.1079 -1.3121
 1040TIP3    H224612   1.070   4.367   0.905 -1.4751  0.7504  1.1443
 1041TIP3   OH224613   1.704   0.360  10.808 -0.4554 -0.1103 -0.5616
 1041TIP3    H124614   1.773   0.388  10.748 -0.2975 -1.3102 -0.9602
 1041TIP3    H224615   1.722   0.267  10.823 -0.9330  0.0078  0.7603
 1042TIP3   OH224616   0.789   2.670   1.565  0.1980  0.2470 -0.2036
 1042TIP3    H124617   0.805   2.757   1.604  0.7351 -0.4553  1.1964
 1042TIP3    H224618   0.703   2.677   1.525  0.2705  1.4567 -0.1686
 1043TIP3   OH224619   5.165   0.832   0.551  0.6206 -0.6487 -0.3497
 1043TIP3    H124620   5.254   0.867   0.550  0.5912 -0.5754 -0.3566
 1043TIP3    H224621   5.156   0.789   0.466  0.1760  0.5211 -0.9049
 1044TIP3   OH224622   5.882   3.577   1.160 -0.2260  0.3130  0.0377
 1044TIP3    H124623   5.910   3.661   1.196  0.2220  1.3430 -2.6389
 1044TIP3    H224624   5.889   3.516   1.234  2.6121  1.9196  1.1632
 1045TIP3   OH224625   4.716   4.232   5.290 -0.0361  0.3202 -0.2988
 1045TIP3    H124626   4.689   4.235   5.381  1.0508  0.1597  0.0341
 1045TIP3    H224627   4.635   4.217   5.241 -0.4485 -0.8298  0.7298
 1046TIP3   OH224628   6.472   5.871   3.653  0.1270  0.0896 -0.2423
 1046TIP3    H124629   6.463   5.958   3.612 -2.5440 -0.0288 -0.0034
 1046TIP3    H224630   6.507   5.890   3.740  0.1153  0.8893 -0.4014
 1047TIP3   OH224631   6.474   2.848   4.979 -0.0154 -0.5553 -0.0440
 1047TIP3    H124632   6.397   2.797   4.954 -0.2688 -0.8474  1.2848
 1047TIP3    H224633   6.480   2.837   5.074 -0.3026  2.2138  0.3257
 1048TIP3   OH224634   0.525   1.095  10.657  0.0022  0.5425  0.2059
 1048TIP3    H124635   0.617   1.069  10.661  0.6481  2.3772 -1.5794
 1048TIP3    H224636   0.526   1.182  10.616 -2.4677  0.9703  0.9147
 1049TIP3   OH224637   1.293   3.373   3.755 -0.5279  0.2881  0.0745
 1049TIP3    H124638   1.372   3.418   3.787 -0.6739 -0.3052  1.3329
 1049TIP3    H224639   1.289   3.293   3.809 -0.5721 -0.9582 -1.7423
 1050TIP3   OH224640   2.781   6.503   1.976  0.1362  0.7087  0.7882
 1050TIP3    H124641   2.719   6.462   2.037 -1.4958  1.9262 -0.0273
 1050TIP3    H224642   2.727   6.532   1.903  1.8929  0.5034 -0.6187
 1051TIP3   OH224643   3.830   2.400  12.387  0.1621  0.0978 -0.3900
 1051TIP3    H124644   3.857   2.399  12.479  0.2712 -0.3315 -0.4251
 1051TIP3    H224645   3.912   2.396  12.338  0.2084  2.1065 -0.5243
 1052TIP3   OH224646   1.030   1.905   3.580  0.1686 -0.2935 -0.2102
 1052TIP3    H124647   1.029   1.827   3.635 -0.4805 -1.7546 -2.2674
 1052TIP3    H224648   1.089   1.883   3.508 -1.5846  0.3367 -1.8829
 1053TIP3   OH224649   3.354   2.944   0.802 -0.3000  0.0876  0.1959
 1053TIP3    H124650   3.436   2.926   0.756  0.6989  0.0093  1.9566
 1053TIP3    H224651   3.293   2.876   0.773  0.3350  0.0023 -0.9324
 1054TIP3   OH224652   1.137   2.000  17.278 -0.6010 -0.1260 -0.8582
 1054TIP3    H124653   1.195   1.937  17.236 -0.3518 -1.6247  1.6328
 1054TIP3    H224654   1.194   2.050  17.337 -1.4682 -0.3398  0.1970
 1055TIP3   OH224655   5.326   4.419  17.134 -0.8535  0.0534  0.3062
 1055TIP3    H124656   5.411   4.412  17.091 -0.7710  0.6168  0.3730
 1055TIP3    H224657   5.327   4.350  17.200  0.6055  1.7325  2.0936
 1056TIP3   OH224658   0.407   5.893   2.970 -0.4010 -0.0143 -0.3501
 1056TIP3    H124659   0.378   5.850   3.050  0.4982  0.9941  0.5415
 1056TIP3    H224660   0.455   5.825   2.922  0.4767 -0.1762  0.7483
 1057TIP3   OH224661   0.019   1.984   4.455 -0.1318 -0.4884 -0.0846
 1057TIP3    H124662  -0.001   2.071   4.419 -0.5126 -0.7183 -0.4306
 1057TIP3    H224663   0.111   1.990   4.480  0.4382 -0.6509 -2.0747
 1058TIP3   OH224664   0.014   3.297  17.168  0.2713  0.3402 -0.5780
 1058TIP3    H124665   0.048   3.364  17.110  1.0521 -1.0793 -1.8082
 1058TIP3    H224666   0.081   3.228  17.168 -0.7888 -0.7248  0.1173
 1059TIP3   OH224667   6.542   0.281  12.052 -0.1981 -0.1057  0.1690
 1059TIP3    H124668   6.630   0.253  12.078 -0.2968  0.3152  1.0067
 1059TIP3    H224669   6.533   0.254  11.961  0.6167 -0.5868  0.2292
 1060TIP3   OH224670   4.375   5.306  17.122  0.5971  0.0933 -0.5000
 1060TIP3    H124671   4.318   5.343  17.055  0.3012 -0.4983 -0.5805
 1060TIP3    H224672   4.448   5.268  17.073  0.5603 -0.0248 -0.4616
 1061TIP3   OH224673   0.142   6.419   1.607 -0.1088  0.1842  0.1982
 1061TIP3    H124674   0.178   6.500   1.641  2.2940 -1.2459  1.1523
 1061TIP3    H224675   0.211   6.383   1.551 -1.2339 -1.0841 -0.4153
 1062TIP3   OH224676   2.297   4.048  17.186 -0.0032 -0.0005  0.1051
 1062TIP3    H124677   2.232   4.014  17.125 -1.9959 -0.0835  2.2236
 1062TIP3    H224678   2.348   4.110  17.134 -1.0992 -0.7276 -1.8733
 1063TIP3   OH224679   0.395   0.695   1.692  0.0985  0.1870 -0.2113
 1063TIP3    H124680   0.411   0.674   1.784 -0.1098 -2.7480 -0.7972
 1063TIP3    H224681   0.300   0.707   1.686  0.1646  0.8823  0.0229
 1064TIP3   OH224682   1.817   2.569  16.464  0.0756 -0.1676  0.2006
 1064TIP3    H124683   1.734   2.595  16.503  0.9045 -0.4511  2.1837
 1064TIP3    H224684   1.846   2.494  16.515  1.7426  0.1602 -0.2257
 1065TIP3   OH224685   2.705   2.698  13.643 -0.0081 -0.1776 -0.1431
 1065TIP3    H124686   2.655   2.779  13.637 -1.4464 -1.0415 -0.1649
 1065TIP3    H224687   2.788   2.717  13.600 -0.1954  1.3849  0.1850
 1066TIP3   OH224688   3.941   5.173   4.130  0.0770 -0.3267  0.6262
 1066TIP3    H124689   3.926   5.236   4.059  1.9453  0.5541  0.9867
 1066TIP3    H224690   3.886   5.098   4.108 -1.1502  0.8839 -0.5182
 1067TIP3   OH224691   1.006   5.511  10.556 -0.4153  0.0942 -0.4503
 1067TIP3    H124692   1.083   5.566  10.567  0.2000 -0.4516 -1.8766
 1067TIP3    H224693   1.020   5.465  10.473 -1.5358 -1.2154  0.0465
 1068TIP3   OH224694   6.185   0.444   0.356  0.0014 -0.2089  0.0439
 1068TIP3    H124695   6.193   0.424   0.449  2.6816  1.7907  0.3313
 1068TIP3    H224696   6.208   0.363   0.311  0.5157 -0.6846  1.1572
 1069TIP3   OH224697   2.858   4.518  12.593  0.0808  0.0982 -0.5362
 1069TIP3    H124698   2.902   4.592  12.634  0.9424 -0.2236 -0.8662
 1069TIP3    H224699   2.923   4.448  12.593 -0.9684 -0.8945  0.4370
 1070TIP3   OH224700   1.399   6.265   5.067  0.3474 -0.1855 -0.8791
 1070TIP3    H124701   1.307   6.277   5.044  0.0295 -0.9677 -0.0551
 1070TIP3    H224702   1.439   6.351   5.053 -0.9269  0.6695  0.6254
 1071TIP3   OH224703   0.843   1.636   3.126  0.4035  0.6587  0.2688
 1071TIP3    H124704   0.909   1.696   3.160  1.7671 -0.4724 -0.3374
 1071TIP3    H224705   0.852   1.557   3.180  1.6358 -0.6271 -1.7485
 1072TIP3   OH224706   2.227   5.647   2.643  0.4583  0.3228 -0.4812
 1072TIP3    H124707   2.135   5.634   2.667  1.2048 -1.0929  1.7336
 1072TIP3    H224708   2.227   5.728   2.592 -1.5672  2.2274  2.3955
 1073TIP3   OH224709   1.865   0.981  14.801  0.2214  0.2108  0.1863
 1073TIP3    H124710   1.791   0.921  14.796  0.7920 -0.5961  1.1090
 1073TIP3    H224711   1.874   1.017  14.713  0.7834 -2.1745 -0.7542
 1074TIP3   OH224712   4.249   4.646   5.226 -0.5698 -0.0674 -0.4579
 1074TIP3    H124713   4.185   4.663   5.157 -0.8946  1.6508  0.2255
 1074TIP3    H224714   4.197   4.621   5.302 -0.6834  3.7232  0.8121
 1075TIP3   OH224715   5.094   1.766   4.708 -0.2853  0.2362  0.5415
 1075TIP3    H124716   5.073   1.850   4.749  0.5868  1.0782 -0.7021
 1075TIP3    H224717   5.170   1.784   4.653  0.3676 -1.5363  0.8141
 1076TIP3   OH224718   1.237   3.885   4.105 -0.1521 -0.3852  0.0637
 1076TIP3    H124719   1.330   3.871   4.120 -0.5541 -0.8178  2.4220
 1076TIP3    H224720   1.195   3.848   4.182 -2.1518  1.5899 -0.0300
 1077TIP3   OH224721   3.537   0.191  13.526 -0.0648  0.0448  0.4715
 1077TIP3    H124722   3.456   0.237  13.549 -0.4680 -0.6402  0.4324
 1077TIP3    H224723   3.532   0.179  13.431  0.7736  1.3038  0.2634
 1078TIP3   OH224724   2.496   5.613   2.728 -0.7359  0.0306 -0.7406
 1078TIP3    H124725   2.580   5.657   2.718  0.0792 -1.6951 -1.7819
 1078TIP3    H224726   2.438   5.657   2.666 -0.6273  1.2349 -0.0091
 1079TIP3   OH224727   4.413   3.931   1.184 -0.1261 -0.1703 -0.1177
 1079TIP3    H124728   4.362   4.008   1.160 -0.7202 -0.4511  0.2307
 1079TIP3    H224729   4.404   3.924   1.280  0.1770 -0.4874 -0.1084
 1080TIP3   OH224730   3.148   4.471   0.251 -0.3319 -0.0754 -0.0790
 1080TIP3    H124731   3.141   4.492   0.344 -1.3428 -0.6663 -0.0206
 1080TIP3    H224732   3.218   4.528   0.219 -0.0334  0.1882  1.0240
 1081TIP3   OH224733   2.276   0.947   2.947  0.0629  0.3344 -0.0568
 1081TIP3    H124734   2.309   0.971   3.034 -1.6044 -0.2949  0.7617
 1081TIP3    H224735   2.234   1.026   2.914  0.3984  0.4726 -0.1576
 1082TIP3   OH224736   1.669   5.895  13.228 -0.7889 -0.0700  0.4876
 1082TIP3    H124737   1.648   5.955  13.300 -0.9500  0.7205 -0.2136
 1082TIP3    H224738   1.692   5.952  13.155 -1.9544 -0.8386 -0.5036
 1083TIP3   OH224739   3.663   0.819  11.888 -0.0684 -0.1332  0.3260
 1083TIP3    H124740   3.702   0.752  11.832  0.0197 -1.3383  1.7922
 1083TIP3    H224741   3.738   0.866  11.925 -0.1156  0.3395 -0.1754
 1084TIP3   OH224742   6.326   6.442  15.419 -0.3105  0.1522  0.2478
 1084TIP3    H124743   6.255   6.405  15.366  0.5522 -0.2139 -0.6557
 1084TIP3    H224744   6.376   6.496  15.358  1.6533 -1.5654  0.2929
 1085TIP3   OH224745   4.563   0.229   1.672  0.1182  0.2993 -0.2299
 1085TIP3    H124746   4.587   0.142   1.704  1.5586  0.1279 -1.7576
 1085TIP3    H224747   4.502   0.213   1.600  1.7290  0.4848 -1.6539
 1086TIP3   OH224748   4.437   5.409  14.346 -0.2494  0.0761 -0.2189
 1086TIP3    H124749   4.421   5.372  14.433 -0.1926 -1.8777 -1.0190
 1086TIP3    H224750   4.515   5.364  14.314 -0.0698  1.0274 -1.1493
 1087TIP3   OH224751   3.507   4.966   5.076  0.1069 -0.1568  0.5789
 1087TIP3    H124752   3.455   4.886   5.070  0.4977 -0.3816  0.1613
 1087TIP3    H224753   3.545   4.977   4.989  1.7071 -0.6512  1.1798
 1088TIP3   OH224754   6.686   5.136   2.417 -0.0273  0.2264 -0.4383
 1088TIP3    H124755   6.593   5.141   2.394 -0.0012 -0.5343 -0.7286
 1088TIP3    H224756   6.698   5.046   2.447  0.1461  0.9597  1.7096
 1089TIP3   OH224757   4.757   2.440   0.686 -0.0049  0.3256 -0.0627
 1089TIP3    H124758   4.849   2.420   0.703 -0.4230  0.1267  2.1670
 1089TIP3    H224759   4.713   2.355   0.691 -0.5365  0.6368  0.5183
 1090TIP3   OH224760   5.823   4.945   1.217 -0.0135  0.3124 -0.0999
 1090TIP3    H124761   5.869   5.021   1.183  1.0357 -0.7828 -1.1786
 1090TIP3    H224762   5.733   4.975   1.230  0.2550  1.5686 -1.0652
 1091TIP3   OH224763   3.261   4.474  14.873  0.3548  0.0738 -0.3323
 1091TIP3    H124764   3.321   4.509  14.807  0.4984  1.1990  0.3879
 1091TIP3    H224765   3.319   4.436  14.940  0.2740  1.4751  0.5359
 1092TIP3   OH224766   1.047   3.134   6.374 -0.5893  0.2198 -0.7368
 1092TIP3    H124767   1.096   3.066   6.327 -2.0202 -0.3397 -1.4385
 1092TIP3    H224768   1.115   3.190   6.412  0.5954  0.3166 -2.9211
 1093TIP3   OH224769   1.581   2.984  14.543 -0.4416 -0.3056  0.0398
 1093TIP3    H124770   1.614   2.959  14.629 -0.6495  0.4025  0.3295
 1093TIP3    H224771   1.640   3.054  14.514 -1.3930  0.6330  0.3485
 1094TIP3   OH224772   4.563   5.336   1.817 -0.3568  0.2135  0.5150
 1094TIP3    H124773   4.568   5.424   1.855  1.2967 -0.4742  1.9944
 1094TIP3    H224774   4.497   5.291   1.870  0.3371 -0.0759  1.1342
 1095TIP3   OH224775   1.113   3.359   4.100 -0.1854  0.4104 -0.2855
 1095TIP3    H124776   1.173   3.302   4.052  0.6164 -0.4660  1.7352
 1095TIP3    H224777   1.167   3.432   4.129 -0.3028  0.1228  0.6774
 1096TIP3   OH224778   6.503   0.099  11.015  0.0697 -0.1770  0.4468
 1096TIP3    H124779   6.433   0.054  11.062 -0.3180  0.0929  0.1254
 1096TIP3    H224780   6.517   0.047  10.936 -0.2715  0.1776  0.1527
 1097TIP3   OH224781   3.051   2.128   4.991  0.0481  0.0327  0.9957
 1097TIP3    H124782   2.960   2.158   4.987  0.3626  0.8047 -0.8087
 1097TIP3    H224783   3.102   2.204   4.963  1.0141 -1.3879 -1.2005
 1098TIP3   OH224784   5.317   0.334   3.056 -0.1649  0.3258 -0.0250
 1098TIP3    H124785   5.244   0.385   3.091 -0.2193 -1.4376  2.5746
 1098TIP3    H224786   5.294   0.243   3.075  0.9458 -0.5397 -2.6284
 1099TIP3   OH224787   4.715   0.391   2.858  0.2534 -0.3482  0.3916
 1099TIP3    H124788   4.751   0.450   2.792  0.9824 -1.3811 -0.1458
 1099TIP3    H224789   4.621   0.411   2.859  0.4545  0.6416  0.0429
 1100TIP3   OH224790   1.884   6.227  12.616 -0.2532  0.3665  0.2788
 1100TIP3    H124791   1.839   6.144  12.628 -2.3612  1.3710 -0.5208
 1100TIP3    H224792   1.894   6.236  12.521  1.7547  0.1211  0.4391
 1101TIP3   OH224793   0.984   3.730   2.347 -0.0507 -0.3821  0.4272
 1101TIP3    H124794   0.923   3.781   2.401  0.0728 -0.2682  0.4577
 1101TIP3    H224795   1.066   3.732   2.395  1.2958  3.3547 -1.8004
 1102TIP3   OH224796   3.443   2.285  16.454  0.1004  0.1049  0.0425
 1102TIP3    H124797   3.484   2.231  16.521  1.3726  1.5014  0.4298
 1102TIP3    H224798   3.367   2.325  16.498 -0.6034 -1.0253 -0.1301
 1103TIP3   OH224799   4.098   5.000  17.041 -0.0837  0.0968  0.2580
 1103TIP3    H124800   4.030   5.066  17.051  0.9463  1.0956  0.8183
 1103TIP3    H224801   4.156   5.035  16.974  1.4324  0.6292  1.7833
 1104TIP3   OH224802   5.342   3.512   4.610 -0.1161 -0.0206  0.0894
 1104TIP3    H124803   5.430   3.541   4.586 -0.8208  0.4718 -1.9954
 1104TIP3    H224804   5.286   3.585   4.585 -1.4107 -1.3859 -1.0706
 1105TIP3   OH224805   0.922   0.791   1.112  0.0002 -0.0651  0.0246
 1105TIP3    H124806   0.917   0.803   1.017 -1.2285  0.4484  0.1413
 1105TIP3    H224807   1.010   0.755   1.128 -0.0794 -0.8908 -1.3773
 1106TIP3   OH224808   5.336   5.583   4.584  0.1058  0.1519 -0.1502
 1106TIP3    H124809   5.391   5.644   4.536 -0.3943 -0.1625 -1.1269
 1106TIP3    H224810   5.251   5.586   4.539 -0.8322  1.0018  1.6134
 1107TIP3   OH224811   4.703   0.915  12.010  0.2697  0.1898 -0.3753
 1107TIP3    H124812   4.778   0.861  11.986  1.6661  1.3430  1.2216
 1107TIP3    H224813   4.696   0.979  11.939  2.0494  1.2745  0.3731
 1108TIP3   OH224814   4.506   1.512   4.712  1.0666 -0.4306 -0.3066
 1108TIP3    H124815   4.562   1.514   4.635  1.8532  1.5153  0.2807
 1108TIP3    H224816   4.553   1.457   4.775  0.7685 -1.4277 -0.9540
 1109TIP3   OH224817   2.415   0.072  17.135  0.4659  0.4086 -0.3747
 1109TIP3    H124818   2.503   0.078  17.172  0.9038 -1.5590 -1.0350
 1109TIP3    H224819   2.429   0.051  17.043 -0.6821  0.8813 -0.6624
 1110TIP3   OH224820   4.125   2.097  12.823 -0.0498 -0.4046  0.3640
 1110TIP3    H124821   4.134   2.095  12.918 -2.1785 -1.4235  0.5669
 1110TIP3    H224822   4.158   2.183  12.798 -1.6270  0.8049  2.2793
 1111TIP3   OH224823   4.966   2.438   4.250 -0.1138 -0.4273 -0.5335
 1111TIP3    H124824   4.987   2.348   4.223 -3.7658 -2.0184  1.5720
 1111TIP3    H224825   4.876   2.451   4.222 -0.0505  2.1438  0.3419
 1112TIP3   OH224826   4.180   0.165   0.826  0.5096  0.1193  1.0735
 1112TIP3    H124827   4.233   0.087   0.847  0.1873 -0.5274 -0.4928
 1112TIP3    H224828   4.092   0.131   0.810  0.3080  0.8460  0.6138
 1113TIP3   OH224829   4.531   4.584   1.368 -0.1055  0.2132 -0.4340
 1113TIP3    H124830   4.480   4.571   1.448  1.0354  0.4290  0.3455
 1113TIP3    H224831   4.467   4.579   1.297 -1.1967  0.4666  0.5238
 1114TIP3   OH224832   6.354   4.057  12.897 -0.0153  0.2717  0.4414
 1114TIP3    H124833   6.395   4.079  12.981 -1.4115 -1.6270  1.6806
 1114TIP3    H224834   6.260   4.055  12.916 -0.3704  0.0746 -1.2386
 1115TIP3   OH224835   1.324   5.520  15.979  0.1522  0.4141  0.1874
 1115TIP3    H124836   1.408   5.537  16.022 -0.1338 -0.5834  1.1705
 1115TIP3    H224837   1.274   5.602  15.989  0.4291  0.4918  0.9655
 1116TIP3   OH224838   0.521   4.260   1.140 -0.1010 -0.1964 -0.0478
 1116TIP3    H124839   0.560   4.231   1.222  1.2442  0.4121 -0.4609
 1116TIP3    H224840   0.593   4.301   1.092 -0.8871 -0.4580 -1.4886
 1117TIP3   OH224841   4.302   0.175  15.863  0.1689 -0.1740 -0.6831
 1117TIP3    H124842   4.345   0.199  15.945 -1.3529  2.6583 -0.6231
 1117TIP3    H224843   4.367   0.192  15.796  0.8360 -0.7862 -0.1896
 1118TIP3   OH224844   3.633   5.760   2.032  0.6571  0.2714 -0.5910
 1118TIP3    H124845   3.694   5.691   2.059  2.8501  1.5614 -2.0551
 1118TIP3    H224846   3.652   5.834   2.090  0.5564  0.7144 -1.1114
 1119TIP3   OH224847   3.873   0.985  11.616  0.2298 -0.1993  0.6739
 1119TIP3    H124848   3.859   1.036  11.535  1.6906 -0.4448  0.2573
 1119TIP3    H224849   3.787   0.947  11.634 -0.5386  1.2335  0.1847
 1120TIP3   OH224850   5.255   5.973   2.737  0.2479  0.1437  0.5960
 1120TIP3    H124851   5.172   5.994   2.694  0.4032 -1.1773 -0.3813
 1120TIP3    H224852   5.233   5.900   2.796  0.1885  1.4594  2.2357
 1121TIP3   OH224853   6.272   5.753  10.609 -0.6511 -0.2350 -0.2347
 1121TIP3    H124854   6.333   5.825  10.593 -0.9629  0.1628  0.3387
 1121TIP3    H224855   6.186   5.794  10.608 -0.7034 -0.2113  2.2291
 1122TIP3   OH224856   1.830   1.812  13.530  0.0189  0.9066 -0.2188
 1122TIP3    H124857   1.785   1.807  13.614 -3.8829  0.6893 -2.1786
 1122TIP3    H224858   1.851   1.905  13.519  0.3969  0.9595  0.8966
 1123TIP3   OH224859   5.801   1.455   0.349 -0.1647  0.0448  1.1450
 1123TIP3    H124860   5.818   1.416   0.263 -0.2315  2.0282  0.1874
 1123TIP3    H224861   5.769   1.383   0.403  1.2070 -1.5277 -0.0909
 1124TIP3   OH224862   4.497   3.923  12.587  0.0656 -0.5333 -0.5851
 1124TIP3    H124863   4.529   3.837  12.559  0.8875 -0.3057 -0.3826
 1124TIP3    H224864   4.420   3.939  12.533 -0.0482 -1.3687 -0.6718
 1125TIP3   OH224865   3.550   4.517   5.916  0.1808  0.6461  0.2669
 1125TIP3    H124866   3.476   4.578   5.914 -2.0708 -2.0203 -0.0072
 1125TIP3    H224867   3.549   4.481   6.004  0.0422 -0.7062 -0.2788
 1126TIP3   OH224868   6.386   3.740   3.462 -0.0934  0.2987  0.0273
 1126TIP3    H124869   6.465   3.740   3.516 -0.3578 -1.7122  0.4437
 1126TIP3    H224870   6.384   3.827   3.423  0.6248  1.4756  2.4906
 1127TIP3   OH224871   1.382   2.012  13.146  0.0562  0.1404 -0.2716
 1127TIP3    H124872   1.474   2.016  13.122 -0.1673  2.6583 -0.8294
 1127TIP3    H224873   1.336   2.005  13.062 -0.3393  1.0057 -0.1384
 1128TIP3   OH224874   5.089   1.522  15.647  0.1598 -0.0002 -0.0827
 1128TIP3    H124875   5.044   1.438  15.637  2.1467 -1.2075  0.7270
 1128TIP3    H224876   5.141   1.511  15.727  0.1388  2.1595  0.2524
 1129TIP3   OH224877   4.459   1.929  10.726 -0.8333 -0.4213 -0.2084
 1129TIP3    H124878   4.457   1.951  10.632  0.5654 -0.4554 -0.2606
 1129TIP3    H224879   4.369   1.905  10.747 -1.4811  1.0829 -1.1900
 1130TIP3   OH224880   3.333   4.701  15.424 -0.0855 -0.1431 -0.0176
 1130TIP3    H124881   3.262   4.681  15.484  2.3855 -0.6609  2.8554
 1130TIP3    H224882   3.334   4.628  15.362 -0.1069 -1.7516  1.8272
 1131TIP3   OH224883   2.294   3.684  11.668  0.0989  0.4280 -0.3803
 1131TIP3    H124884   2.387   3.704  11.668 -0.4737  3.3246 -2.5718
 1131TIP3    H224885   2.278   3.641  11.584 -0.3247 -1.2390  0.5377
 1132TIP3   OH224886   5.690   1.515  13.964  0.0153 -0.2653 -0.5194
 1132TIP3    H124887   5.689   1.556  13.877  0.2231 -0.3754 -0.5764
 1132TIP3    H224888   5.686   1.421  13.945  0.0189 -0.2869 -0.4093
 1133TIP3   OH224889   6.697   5.986   4.164  0.0310  0.0359 -0.8317
 1133TIP3    H124890   6.661   5.925   4.230 -0.0650  0.4333 -0.5123
 1133TIP3    H224891   6.749   6.048   4.215  2.8165 -1.6757 -1.4845
 1134TIP3   OH224892   3.577   3.069  12.398 -0.2435 -0.3590  0.6655
 1134TIP3    H124893   3.626   3.093  12.477  2.4158  0.7699 -1.2857
 1134TIP3    H224894   3.565   3.151  12.351  1.1572 -1.4971 -1.7563
 1135TIP3   OH224895   2.695   0.204  13.306 -0.5941  0.4243 -0.4146
 1135TIP3    H124896   2.657   0.290  13.288 -1.4350  0.3430  0.9204
 1135TIP3    H224897   2.634   0.163  13.367  1.6624  0.3018  1.8617
 1136TIP3   OH224898   6.044   0.854   3.439 -0.1331 -0.2706  1.0521
 1136TIP3    H124899   6.022   0.812   3.522  0.2437 -2.0586  0.2709
 1136TIP3    H224900   6.135   0.828   3.423 -0.6609 -1.1668 -0.6309
 1137TIP3   OH224901   3.786   1.273   1.538  0.0081  0.3818 -0.1857
 1137TIP3    H124902   3.825   1.317   1.462  0.6768 -1.1557 -0.7573
 1137TIP3    H224903   3.707   1.232   1.503  0.1493 -0.0633  0.0161
 1138TIP3   OH224904   5.873   3.713  11.643 -0.4076 -0.6981  0.6095
 1138TIP3    H124905   5.835   3.708  11.730  0.6536  1.7367  1.2565
 1138TIP3    H224906   5.945   3.651  11.644 -0.1463 -0.3884  1.6084
 1139TIP3   OH224907   0.401   2.498   3.840 -0.6751  0.4761  0.3016
 1139TIP3    H124908   0.394   2.592   3.826  0.3491  0.4564 -0.4262
 1139TIP3    H224909   0.337   2.460   3.781 -1.4207  0.7371  0.9398
 1140TIP3   OH224910   3.556   6.596   4.929 -0.4403  0.0946  0.2561
 1140TIP3    H124911   3.520   6.683   4.913  1.9418  1.6240  2.7410
 1140TIP3    H224912   3.505   6.562   5.003 -1.4660 -0.7113 -0.8057
 1141TIP3   OH224913   5.050   3.490  17.229 -0.0285 -0.2690  0.3510
 1141TIP3    H124914   4.981   3.537  17.277  0.6336  1.7823 -0.6243
 1141TIP3    H224915   5.018   3.485  17.139  0.1992 -1.1327  0.3124
 1142TIP3   OH224916   6.245   5.088  12.844 -0.4748  0.4019 -0.2738
 1142TIP3    H124917   6.204   5.053  12.765 -2.4370  1.6691  0.1560
 1142TIP3    H224918   6.204   5.041  12.916 -0.2218  0.7570  0.1064
 1143TIP3   OH224919   1.669   1.562   0.331 -0.5832  0.0435 -0.1224
 1143TIP3    H124920   1.600   1.496   0.333 -1.2062  0.7191  1.9655
 1143TIP3    H224921   1.670   1.599   0.420  1.8044  0.7222 -0.3830
 1144TIP3   OH224922   0.020   2.983   3.677  0.1425  0.3799 -0.1726
 1144TIP3    H124923   0.021   3.067   3.722  0.9304 -0.0238  0.5919
 1144TIP3    H224924  -0.008   2.920   3.744 -1.9666  0.2495 -1.1571
 1145TIP3   OH224925   3.973   3.711   4.532 -0.0573  0.2865 -0.0773
 1145TIP3    H124926   3.908   3.726   4.600  0.9724  2.7372  0.4289
 1145TIP3    H224927   4.054   3.692   4.580  0.5195  1.3851 -0.5766
 1146TIP3   OH224928   4.386   5.993   2.082  0.1507 -0.1257  0.1851
 1146TIP3    H124929   4.400   5.901   2.104 -0.0579 -0.7391 -2.0719
 1146TIP3    H224930   4.294   5.998   2.055  0.4066  0.5437 -0.6045
 1147TIP3   OH224931   3.080   2.664   2.796 -0.1024  0.3887 -0.5880
 1147TIP3    H124932   3.005   2.694   2.745 -0.1960  0.8551 -0.1758
 1147TIP3    H224933   3.126   2.744   2.821 -1.8495  0.4172  2.8165
 1148TIP3   OH224934   1.291   0.909   1.259  0.5876  0.5115 -0.0424
 1148TIP3    H124935   1.242   0.940   1.335  0.4839 -0.0384  0.1211
 1148TIP3    H224936   1.247   0.948   1.184  2.0039  2.8265  0.2893
 1149TIP3   OH224937   3.888   5.323  17.183  0.4128  0.1823 -0.6152
 1149TIP3    H124938   3.888   5.418  17.189  0.0181  0.2182 -1.0510
 1149TIP3    H224939   3.825   5.304  17.113  0.2857 -0.4096 -0.3443
 1150TIP3   OH224940   2.202   5.494   0.354 -0.2646 -0.3656  0.0317
 1150TIP3    H124941   2.144   5.550   0.302  0.1115  0.5659  0.5881
 1150TIP3    H224942   2.206   5.537   0.439  0.8919 -0.6571  0.1348
 1151TIP3   OH224943   6.750   0.032   3.173 -0.0024  0.2216  0.4730
 1151TIP3    H124944   6.832   0.080   3.179 -0.3580  1.1120 -1.2050
 1151TIP3    H224945   6.715   0.056   3.086 -2.6924  0.9633  1.6966
 1152TIP3   OH224946   1.634   3.739   0.913  0.3573  0.1256  0.2182
 1152TIP3    H124947   1.718   3.760   0.873  1.0729 -0.5693  1.3237
 1152TIP3    H224948   1.648   3.654   0.956 -0.6693  0.3900  1.1041
 1153TIP3   OH224949   3.094   1.956  14.727  0.0654  0.4051  0.6043
 1153TIP3    H124950   3.044   1.924  14.652  1.4648 -0.3949 -0.0089
 1153TIP3    H224951   3.141   1.879  14.758  0.5509  1.0479  1.4552
 1154TIP3   OH224952   5.421   4.411   2.429  0.3556 -0.0130 -0.1424
 1154TIP3    H124953   5.392   4.436   2.342 -0.6867  2.4147  0.8688
 1154TIP3    H224954   5.517   4.404   2.422  0.2108 -0.6310 -1.6358
 1155TIP3   OH224955   6.615   1.434  13.726 -0.3525  0.4001 -0.1430
 1155TIP3    H124956   6.688   1.486  13.692 -0.1472  0.2506  0.0721
 1155TIP3    H224957   6.645   1.402  13.811 -0.7101  0.4303 -0.0034
 1156TIP3   OH224958   1.934   5.781   0.893 -0.0768 -0.5088 -0.0296
 1156TIP3    H124959   1.872   5.712   0.916 -1.0806  0.4863  0.2946
 1156TIP3    H224960   1.995   5.783   0.966 -1.3234  0.4061  1.0149
 1157TIP3   OH224961   0.952   2.594  17.267  0.1629 -0.2178  0.0508
 1157TIP3    H124962   0.937   2.622  17.357  0.8582 -3.3535  1.2019
 1157TIP3    H224963   1.037   2.632  17.244 -1.3045  3.0452 -0.4105
 1158TIP3   OH224964   0.758   5.363  15.207 -0.0350 -0.4727 -0.4117
 1158TIP3    H124965   0.695   5.301  15.244 -0.6671 -0.7807 -1.9770
 1158TIP3    H224966   0.717   5.448  15.216  0.7302 -0.2733  1.5213
 1159TIP3   OH224967   6.623   1.414  10.689  0.5796 -0.3437  0.4030
 1159TIP3    H124968   6.697   1.468  10.662 -0.5342 -0.9360 -4.3769
 1159TIP3    H224969   6.563   1.474  10.734  2.2475  0.9276  0.9622
 1160TIP3   OH224970   5.102   6.058  12.293 -0.4335  0.1195  0.3177
 1160TIP3    H124971   5.173   6.017  12.343  1.2122 -0.6367 -2.5237
 1160TIP3    H224972   5.098   6.148  12.326 -0.0059 -0.5898  2.3838
 1161TIP3   OH224973   0.611   0.446  13.553 -0.5420 -0.4173  0.4216
 1161TIP3    H124974   0.675   0.518  13.557  0.0472 -0.9682  0.9978
 1161TIP3    H224975   0.651   0.383  13.493 -1.9814  0.6171 -1.6932
 1162TIP3   OH224976   3.652   0.419   5.403  0.6665  0.1903 -0.3291
 1162TIP3    H124977   3.648   0.434   5.497 -1.3871 -0.1012 -0.3427
 1162TIP3    H224978   3.666   0.325   5.394 -0.7477 -0.0314 -0.3084
 1163TIP3   OH224979   6.618   5.014  15.932  0.0153 -0.2584  0.0979
 1163TIP3    H124980   6.614   5.102  15.967 -1.2989 -0.5917  0.7952
 1163TIP3    H224981   6.617   4.957  16.009 -0.3528 -0.9141 -0.3828
 1164TIP3   OH224982   3.093   2.571   3.051 -0.4824 -0.3157  0.2775
 1164TIP3    H124983   3.113   2.603   2.963  0.1206  1.0437  0.9019
 1164TIP3    H224984   3.002   2.541   3.045 -0.0774 -1.3661 -1.1108
 1165TIP3   OH224985   0.444   0.100   3.079  0.1558  0.4858 -0.2150
 1165TIP3    H124986   0.485   0.030   3.130  0.9419  0.8047 -0.3886
 1165TIP3    H224987   0.355   0.070   3.064 -0.4231  0.8697  2.2530
 1166TIP3   OH224988   1.237   6.494   0.730 -0.0302 -0.6837 -0.4371
 1166TIP3    H124989   1.252   6.493   0.824 -0.7172  1.0284 -0.2873
 1166TIP3    H224990   1.211   6.585   0.711 -1.8621 -1.4856 -1.9503
 1167TIP3   OH224991   0.289   2.839   4.776 -0.3912  0.3299  0.0832
 1167TIP3    H124992   0.297   2.746   4.797  0.6083  0.5801  0.8765
 1167TIP3    H224993   0.306   2.843   4.681 -0.8003 -0.3301 -0.0225
 1168TIP3   OH224994   2.882   0.025  12.611  0.2069  0.5385 -0.6509
 1168TIP3    H124995   2.837  -0.059  12.613  2.0377 -0.4430  1.3386
 1168TIP3    H224996   2.968   0.005  12.574  1.9596  0.7891  3.0433
 1169TIP3   OH224997   5.674   4.675   2.516  0.1232 -0.1347 -0.6114
 1169TIP3    H124998   5.587   4.662   2.555 -0.4159  0.8558 -1.4665
 1169TIP3    H224999   5.718   4.591   2.528  0.0053  0.1733  2.1807
 1170TIP3   OH225000   2.271   2.886  12.082 -0.0449 -0.3241  0.0944
 1170TIP3    H125001   2.334   2.884  12.154  1.1306  0.8877 -0.8607
 1170TIP3    H225002   2.305   2.823  12.019  0.4197  0.5796 -0.5736
 1171TIP3   OH225003   4.328   3.199  12.792  0.1686 -0.1910 -0.4811
 1171TIP3    H125004   4.376   3.164  12.867  0.0749 -0.9809 -0.7818
 1171TIP3    H225005   4.298   3.285  12.820  0.5472 -0.2871  0.2149
 1172TIP3   OH225006   5.746   3.380   1.704 -0.0606 -0.1578  0.0336
 1172TIP3    H125007   5.745   3.373   1.800  0.7204  0.8544  0.1318
 1172TIP3    H225008   5.724   3.472   1.688 -2.5038 -0.8612 -0.8523
 1173TIP3   OH225009   4.397   0.787  11.399  0.2073 -0.6214  0.1501
 1173TIP3    H125010   4.452   0.733  11.456 -0.0524 -1.6981 -0.6022
 1173TIP3    H225011   4.426   0.765  11.310 -1.8905 -1.7160 -0.2868
 1174TIP3   OH225012   0.839   0.601  11.983  0.2518  1.0348 -0.3768
 1174TIP3    H125013   0.815   0.600  12.076  0.3918  2.5824 -0.3179
 1174TIP3    H225014   0.899   0.527  11.973 -1.3322 -0.3648  0.3294
 1175TIP3   OH225015   5.649   1.861  16.254  0.8081 -0.1471 -0.1183
 1175TIP3    H125016   5.668   1.814  16.172 -0.6890  1.3567 -1.3587
 1175TIP3    H225017   5.735   1.885  16.288  1.4131  0.2035 -1.8429
 1176TIP3   OH225018   1.496   3.372   0.003  0.7668 -0.1634 -0.3178
 1176TIP3    H125019   1.452   3.452  -0.026  1.5932 -0.1005 -1.4010
 1176TIP3    H225020   1.428   3.306   0.003 -0.1187  0.7058  1.3633
 1177TIP3   OH225021   1.062   4.139  17.161  0.2403  0.0909  0.3690
 1177TIP3    H125022   1.122   4.126  17.087  1.8808 -0.7265  1.8059
 1177TIP3    H225023   0.991   4.192  17.125  1.6712  0.8309 -1.4671
 1178TIP3   OH225024   6.007   5.043   2.624  0.5910  0.5668 -0.5670
 1178TIP3    H125025   5.979   5.133   2.644 -1.2833 -0.4797  1.6277
 1178TIP3    H225026   5.930   5.003   2.583  1.2860 -0.1915 -1.1320
 1179TIP3   OH225027   3.266   5.601  15.041  0.2096 -0.2402 -0.5221
 1179TIP3    H125028   3.318   5.566  14.968  0.1588 -1.1684 -0.1181
 1179TIP3    H225029   3.325   5.662  15.085 -0.1292  1.1968 -2.0046
 1180TIP3   OH225030   3.293   4.591   0.895 -0.1011 -0.0721 -0.0681
 1180TIP3    H125031   3.373   4.577   0.843  1.4611  0.6409  2.0526
 1180TIP3    H225032   3.305   4.678   0.933 -2.4020  0.4757 -0.5577
 1181TIP3   OH225033   3.035   6.398   0.425  0.5861 -0.2614  1.0106
 1181TIP3    H125034   3.110   6.381   0.483  1.4793 -2.8615 -0.8080
 1181TIP3    H225035   3.073   6.442   0.349  0.3250 -1.6925  0.0283
 1182TIP3   OH225036   6.546   0.487   5.558 -0.1623  0.3279 -0.1577
 1182TIP3    H125037   6.483   0.485   5.631  1.6176  2.3371  1.5226
 1182TIP3    H225038   6.572   0.396   5.546 -1.0902 -0.1392  1.2045
 1183TIP3   OH225039   1.723   5.636   0.953  0.1459  0.7285  0.3285
 1183TIP3    H125040   1.772   5.554   0.946 -1.6141 -0.3784  0.4717
 1183TIP3    H225041   1.677   5.629   1.037 -2.1225  0.6334 -0.8713
 1184TIP3   OH225042   3.585   1.633   5.555  0.1779  0.4558 -0.0282
 1184TIP3    H125043   3.615   1.588   5.634 -0.1419  0.9993  0.3971
 1184TIP3    H225044   3.497   1.598   5.540  0.9550 -1.0584 -1.2169
 1185TIP3   OH225045   1.301   4.492  17.028  0.6454  0.3220 -0.2813
 1185TIP3    H125046   1.247   4.507  17.106  1.3628  2.6484 -0.2030
 1185TIP3    H225047   1.357   4.418  17.052 -1.5481 -1.2805  0.1157
 1186TIP3   OH225048   0.437   4.326   2.702 -0.2177 -0.0601 -0.2167
 1186TIP3    H125049   0.401   4.337   2.614  0.5149  1.3872 -0.3484
 1186TIP3    H225050   0.364   4.292   2.754 -1.0990  0.5681 -1.0357
 1187TIP3   OH225051   2.071   1.382   2.066  0.0759 -0.1051 -0.1622
 1187TIP3    H125052   2.159   1.344   2.065  1.2066  2.3723 -1.8533
 1187TIP3    H225053   2.029   1.347   1.988 -0.0695 -0.4789  0.0838
 1188TIP3   OH225054   4.434   1.944  14.749  0.3349  0.4119 -0.3913
 1188TIP3    H125055   4.361   1.986  14.704  1.8615  0.8609 -2.5489
 1188TIP3    H225056   4.407   1.940  14.841 -3.6932 -2.2947 -1.5851
 1189TIP3   OH225057   5.223   3.769   1.200 -0.3307 -0.3284  0.0025
 1189TIP3    H125058   5.142   3.726   1.172  0.9801 -1.0243 -3.0263
 1189TIP3    H225059   5.198   3.861   1.214 -1.6889 -0.5691 -0.7374
 1190TIP3   OH225060   5.796   2.859   3.914 -0.2452  0.1623 -0.1942
 1190TIP3    H125061   5.764   2.933   3.966 -0.6108 -0.4471  0.4651
 1190TIP3    H225062   5.883   2.840   3.948  0.8721  1.8408 -2.0101
 1191TIP3   OH225063   1.482   5.998   3.955  0.4357 -0.3919 -0.2412
 1191TIP3    H125064   1.468   5.913   3.996  0.6423 -1.0342 -1.4612
 1191TIP3    H225065   1.420   5.999   3.882  1.3554 -0.0637 -1.0323
 1192TIP3   OH225066   1.310   0.025  17.085  0.3116 -0.2923 -0.0165
 1192TIP3    H125067   1.317   0.054  17.176 -0.2078  0.2109 -0.1354
 1192TIP3    H225068   1.304  -0.070  17.090  2.9561 -0.4825  0.3333
 1193TIP3   OH225069   6.384   1.924  17.187 -0.6291  0.9851  0.1320
 1193TIP3    H125070   6.430   1.872  17.253  0.8902 -1.8213 -2.9671
 1193TIP3    H225071   6.292   1.919  17.212 -0.0569  0.1794  2.1485
 1194TIP3   OH225072   3.145   2.716   3.275  0.3318  0.4762 -0.5764
 1194TIP3    H125073   3.056   2.713   3.311  0.7784  2.0690  0.7756
 1194TIP3    H225074   3.134   2.697   3.182 -1.7699  3.0417 -0.9236
 1195TIP3   OH225075   3.367   3.825  15.012  0.7717  1.0682 -0.1861
 1195TIP3    H125076   3.304   3.879  14.964  1.1854  1.3956 -0.3596
 1195TIP3    H225077   3.325   3.810  15.097 -0.4947 -0.5254 -1.0672
 1196TIP3   OH225078   2.616   3.523   4.484 -0.2961  0.4701  0.4159
 1196TIP3    H125079   2.540   3.509   4.426 -0.6995  0.4407  0.9473
 1196TIP3    H225080   2.674   3.579   4.433 -1.3090  1.6583  0.5361
 1197TIP3   OH225081   6.374   2.507  13.133  0.4143  0.1548 -0.4506
 1197TIP3    H125082   6.409   2.529  13.047  1.1421 -0.1963 -0.2465
 1197TIP3    H225083   6.450   2.509  13.191 -0.0154  0.0555  0.1225
 1198TIP3   OH225084   5.815   4.623   3.933  0.7858 -0.4973  0.0750
 1198TIP3    H125085   5.808   4.718   3.928  0.7626 -0.3031  2.9573
 1198TIP3    H225086   5.818   4.604   4.027 -0.7778 -3.4461 -0.4053
 1199TIP3   OH225087   4.602   1.680  10.214 -0.0393  0.3385  0.5339
 1199TIP3    H125088   4.518   1.695  10.257  0.2342  0.7406  0.9304
 1199TIP3    H225089   4.609   1.585  10.207 -1.0207  0.3317 -0.4801
 1200TIP3   OH225090   0.896   1.811   4.595 -0.0056 -0.2400  0.2601
 1200TIP3    H125091   0.981   1.826   4.636 -0.4065 -0.7308  1.2920
 1200TIP3    H225092   0.846   1.763   4.661 -1.2480  0.4724 -0.1470
 1201TIP3   OH225093   2.518   5.112   5.070  0.2475  0.1722 -0.5235
 1201TIP3    H125094   2.480   5.186   5.118 -0.1653  0.9185 -1.9795
 1201TIP3    H225095   2.600   5.146   5.035  1.2428 -0.8049  0.8465
 1202TIP3   OH225096   5.278   1.413  13.644  0.8409 -0.5721  0.4002
 1202TIP3    H125097   5.233   1.362  13.577  1.0613 -0.0708 -0.1376
 1202TIP3    H225098   5.237   1.500  13.639  1.2044 -0.3916  0.5631
 1203TIP3   OH225099   1.635   0.043   1.492  0.0100 -0.4226 -0.1693
 1203TIP3    H125100   1.558   0.086   1.531  1.0372  1.7207 -0.3887
 1203TIP3    H225101   1.603  -0.041   1.461 -2.0804  0.1265  0.4240
 1204TIP3   OH225102   1.806   4.905   4.489 -0.0938  0.2947  0.4219
 1204TIP3    H125103   1.813   4.814   4.520 -1.7671  0.5221  1.5090
 1204TIP3    H225104   1.797   4.896   4.394 -0.8419 -0.7201  0.5734
 1205TIP3   OH225105   6.217   6.240  11.272  0.5824 -0.5705 -0.5322
 1205TIP3    H125106   6.219   6.256  11.366  0.3630 -1.8520 -0.3018
 1205TIP3    H225107   6.202   6.327  11.234  2.1297  0.1715  0.5217
 1206TIP3   OH225108   1.116   0.259   3.564  0.4907  0.6543 -0.0813
 1206TIP3    H125109   1.177   0.303   3.623 -1.2745  1.6523  1.0650
 1206TIP3    H225110   1.128   0.166   3.582  2.5245  0.7718 -0.7557
 1207TIP3   OH225111   2.860   1.456   4.275  0.0332 -0.0946  0.4845
 1207TIP3    H125112   2.804   1.401   4.219 -1.7701  1.4724  0.6872
 1207TIP3    H225113   2.949   1.430   4.253 -0.6495  0.0579 -2.7077
 1208TIP3   OH225114   5.676   4.778   4.994  0.1215 -0.3422 -0.8962
 1208TIP3    H125115   5.639   4.863   5.019  0.0104 -0.5301 -0.4253
 1208TIP3    H225116   5.729   4.752   5.069 -3.0410 -2.5810  0.6543
 1209TIP3   OH225117   5.890   6.232  12.298 -0.0758  0.2226  0.1656
 1209TIP3    H125118   5.830   6.295  12.337  0.6642 -0.1847  2.0197
 1209TIP3    H225119   5.843   6.149  12.301 -0.3266  0.3369 -0.5525
 1210TIP3   OH225120   5.107   3.540  14.404 -0.2972  0.5240 -0.0093
 1210TIP3    H125121   5.152   3.624  14.391  2.1933 -0.5712  1.0279
 1210TIP3    H225122   5.110   3.527  14.499 -0.6353 -0.7474 -0.1719
 1211TIP3   OH225123   3.366   0.203  10.955  0.3265 -0.1157 -0.7201
 1211TIP3    H125124   3.307   0.137  10.994 -2.2101  2.0898 -0.6836
 1211TIP3    H225125   3.376   0.176  10.864 -1.6531  0.0532 -1.0098
 1212TIP3   OH225126   3.452   6.471  10.963  0.3910  0.7394  0.2255
 1212TIP3    H125127   3.513   6.431  10.901  0.3444  0.2264  0.5087
 1212TIP3    H225128   3.370   6.423  10.950  0.0819  1.3514 -0.0741
 1213TIP3   OH225129   2.466   1.526  15.644  0.2809  0.3093 -0.0633
 1213TIP3    H125130   2.505   1.543  15.558  0.8857  0.9237  0.3152
 1213TIP3    H225131   2.384   1.575  15.643  1.0013  1.5628  0.2412
 1214TIP3   OH225132   5.710   4.231   1.725 -0.4528  0.3186 -0.3088
 1214TIP3    H125133   5.659   4.153   1.746 -0.5964 -0.0351 -1.9187
 1214TIP3    H225134   5.796   4.197   1.701 -0.5423  0.6475 -1.0906
 1215TIP3   OH225135   2.911   2.467   5.151 -0.1641 -0.0805  0.5331
 1215TIP3    H125136   2.957   2.543   5.187 -0.5397  0.1755  0.4803
 1215TIP3    H225137   2.833   2.504   5.110 -0.0556 -0.4335  0.0013
 1216TIP3   OH225138   4.480   6.482   3.162  0.0946  0.0517 -0.1869
 1216TIP3    H125139   4.533   6.441   3.230 -1.5476 -0.8360  0.6043
 1216TIP3    H225140   4.469   6.572   3.190 -0.1826 -0.1906  0.4963
 1217TIP3   OH225141   0.906   6.674   2.393 -0.1013  0.8302  0.1254
 1217TIP3    H125142   0.940   6.589   2.422  0.3708  0.8473 -0.3790
 1217TIP3    H225143   0.962   6.738   2.438  0.2045  0.8638 -0.3061
 1218TIP3   OH225144   6.004   3.876   2.143  0.0446  0.6037 -0.6038
 1218TIP3    H125145   5.965   3.946   2.196  1.1953 -1.2922  2.8736
 1218TIP3    H225146   6.084   3.915   2.108 -0.9919  2.0446 -1.4502
 1219TIP3   OH225147   3.768   4.978  14.202 -0.1405  0.6680  0.3673
 1219TIP3    H125148   3.791   5.062  14.163 -0.5136  0.9466  0.7388
 1219TIP3    H225149   3.674   4.982  14.215 -0.4553 -0.5517 -1.3312
 1220TIP3   OH225150   2.352   5.692   0.964  0.4895 -0.2566  0.4239
 1220TIP3    H125151   2.382   5.728   1.048  1.2565 -1.1704  0.5509
 1220TIP3    H225152   2.309   5.610   0.988  0.0324 -0.1436 -0.0096
 1221TIP3   OH225153   1.336   5.437   0.180  0.0430  0.9955  0.0425
 1221TIP3    H125154   1.302   5.410   0.095 -1.0043  0.0812  0.7359
 1221TIP3    H225155   1.430   5.451   0.165  0.1795 -0.7659 -0.8894
 1222TIP3   OH225156   6.618   3.648   5.192  0.1658 -0.5635  0.1836
 1222TIP3    H125157   6.705   3.629   5.155  1.0541 -0.6475  2.2473
 1222TIP3    H225158   6.587   3.564   5.225 -0.2020 -0.3160  0.4766
 1223TIP3   OH225159   5.009   5.297   0.332 -0.4991  0.1075 -0.4137
 1223TIP3    H125160   5.086   5.352   0.348 -0.1935 -0.1673 -0.9344
 1223TIP3    H225161   4.935   5.349   0.363 -0.1306  0.4929 -0.1838
 1224TIP3   OH225162   4.060   0.216   3.572  0.2695  0.0446  0.7322
 1224TIP3    H125163   4.039   0.275   3.500 -0.8771 -0.7502  0.3977
 1224TIP3    H225164   4.144   0.248   3.606  0.7129  0.5501 -0.8178
 1225TIP3   OH225165   3.267   0.875  11.599  0.4549  0.0360  0.2065
 1225TIP3    H125166   3.330   0.927  11.649  0.4198  0.5836 -0.3121
 1225TIP3    H225167   3.314   0.796  11.574  0.0882 -0.8537  2.2201
 1226TIP3   OH225168   6.284   4.989  16.245 -0.2546  0.0141  0.2718
 1226TIP3    H125169   6.347   5.060  16.259 -0.5634  0.3780 -0.1861
 1226TIP3    H225170   6.244   5.008  16.160  0.6442 -1.4533 -0.5066
 1227TIP3   OH225171   4.638   2.004   5.797  0.2752 -0.3945 -0.2937
 1227TIP3    H125172   4.727   2.016   5.765  0.2611  0.9102  0.1401
 1227TIP3    H225173   4.606   2.093   5.814 -0.8352 -0.8927  0.2737
 1228TIP3   OH225174   1.008   6.298  11.335  0.5832 -0.0221 -0.3337
 1228TIP3    H125175   1.070   6.300  11.262  1.0957  0.3432  0.1101
 1228TIP3    H225176   1.018   6.382  11.378  0.3684 -0.2840  0.2353
 1229TIP3   OH225177   6.714   4.741   3.833  0.3953 -0.2520  0.0521
 1229TIP3    H125178   6.619   4.728   3.831  0.4990 -0.8939 -0.8559
 1229TIP3    H225179   6.735   4.778   3.747  1.0546 -0.7393 -0.0005
 1230TIP3   OH225180   5.210   6.383  11.309 -0.6632  0.3529  0.0920
 1230TIP3    H125181   5.295   6.380  11.352  0.5363  2.2261 -2.0106
 1230TIP3    H225182   5.202   6.473  11.278 -1.7075 -0.7525 -3.0482
 1231TIP3   OH225183   1.913   6.719   3.042  0.2710  0.4110  0.2726
 1231TIP3    H125184   1.913   6.752   3.131  0.1896  1.2021 -0.0228
 1231TIP3    H225185   1.972   6.777   2.994  0.5267 -0.1667 -0.1340
 1232TIP3   OH225186   2.935   6.147  17.088 -0.5467  0.2746 -0.3232
 1232TIP3    H125187   2.867   6.212  17.107 -0.6685  0.1779 -0.4259
 1232TIP3    H225188   2.964   6.168  16.999 -3.3597 -2.2555 -1.9091
 1233TIP3   OH225189   6.637   0.022   6.056  0.0451 -0.2097 -0.1995
 1233TIP3    H125190   6.608  -0.067   6.071 -1.0068 -0.0187 -1.0747
 1233TIP3    H225191   6.582   0.076   6.113  1.5826 -0.2104  1.3583
 1234TIP3   OH225192   5.768   1.381  17.083  0.0486 -0.5070 -0.6351
 1234TIP3    H125193   5.744   1.339  17.001 -0.2300  0.0439 -0.8350
 1234TIP3    H225194   5.862   1.364  17.092  0.6572  1.6808 -2.3900
 1235TIP3   OH225195   0.148   6.653  14.239 -0.5689 -0.1766 -0.2740
 1235TIP3    H125196   0.189   6.567  14.227 -2.2030 -1.3096  1.8797
 1235TIP3    H225197   0.054   6.637  14.226 -0.6826  1.7318 -1.9758
 1236TIP3   OH225198   4.066   0.531  12.245 -0.0236  0.0120 -0.1965
 1236TIP3    H125199   4.051   0.593  12.316 -0.6142  0.5307 -0.7654
 1236TIP3    H225200   4.160   0.512  12.249 -0.2258 -0.7455  1.3597
 1237TIP3   OH225201   4.667   5.056  14.360  0.6750  0.3078 -0.5676
 1237TIP3    H125202   4.741   5.052  14.299 -0.2673 -1.8222 -1.6279
 1237TIP3    H225203   4.633   5.145  14.352  1.8716  0.6857 -1.5748
 1238TIP3   OH225204   4.180   1.490   5.381  0.2381 -0.6388  0.1597
 1238TIP3    H125205   4.226   1.471   5.462 -0.2365 -1.7371  0.1809
 1238TIP3    H225206   4.142   1.406   5.354  2.2615 -0.8102 -2.3782
 1239TIP3   OH225207   0.054   3.434  12.709  0.2725  0.2780  0.0669
 1239TIP3    H125208   0.020   3.439  12.798 -0.6451  0.3089 -0.2855
 1239TIP3    H225209   0.002   3.365  12.667  3.2149 -2.4275  0.6562
 1240TIP3   OH225210   3.951   0.614  11.060 -0.5407 -0.5094 -0.2738
 1240TIP3    H125211   3.993   0.533  11.030  0.7618  1.1754 -3.0902
 1240TIP3    H225212   4.023   0.673  11.081 -1.4950  0.5527  0.0895
 1241TIP3   OH225213   0.035   0.614   1.338  0.1038 -0.1657 -0.7529
 1241TIP3    H125214  -0.025   0.618   1.263  1.9709 -0.0763 -2.2760
 1241TIP3    H225215   0.024   0.698   1.382 -0.1204  0.2605 -1.6205
 1242TIP3   OH225216   2.356   4.092   6.021 -0.0430  0.3071  0.5227
 1242TIP3    H125217   2.324   4.002   6.023  2.1010 -0.5243 -0.6555
 1242TIP3    H225218   2.426   4.095   6.086  0.9086  0.6844 -0.4919
 1243TIP3   OH225219   1.535   2.928  11.427 -0.1614  0.2478  0.3297
 1243TIP3    H125220   1.467   2.897  11.368  0.1198  0.0809  0.0918
 1243TIP3    H225221   1.615   2.927  11.374  0.1208 -0.0685  0.7638
 1244TIP3   OH225222   1.839   0.990   0.922 -0.0372 -0.6429  0.2386
 1244TIP3    H125223   1.773   1.059   0.913  0.0719 -0.6216 -0.4010
 1244TIP3    H225224   1.922   1.037   0.929 -0.1139 -0.6602  1.3313
 1245TIP3   OH225225   4.089   5.897   1.626 -0.1527 -0.2895 -0.4024
 1245TIP3    H125226   4.090   5.887   1.530 -0.2390 -0.3173 -0.4005
 1245TIP3    H225227   4.013   5.953   1.643  0.7440  0.9714 -0.4700
 1246TIP3   OH225228   4.909   0.303   2.076  0.1767  0.0744  0.1185
 1246TIP3    H125229   4.977   0.295   2.143  1.2605 -0.6790 -1.0531
 1246TIP3    H225230   4.876   0.214   2.065 -1.3852  0.5226  1.0644
 1247TIP3   OH225231   3.954   6.730   4.461  0.2510  0.4524  0.0082
 1247TIP3    H125232   3.987   6.651   4.418 -0.3240  0.3676 -0.2822
 1247TIP3    H225233   4.032   6.770   4.499  0.3534 -1.0295  1.4363
 1248TIP3   OH225234   2.409   3.717  13.046 -0.3388  0.8044 -0.0948
 1248TIP3    H125235   2.453   3.657  13.106 -1.0846  0.8381  0.4849
 1248TIP3    H225236   2.441   3.804  13.070  0.9830  0.6331 -1.1411
 1249TIP3   OH225237   5.799   5.795   3.174  0.3452  0.0898 -0.4264
 1249TIP3    H125238   5.814   5.776   3.082 -0.8438  1.9794 -1.0315
 1249TIP3    H225239   5.776   5.710   3.213  2.5912 -1.0201 -1.4835
 1250TIP3   OH225240   6.162   1.972  11.685 -0.7221 -0.0738  0.1948
 1250TIP3    H125241   6.148   2.002  11.775 -2.2910  1.0170 -0.3990
 1250TIP3    H225242   6.223   2.035  11.648 -0.6457 -0.1046  0.2674
 1251TIP3   OH225243   3.078   2.242   1.266  0.4443  0.6602 -0.5578
 1251TIP3    H125244   3.105   2.182   1.336  0.6703 -0.5663 -1.6849
 1251TIP3    H225245   2.984   2.228   1.257  0.0564  2.1845  0.7582
 1252TIP3   OH225246   3.428   5.136  16.337 -0.8934 -0.1915  0.1853
 1252TIP3    H125247   3.445   5.230  16.345 -0.1347 -0.3738  0.7119
 1252TIP3    H225248   3.334   5.128  16.356 -0.7213  0.3202  1.3314
 1253TIP3   OH225249   6.248   5.206  15.196  0.4071  0.1652 -0.3355
 1253TIP3    H125250   6.254   5.111  15.197 -1.5491  0.0121 -0.7963
 1253TIP3    H225251   6.167   5.225  15.148  1.9427  2.1170 -2.2954
 1254TIP3   OH225252   5.884   3.031  15.572  0.3707  0.3753  0.7728
 1254TIP3    H125253   5.826   3.059  15.502  0.7497  1.4471  0.8820
 1254TIP3    H225254   5.960   2.994  15.528  0.7178  1.2750  0.6178
 1255TIP3   OH225255   3.736   5.121   1.391  0.1808 -0.5179 -0.5124
 1255TIP3    H125256   3.736   5.185   1.320  0.8243 -1.7062 -1.6132
 1255TIP3    H225257   3.761   5.171   1.469 -0.6481  0.8184 -1.1031
 1256TIP3   OH225258   1.526   2.094  13.955 -0.2109  0.0912 -0.2688
 1256TIP3    H125259   1.439   2.130  13.937 -0.1261  0.3640 -0.1352
 1256TIP3    H225260   1.584   2.141  13.895  0.1367  1.2928  0.9734
 1257TIP3   OH225261   5.743   4.163  16.369 -0.6212 -0.1820 -0.2434
 1257TIP3    H125262   5.747   4.259  16.372 -1.5120 -0.1919  1.9339
 1257TIP3    H225263   5.832   4.135  16.389 -0.4677  0.1658 -0.4148
 1258TIP3   OH225264   0.036   0.960  14.742  0.1022  0.0624 -0.0181
 1258TIP3    H125265  -0.042   1.006  14.774  2.6468  2.9206  2.2865
 1258TIP3    H225266   0.067   0.910  14.817  0.3449 -1.3664 -1.0427
 1259TIP3   OH225267   3.004   0.495   5.374 -0.1434  0.1722  0.4859
 1259TIP3    H125268   3.000   0.421   5.313 -2.4025 -1.3315  2.3757
 1259TIP3    H225269   3.089   0.485   5.417 -0.3356 -1.2346  0.5697
 1260TIP3   OH225270   3.562   0.793  12.136  0.2290  0.0315 -0.3220
 1260TIP3    H125271   3.467   0.796  12.142  0.1631 -0.7969 -0.8388
 1260TIP3    H225272   3.580   0.794  12.041  0.7081 -0.4704 -0.2383
 1261TIP3   OH225273   2.991   5.331  13.398 -0.6409  0.6259  0.6612
 1261TIP3    H125274   2.999   5.248  13.444  0.8842  0.4531  0.1197
 1261TIP3    H225275   2.923   5.379  13.445  0.9482  0.5029  3.1762
 1262TIP3   OH225276   5.544   4.214   0.279  0.6980  0.0909  0.0632
 1262TIP3    H125277   5.586   4.139   0.322  1.2516 -0.3477 -1.2175
 1262TIP3    H225278   5.596   4.290   0.305  0.9998 -0.1683  0.2070
 1263TIP3   OH225279   3.954   4.895   3.590  0.2316  0.2508 -0.4778
 1263TIP3    H125280   4.033   4.938   3.623 -0.5281  0.0038  1.7845
 1263TIP3    H225281   3.965   4.803   3.615 -1.5823  0.5401  1.5527
 1264TIP3   OH225282   1.404   0.320   2.860  0.1298  0.3748  0.3174
 1264TIP3    H125283   1.488   0.364   2.873  0.6585 -0.5713  0.1485
 1264TIP3    H225284   1.370   0.306   2.948  0.0417  0.9401  0.3792
 1265TIP3   OH225285   2.605   0.654   3.270 -0.1210  0.1518  0.2065
 1265TIP3    H125286   2.639   0.680   3.185  1.3751  1.0633  1.0606
 1265TIP3    H225287   2.510   0.658   3.261  0.0217  0.0031 -1.4763
 1266TIP3   OH225288   2.714   5.152  15.516  0.7221  0.1278  0.9733
 1266TIP3    H125289   2.788   5.195  15.558  1.8066 -1.2829  0.5322
 1266TIP3    H225290   2.715   5.185  15.426  0.7039  0.2527  1.0185
 1267TIP3   OH225291   0.620   0.394   3.544 -0.2467 -0.2245 -0.0047
 1267TIP3    H125292   0.589   0.485   3.543  0.1385 -0.0929 -0.8798
 1267TIP3    H225293   0.710   0.399   3.511 -0.4709 -0.9997 -0.7773
 1268TIP3   OH225294   0.443   6.688  14.044 -0.0028  0.1267 -0.0514
 1268TIP3    H125295   0.504   6.716  14.112 -1.9580  1.8985  1.0059
 1268TIP3    H225296   0.425   6.767  13.993 -0.9524 -0.5102 -0.7147
 1269TIP3   OH225297   3.543   1.150   1.533  0.2855 -0.0374  0.2173
 1269TIP3    H125298   3.476   1.159   1.601  0.0447  0.5017 -0.0910
 1269TIP3    H225299   3.494   1.134   1.453  0.5521 -0.2294  0.0922
 1270TIP3   OH225300   3.529   3.385   3.603 -0.2484 -0.0236 -0.2439
 1270TIP3    H125301   3.468   3.316   3.628  0.4731 -0.1618  1.2123
 1270TIP3    H225302   3.475   3.462   3.588 -0.7160  0.0217  1.6537
 1271TIP3   OH225303   5.037   6.088  14.239 -0.0524 -0.3532 -0.0984
 1271TIP3    H125304   5.065   6.058  14.325 -0.2489  1.1626  0.5077
 1271TIP3    H225305   4.942   6.078  14.239  0.0530 -1.4139 -0.5618
 1272TIP3   OH225306   0.903   6.229   3.930 -0.2007  0.4515 -0.4298
 1272TIP3    H125307   0.956   6.189   3.860 -0.4127  0.0022 -0.3347
 1272TIP3    H225308   0.823   6.177   3.933  1.2214 -1.6889  2.4291
 1273TIP3   OH225309   0.376   0.919  16.394 -0.5267 -0.5351 -0.5311
 1273TIP3    H125310   0.377   1.007  16.356 -1.2277 -0.9799 -1.6312
 1273TIP3    H225311   0.288   0.910  16.432 -0.2237 -0.5113  0.1706
 1274TIP3   OH225312   1.217   1.890  14.119  0.3923 -0.7978  0.4637
 1274TIP3    H125313   1.180   1.977  14.135  0.1673 -0.9102  0.5530
 1274TIP3    H225314   1.291   1.885  14.180  0.8299 -0.3995 -0.0277
 1275TIP3   OH225315   3.760   4.350   2.888  0.1601 -0.0533 -0.3070
 1275TIP3    H125316   3.850   4.361   2.859  0.0536 -2.5543 -1.7983
 1275TIP3    H225317   3.766   4.333   2.982  1.1446  0.8663 -0.2035
 1276TIP3   OH225318   1.251   5.169  14.181  0.1521  0.8848  0.3348
 1276TIP3    H125319   1.202   5.103  14.230  0.2851  0.6915  0.2105
 1276TIP3    H225320   1.326   5.189  14.236 -0.7177  2.1102  1.0996
 1277TIP3   OH225321   4.073   5.424   4.979 -0.0085 -0.2312  0.1993
 1277TIP3    H125322   4.159   5.463   4.996 -0.0100  0.0527 -0.4388
 1277TIP3    H225323   4.080   5.335   5.012  0.8828 -0.5439 -0.7933
 1278TIP3   OH225324   1.984   0.207  10.902 -0.3501  0.0749 -0.7506
 1278TIP3    H125325   2.042   0.214  10.977  1.8219  1.0991 -2.4564
 1278TIP3    H225326   1.913   0.150  10.931 -0.0217  1.1651  2.3269
 1279TIP3   OH225327   1.240   2.638  15.422  0.1843 -0.3449  0.4996
 1279TIP3    H125328   1.150   2.610  15.440 -0.4188  0.2119 -1.4923
 1279TIP3    H225329   1.285   2.630  15.506 -1.6289 -0.9991  1.4362
 1280TIP3   OH225330   1.059   5.648  14.296  0.1961 -0.3399  0.2696
 1280TIP3    H125331   1.113   5.590  14.350  1.6792  1.2407  0.5679
 1280TIP3    H225332   1.117   5.722  14.276 -0.9282 -0.0193 -1.9540
 1281TIP3   OH225333   4.721   3.181   4.387 -0.4820  0.3070 -0.3468
 1281TIP3    H125334   4.739   3.138   4.303  0.4320  0.4639 -0.2304
 1281TIP3    H225335   4.801   3.229   4.407  0.4673 -2.1692  2.0882
 1282TIP3   OH225336   6.677   6.061  11.536  0.2399  0.4068 -0.0949
 1282TIP3    H125337   6.601   6.067  11.479 -1.1469  1.9351  1.8727
 1282TIP3    H225338   6.642   6.033  11.620  1.9554  0.4700  0.6705
 1283TIP3   OH225339   3.595   5.046   0.926  0.2950 -0.0073  0.2127
 1283TIP3    H125340   3.551   5.131   0.920  1.0480  0.5164  1.9419
 1283TIP3    H225341   3.675   5.057   0.876  1.0060  0.7093  1.4942
 1284TIP3   OH225342   2.192   6.347  14.493 -0.2513 -0.1640 -0.1193
 1284TIP3    H125343   2.259   6.283  14.518 -0.0741  0.1003  0.0869
 1284TIP3    H225344   2.146   6.366  14.575  0.4866  0.8880  0.0601
 1285TIP3   OH225345   2.671   4.170  10.586  0.3812 -0.2286  0.3618
 1285TIP3    H125346   2.724   4.187  10.508  0.7021 -0.8611  0.4374
 1285TIP3    H225347   2.609   4.102  10.559  0.3186 -0.2598  0.5845
 1286TIP3   OH225348   2.620   4.223   2.873 -0.3327  0.1152 -0.8161
 1286TIP3    H125349   2.546   4.195   2.927 -0.0862 -1.1837 -1.1386
 1286TIP3    H225350   2.590   4.304   2.832 -1.0603  0.3333  0.1309
 1287TIP3   OH225351   4.586   4.212   3.273  0.3867 -0.4173  0.1486
 1287TIP3    H125352   4.582   4.306   3.257 -0.0835 -0.2551  1.1862
 1287TIP3    H225353   4.544   4.173   3.196  1.1676  0.1843 -0.5856
 1288TIP3   OH225354   6.199   4.612  13.351 -0.2891 -1.0844 -0.3581
 1288TIP3    H125355   6.215   4.655  13.267  0.8020 -2.9271 -1.1085
 1288TIP3    H225356   6.279   4.628  13.402 -1.0451  0.2379  0.4342
 1289TIP3   OH225357   5.054   5.870   2.898  0.1031  0.0066  0.0282
 1289TIP3    H125358   5.029   5.836   2.984  0.6683 -0.6275 -0.0481
 1289TIP3    H225359   5.041   5.795   2.839  1.3120 -0.0653 -0.1567
 1290TIP3   OH225360   5.896   1.933   4.791 -0.1251 -0.3679  0.2848
 1290TIP3    H125361   5.914   2.012   4.842  0.0633  0.6310 -1.2824
 1290TIP3    H225362   5.935   1.951   4.705  2.1481 -3.1718  0.6615
 1291TIP3   OH225363   2.537   2.355  14.455  0.2249  0.1803 -0.6098
 1291TIP3    H125364   2.510   2.442  14.481 -0.0312 -0.1779  0.3270
 1291TIP3    H225365   2.621   2.368  14.409 -1.0875  1.1978 -2.8085
 1292TIP3   OH225366   0.870   3.214  11.093  0.1272 -0.9429 -0.4847
 1292TIP3    H125367   0.835   3.156  11.025  0.7415 -1.1429 -0.6312
 1292TIP3    H225368   0.855   3.302  11.059 -2.0724 -0.9480  0.3528
 1293TIP3   OH225369   1.425   4.286   0.281 -0.7030 -0.0690 -0.0917
 1293TIP3    H125370   1.330   4.297   0.294 -0.5522 -0.0231  0.9957
 1293TIP3    H225371   1.455   4.246   0.362  0.4618  1.3016  0.1680
 1294TIP3   OH225372   1.743   6.024  14.304  0.4808 -0.1469 -0.5406
 1294TIP3    H125373   1.837   6.038  14.293  0.3644  1.5094  0.4724
 1294TIP3    H225374   1.736   5.967  14.380  0.6062  1.3356  0.6093
 1295TIP3   OH225375   4.269   2.902  12.327  0.3008  0.2697 -0.5803
 1295TIP3    H125376   4.233   2.826  12.374  1.3024 -0.3850 -0.8352
 1295TIP3    H225377   4.364   2.888  12.330  0.6273  2.6189  1.2033
 1296TIP3   OH225378   2.518   6.480  13.666 -0.2873  0.0535 -0.2605
 1296TIP3    H125379   2.602   6.474  13.621 -0.6970  0.7478 -1.1324
 1296TIP3    H225380   2.537   6.527  13.748  0.3373 -0.6304 -0.0113
 1297TIP3   OH225381   1.677   1.700  14.340  0.2348 -0.3085 -0.2355
 1297TIP3    H125382   1.713   1.681  14.254  0.4236  2.0200 -0.6981
 1297TIP3    H225383   1.752   1.730  14.392  0.2715 -2.4159  0.9998
 1298TIP3   OH225384   5.899   6.145  13.831  0.1351 -0.0959 -0.2359
 1298TIP3    H125385   5.870   6.206  13.764  1.2811 -0.7780 -1.3697
 1298TIP3    H225386   5.984   6.112  13.799  1.8987  1.4007  2.6454
 1299TIP3   OH225387   0.317   2.321   5.935 -0.4539 -0.6990 -0.1665
 1299TIP3    H125388   0.328   2.392   5.999  0.3750  0.1137 -1.1916
 1299TIP3    H225389   0.238   2.276   5.963  0.2502 -0.7445  1.8077
 1300TIP3   OH225390   3.836   2.910   0.115 -0.1036 -0.3745 -0.1537
 1300TIP3    H125391   3.799   2.995   0.093 -0.5707 -1.0963 -2.1818
 1300TIP3    H225392   3.917   2.931   0.161 -0.3707  1.1640 -0.3566
 1301TIP3   OH225393   2.320   0.657  14.718 -0.0746  0.3169  0.1950
 1301TIP3    H125394   2.245   0.599  14.735  0.4788 -1.1564 -2.1716
 1301TIP3    H225395   2.323   0.715  14.794 -3.0133 -0.2525  0.8118
 1302TIP3   OH225396   2.648   0.851  16.739  0.0058  0.2170 -0.0035
 1302TIP3    H125397   2.692   0.803  16.670 -1.0849 -1.7970  0.6351
 1302TIP3    H225398   2.683   0.814  16.820 -1.3869 -0.0610  0.5004
 1303TIP3   OH225399   4.463   4.309   3.944  0.2810  0.0138  0.0222
 1303TIP3    H125400   4.409   4.329   4.020  1.1409 -1.2768  0.9810
 1303TIP3    H225401   4.519   4.237   3.972  2.4665  1.2880 -0.9704
 1304TIP3   OH225402   5.354   4.038  11.329  0.1892  0.2795  0.2359
 1304TIP3    H125403   5.357   4.048  11.234 -1.2392  1.1478  0.2629
 1304TIP3    H225404   5.262   4.052  11.352  0.3484 -0.8538  1.6551
 1305TIP3   OH225405   2.229   1.517   6.172  0.2197 -0.4390  0.4391
 1305TIP3    H125406   2.313   1.538   6.131  0.0723 -2.1822 -0.8009
 1305TIP3    H225407   2.253   1.480   6.257  0.8393 -2.6747 -0.6591
 1306TIP3   OH225408   1.904   3.906  12.233 -0.0377 -0.2166 -0.5448
 1306TIP3    H125409   1.933   3.901  12.142 -0.5092 -0.6256 -0.6769
 1306TIP3    H225410   1.848   3.984  12.236 -3.0133 -2.2114 -1.4926
 1307TIP3   OH225411   2.306   4.386  17.027 -0.1094 -0.0830 -0.0482
 1307TIP3    H125412   2.341   4.466  17.067 -0.4207 -0.4477  0.9568
 1307TIP3    H225413   2.380   4.325  17.028 -0.5751 -0.6423  1.4967
 1308TIP3   OH225414   5.898   2.104  13.307 -0.4259  0.7078 -0.0166
 1308TIP3    H125415   5.813   2.142  13.329 -0.8189  0.6022 -1.2755
 1308TIP3    H225416   5.959   2.143  13.369 -1.8342 -1.3117  2.7449
 1309TIP3   OH225417   3.828   4.011   1.316  0.3953 -0.2973  0.2398
 1309TIP3    H125418   3.756   4.012   1.253  2.4044 -1.0068 -2.1706
 1309TIP3    H225419   3.873   4.094   1.303  0.1601  0.0604  1.5989
 1310TIP3   OH225420   6.460   2.283   4.136  0.6389  0.0077  0.2008
 1310TIP3    H125421   6.432   2.285   4.045  1.7058 -2.0861 -0.2192
 1310TIP3    H225422   6.483   2.373   4.157 -1.4665  0.8536 -0.9894
 1311TIP3   OH225423   4.516   3.583  16.442 -0.0004  0.0242  0.2216
 1311TIP3    H125424   4.466   3.593  16.361  1.7695 -0.5572 -0.9671
 1311TIP3    H225425   4.496   3.494  16.471  1.2481 -0.6450 -0.9032
 1312TIP3   OH225426   3.035   4.377  15.077  0.2154 -0.5710 -0.0489
 1312TIP3    H125427   3.101   4.410  15.015 -0.2942  0.2157 -0.1844
 1312TIP3    H225428   3.035   4.282  15.064 -1.3862 -0.2583 -2.7896
 1313TIP3   OH225429   5.564   2.634   3.579 -0.5361 -0.7688  0.6453
 1313TIP3    H125430   5.620   2.635   3.657  0.2191 -2.2537  0.1373
 1313TIP3    H225431   5.604   2.696   3.519 -1.7540  1.2337  1.8640
 1314TIP3   OH225432   2.823   1.040   3.270 -0.0906  0.6073 -0.1775
 1314TIP3    H125433   2.919   1.032   3.265 -0.1598 -1.2672  0.9461
 1314TIP3    H225434   2.806   1.134   3.267  1.7205  0.9216 -1.5157
 1315TIP3   OH225435   1.560   6.332  14.857 -0.1357  0.2896 -0.0630
 1315TIP3    H125436   1.567   6.426  14.838  1.9221  0.5169  1.5848
 1315TIP3    H225437   1.646   6.297  14.835 -0.3519 -0.8990  0.9334
 1316TIP3   OH225438   5.933   0.893  13.631  0.0910 -0.0053 -0.1537
 1316TIP3    H125439   5.855   0.849  13.666 -0.7803  1.2044 -0.5268
 1316TIP3    H225440   6.006   0.838  13.659 -1.0225 -2.2660 -1.4793
 1317TIP3   OH225441   3.042   1.337  12.998 -0.6327 -0.1061  0.6280
 1317TIP3    H125442   3.049   1.299  13.085  1.5559  3.7350  2.2429
 1317TIP3    H225443   3.112   1.295  12.948  0.3982  0.2348  1.7668
 1318TIP3   OH225444   4.595   3.115   3.692  0.3421 -0.5204 -0.3319
 1318TIP3    H125445   4.676   3.088   3.650  0.2902  0.3500 -1.0047
 1318TIP3    H225446   4.568   3.194   3.645  0.2494  0.4485  1.2966
 1319TIP3   OH225447   1.322   3.838  16.978  0.0403  0.0327 -0.2077
 1319TIP3    H125448   1.310   3.932  16.964 -0.7138  0.1035  0.8244
 1319TIP3    H225449   1.417   3.825  16.975  0.1030  0.6925 -1.1562
 1320TIP3   OH225450   6.713   5.938   2.357  0.3487  0.4077  0.3394
 1320TIP3    H125451   6.628   5.974   2.337  1.0408  0.5128 -2.5640
 1320TIP3    H225452   6.775   6.007   2.334  1.2683  0.0368  1.6485
 1321TIP3   OH225453   1.375   3.464  16.566 -0.1975  0.0173  0.6724
 1321TIP3    H125454   1.365   3.496  16.476 -0.4235  0.7759  0.9585
 1321TIP3    H225455   1.465   3.489  16.589 -0.3509  0.3813  0.8738
 1322TIP3   OH225456   0.235   6.587   3.694 -0.4692 -0.5164 -0.1071
 1322TIP3    H125457   0.245   6.506   3.743  0.3678 -0.2825  0.1156
 1322TIP3    H225458   0.158   6.573   3.639 -0.9794 -1.0484  0.7413
 1323TIP3   OH225459   4.709   0.745  10.758  0.3625  0.7633  0.8627
 1323TIP3    H125460   4.678   0.824  10.715  1.7296  0.8208 -0.0448
 1323TIP3    H225461   4.782   0.715  10.704  0.6164 -0.4540  1.8546
 1324TIP3   OH225462   4.591   5.714  11.208 -0.0250 -0.1050  0.3596
 1324TIP3    H125463   4.550   5.643  11.159  0.0588  0.1134 -0.0326
 1324TIP3    H225464   4.685   5.700  11.196 -0.0109  0.2359  0.0380
 1325TIP3   OH225465   4.162   1.768  15.093 -0.0635  0.3526 -0.1888
 1325TIP3    H125466   4.227   1.698  15.092  0.0417  0.4570 -0.7121
 1325TIP3    H225467   4.085   1.730  15.050 -0.5099  0.0787  0.8294
 1326TIP3   OH225468   5.073   4.274  14.120  0.2742  0.6268  0.0375
 1326TIP3    H125469   5.126   4.338  14.071 -1.5960  2.4239  0.3071
 1326TIP3    H225470   4.999   4.325  14.153 -0.6674 -1.4705  1.2176
 1327TIP3   OH225471   2.176   5.551  16.533 -0.3826 -0.2102  0.5834
 1327TIP3    H125472   2.217   5.513  16.456 -1.7676 -2.2950  0.8351
 1327TIP3    H225473   2.225   5.515  16.607 -1.9280 -1.8617  0.8371
 1328TIP3   OH225474   1.140   1.210  16.278 -0.5068  0.1135  0.0291
 1328TIP3    H125475   1.224   1.239  16.242  0.4044  1.0118  2.7184
 1328TIP3    H225476   1.142   1.115  16.270  0.2752  0.2051 -0.9824
 1329TIP3   OH225477   4.133   0.381   2.762 -0.1117  0.0358  0.4184
 1329TIP3    H125478   4.107   0.427   2.682 -0.0192 -0.6928 -0.0338
 1329TIP3    H225479   4.223   0.409   2.778 -0.2728  0.5137  0.5117
 1330TIP3   OH225480   1.381   6.675  16.440 -0.1565  0.1451 -0.1497
 1330TIP3    H125481   1.473   6.690  16.460 -0.9804  1.4235  2.9547
 1330TIP3    H225482   1.377   6.582  16.415  1.6713 -0.4186  1.5538
 1331TIP3   OH225483   3.767   4.293   4.038 -0.6057 -0.3371 -0.7179
 1331TIP3    H125484   3.786   4.200   4.024 -2.0758 -0.9223  1.0881
 1331TIP3    H225485   3.672   4.300   4.029 -0.4551  1.0846 -1.3009
 1332TIP3   OH225486   4.898   5.068  11.467 -0.4339  0.8007  0.8527
 1332TIP3    H125487   4.854   5.044  11.386 -0.5285 -0.0567  1.1446
 1332TIP3    H225488   4.841   5.134  11.507  0.6883  2.8340 -0.7910
 1333TIP3   OH225489   2.861   1.327  11.222  0.3362  0.1822  0.1942
 1333TIP3    H125490   2.865   1.358  11.132  0.9724  1.3856  0.6208
 1333TIP3    H225491   2.773   1.349  11.252 -0.1390 -0.9278 -0.3756
 1334TIP3   OH225492   6.263   5.686  12.503 -0.4177 -0.3078 -0.5777
 1334TIP3    H125493   6.284   5.713  12.414 -2.2434 -0.4333 -1.0554
 1334TIP3    H225494   6.314   5.745  12.559  1.6622 -1.0023 -1.6972
 1335TIP3   OH225495   5.535   3.457  13.327 -0.6872  0.3085  0.1533
 1335TIP3    H125496   5.537   3.461  13.423  0.1505 -0.3834  0.1650
 1335TIP3    H225497   5.623   3.484  13.301 -0.9731  0.6726 -0.4332
 1336TIP3   OH225498   0.333   1.989  11.166  0.3458  0.0711  0.5268
 1336TIP3    H125499   0.351   1.907  11.121  0.0731  0.1343  0.3060
 1336TIP3    H225500   0.417   2.012  11.207  0.1860 -0.7715  1.3426
 1337TIP3   OH225501   6.596   1.893  13.016 -0.7394 -0.2149 -0.0819
 1337TIP3    H125502   6.561   1.953  13.082  1.4256  0.6170  0.3616
 1337TIP3    H225503   6.572   1.806  13.048  0.1363  0.1795  1.7517
 1338TIP3   OH225504   5.409   4.132   3.333 -0.2059  0.3884  0.0910
 1338TIP3    H125505   5.460   4.052   3.347  0.6941  0.8597 -0.4575
 1338TIP3    H225506   5.350   4.110   3.261 -0.9082 -0.2070  0.8287
 1339TIP3   OH225507   4.440   5.433   2.163 -0.2411  0.0736  0.2727
 1339TIP3    H125508   4.484   5.483   2.095  0.1564 -0.5745  0.0468
 1339TIP3    H225509   4.458   5.341   2.141  0.7393 -0.1176  1.8075
 1340TIP3   OH225510   2.085   6.727   4.886 -0.2260 -0.1103 -0.0159
 1340TIP3    H125511   2.128   6.655   4.934 -1.6773 -0.9668  0.0178
 1340TIP3    H225512   1.992   6.719   4.908 -0.7051  0.4268 -1.7771
 1341TIP3   OH225513   3.549   1.051   2.540  0.0351  0.2078 -0.1833
 1341TIP3    H125514   3.547   0.988   2.612  0.9570 -1.2543 -1.4272
 1341TIP3    H225515   3.591   1.128   2.577  0.5426 -0.5470  0.8423
 1342TIP3   OH225516   3.452   0.107  13.289 -0.3772  0.0335  0.0551
 1342TIP3    H125517   3.482   0.098  13.199 -0.6001  1.4410 -0.1777
 1342TIP3    H225518   3.368   0.153  13.282 -0.7056 -0.4103  0.9413
 1343TIP3   OH225519   3.658   1.131   5.415 -0.3495  0.3310  0.1581
 1343TIP3    H125520   3.630   1.120   5.324 -0.8973 -0.7082  0.4447
 1343TIP3    H225521   3.601   1.200   5.450 -1.1664 -0.3431  0.1530
 1344TIP3   OH225522   4.140   0.496   1.768 -0.0821  0.0107  0.6274
 1344TIP3    H125523   4.208   0.562   1.756 -0.2442  0.1255  0.3186
 1344TIP3    H225524   4.176   0.435   1.832 -0.0861  0.6089  1.1983
 1345TIP3   OH225525   4.073   0.615  14.414  0.3807 -0.4083  0.4843
 1345TIP3    H125526   4.039   0.637  14.328  0.6085 -1.0566  0.2265
 1345TIP3    H225527   4.157   0.660  14.419 -0.9436  2.0650  1.5327
 1346TIP3   OH225528   0.246   0.848   2.134 -0.0632  0.1240 -0.0002
 1346TIP3    H125529   0.282   0.858   2.222 -0.9082  1.0959  0.2473
 1346TIP3    H225530   0.294   0.913   2.082 -0.9906  0.9685  0.1899
 1347TIP3   OH225531   1.050   2.218   2.772  0.1722  0.1134  0.2187
 1347TIP3    H125532   1.100   2.243   2.695  0.1333  0.3051  0.2531
 1347TIP3    H225533   1.115   2.203   2.840  0.1408  1.1972  0.4973
 1348TIP3   OH225534   6.813   2.597   1.227  0.0556 -0.1997 -1.2242
 1348TIP3    H125535   6.739   2.543   1.198  1.2160 -2.0174 -0.8528
 1348TIP3    H225536   6.885   2.570   1.170  1.6269 -1.7725  1.4193
 1349TIP3   OH225537   4.137   4.153  11.833  0.9883 -0.3287  0.7180
 1349TIP3    H125538   4.110   4.205  11.757 -0.0890 -0.8087  0.7554
 1349TIP3    H225539   4.230   4.135  11.819  1.0562  0.5243  0.0716
 1350TIP3   OH225540   2.970   3.825   0.048 -0.1718  0.6390 -0.1602
 1350TIP3    H125541   3.021   3.906   0.044 -1.6183  1.5429 -1.1235
 1350TIP3    H225542   3.018   3.764  -0.007 -0.2531  1.5598 -1.2858
 1351TIP3   OH225543   6.480   0.530  13.878 -0.2753  0.4325 -0.2252
 1351TIP3    H125544   6.407   0.573  13.923  0.4386  1.6408 -0.1978
 1351TIP3    H225545   6.441   0.454  13.836 -1.0006 -0.6794  2.3587
 1352TIP3   OH225546   4.970   0.426  14.250  0.0356 -0.2303  0.2973
 1352TIP3    H125547   5.039   0.359  14.252  0.1571 -0.0663  1.9916
 1352TIP3    H225548   4.899   0.388  14.302 -1.1059 -0.3176 -1.2753
 1353TIP3   OH225549   2.014   6.188  11.726 -0.0446  0.1978 -0.1291
 1353TIP3    H125550   1.990   6.192  11.818 -0.9336 -1.9872 -0.2240
 1353TIP3    H225551   1.952   6.246  11.681 -0.6866 -0.0223  0.4681
 1354TIP3   OH225552   0.776   5.198   2.042  0.4404  0.1787 -0.1066
 1354TIP3    H125553   0.749   5.165   1.957  1.0495  0.4097 -0.3963
 1354TIP3    H225554   0.855   5.250   2.024  1.8198 -1.5025  0.8650
 1355TIP3   OH225555   6.056   3.263   2.103 -0.0470  0.6345 -0.0231
 1355TIP3    H125556   6.128   3.319   2.132  0.0801  0.1681  0.5702
 1355TIP3    H225557   6.096   3.205   2.038  0.6636 -1.1702  1.9767
 1356TIP3   OH225558   3.467   4.611   1.957 -0.0296 -0.1668 -0.0180
 1356TIP3    H125559   3.539   4.626   1.895 -0.5154  0.6882 -0.3699
 1356TIP3    H225560   3.452   4.516   1.952  1.3217 -0.4114  0.3378
 1357TIP3   OH225561   6.782   4.871  15.066 -0.2161 -0.3127  0.2368
 1357TIP3    H125562   6.782   4.827  14.981  2.3879 -0.0123  0.0415
 1357TIP3    H225563   6.710   4.830  15.114 -0.0672 -2.3166 -1.1772
 1358TIP3   OH225564   2.571   1.598  15.084  0.0136 -0.0725  0.4465
 1358TIP3    H125565   2.632   1.663  15.050 -0.8898 -0.1836 -1.4600
 1358TIP3    H225566   2.495   1.605  15.027 -1.2021 -0.8991  1.9411
 1359TIP3   OH225567   1.818   1.714  16.448 -0.1292  0.4720  0.5063
 1359TIP3    H125568   1.903   1.748  16.478  0.0617 -1.1665  1.9437
 1359TIP3    H225569   1.758   1.734  16.520 -0.5511  0.0136  0.2834
 1360TIP3   OH225570   3.965   0.192  14.815 -0.1469  0.2194 -0.0493
 1360TIP3    H125571   3.980   0.193  14.721  1.3507  1.1476  0.1753
 1360TIP3    H225572   3.875   0.162  14.825 -0.9203  1.8021 -1.8736
 1361TIP3   OH225573   1.234   5.301  16.880  0.3169 -0.2001  0.0072
 1361TIP3    H125574   1.298   5.264  16.940 -0.4461 -0.7005  0.5138
 1361TIP3    H225575   1.274   5.289  16.793  1.1077 -0.0958  0.3543
 1362TIP3   OH225576   1.757   1.859   6.070  0.9337 -0.0695 -0.1499
 1362TIP3    H125577   1.700   1.888   6.141 -1.0289 -1.1180 -1.2479
 1362TIP3    H225578   1.771   1.938   6.018  0.5808  0.2324  0.2057
 1363TIP3   OH225579   0.445   5.499   1.881 -0.9986  0.0446  0.1532
 1363TIP3    H125580   0.508   5.531   1.945 -0.9056  1.5148 -0.6399
 1363TIP3    H225581   0.480   5.529   1.797 -1.4966 -1.2333 -0.5208
 1364TIP3   OH225582   2.796   6.436  14.582 -0.2569 -0.0852 -0.0550
 1364TIP3    H125583   2.835   6.508  14.532 -0.8276  2.7291  3.3630
 1364TIP3    H225584   2.705   6.433  14.554 -0.4175  1.0282  0.3521
 1365TIP3   OH225585   6.270   0.954  11.359 -0.2045  0.3423  0.5335
 1365TIP3    H125586   6.362   0.979  11.354  0.2176 -1.3505 -1.0475
 1365TIP3    H225587   6.250   0.919  11.272 -2.4047  0.8746  0.7903
 1366TIP3   OH225588   6.752   0.870   4.492 -0.0656 -0.3453 -0.5898
 1366TIP3    H125589   6.714   0.783   4.510 -0.2862 -0.2140 -0.4161
 1366TIP3    H225590   6.843   0.862   4.519 -0.1009 -0.5041 -0.5154
 1367TIP3   OH225591   4.581   2.402  14.349 -0.4692  0.0811  0.0983
 1367TIP3    H125592   4.654   2.394  14.288 -0.9331 -1.7657 -0.2572
 1367TIP3    H225593   4.503   2.406  14.294 -0.9843 -2.7375  0.5005
 1368TIP3   OH225594   0.334   2.422  15.450  0.3154  0.7157 -0.2680
 1368TIP3    H125595   0.258   2.366  15.469 -0.0232  0.4839 -2.2274
 1368TIP3    H225596   0.303   2.511  15.468 -0.2969  0.5853 -0.6711
 1369TIP3   OH225597   6.581   4.738  15.193  0.2116  0.2219 -0.1893
 1369TIP3    H125598   6.632   4.741  15.274  0.2265 -0.3721 -0.1696
 1369TIP3    H225599   6.548   4.648  15.189 -0.1826  0.3797 -0.6009
 1370TIP3   OH225600   5.349   4.145   5.438  0.1191  0.2635 -0.0774
 1370TIP3    H125601   5.367   4.084   5.367  2.6106  1.3118 -0.3697
 1370TIP3    H225602   5.299   4.093   5.501  1.0684 -1.7094 -0.8965
 1371TIP3   OH225603   4.312   0.940   4.336 -0.1719 -0.3414 -0.4956
 1371TIP3    H125604   4.396   0.980   4.313  0.4720  0.3819  2.8750
 1371TIP3    H225605   4.248   0.983   4.279  1.3218  1.3356 -0.9482
 1372TIP3   OH225606   3.789   0.408  11.656  0.6545 -0.0958 -0.2514
 1372TIP3    H125607   3.797   0.423  11.562 -3.8011  1.6022 -0.4756
 1372TIP3    H225608   3.716   0.347  11.665  1.5243 -0.8742  2.1233
 1373TIP3   OH225609   1.160   5.028   5.748  0.5542  0.0868  0.0062
 1373TIP3    H125610   1.163   5.026   5.844 -0.8079  1.1248  0.0835
 1373TIP3    H225611   1.068   5.044   5.727  0.3244 -2.8959 -1.5399
 1374TIP3   OH225612   0.273   2.143   0.072  0.2803 -0.4043 -0.9294
 1374TIP3    H125613   0.192   2.113   0.114  0.9663 -1.4155 -0.3254
 1374TIP3    H225614   0.246   2.169  -0.016 -1.0620  1.1122 -0.1104
 1375TIP3   OH225615   6.512   0.505   2.554  0.5625  0.0010  0.2730
 1375TIP3    H125616   6.532   0.476   2.643  1.3701 -0.7135 -0.1334
 1375TIP3    H225617   6.420   0.532   2.558 -0.0258 -1.9960  0.8358
 1376TIP3   OH225618   3.353   6.724   3.132  0.5196  0.1651  0.3724
 1376TIP3    H125619   3.285   6.675   3.084  0.9457  0.6275 -0.7040
 1376TIP3    H225620   3.435   6.697   3.090  0.9324  0.2393  1.1367
 1377TIP3   OH225621   5.681   5.682  11.783  0.8365 -0.0334 -0.0858
 1377TIP3    H125622   5.599   5.686  11.831 -0.2017  0.1043 -1.8106
 1377TIP3    H225623   5.678   5.759  11.725  0.0688 -2.4121 -3.3731
 1378TIP3   OH225624   1.402   1.101  15.068 -0.5831 -0.2250 -0.7082
 1378TIP3    H125625   1.486   1.130  15.032 -1.4189  0.1736 -2.4323
 1378TIP3    H225626   1.416   1.096  15.162  1.3039  0.0564 -0.9475
 1379TIP3   OH225627   1.973   1.467   1.097  0.3888 -0.0987  0.7715
 1379TIP3    H125628   1.913   1.542   1.093 -2.5205 -2.3685 -0.2057
 1379TIP3    H225629   2.016   1.467   1.012  1.4048  1.2237  1.2686
 1380TIP3   OH225630   2.617   2.206   3.693  0.3180  0.2921 -0.3622
 1380TIP3    H125631   2.554   2.135   3.680  1.5164 -0.9515  0.4954
 1380TIP3    H225632   2.568   2.272   3.742 -0.1021 -0.9947  0.9908
 1381TIP3   OH225633   2.669   5.342  13.863 -0.4753  0.7381 -0.1411
 1381TIP3    H125634   2.730   5.367  13.933 -0.0605  1.2653 -0.6852
 1381TIP3    H225635   2.584   5.377  13.892 -0.7695 -0.9772  1.1616
 1382TIP3   OH225636   3.638   3.290   1.001  0.2648 -0.3242 -0.3384
 1382TIP3    H125637   3.606   3.328   1.083  0.5592 -1.4655  0.3090
 1382TIP3    H225638   3.662   3.200   1.023 -1.3595 -1.2325 -2.0743
 1383TIP3   OH225639   4.118   1.832  12.103  0.1271  1.0279 -0.3295
 1383TIP3    H125640   4.124   1.794  12.015 -1.3519  1.6913 -0.7350
 1383TIP3    H225641   4.035   1.879  12.103  1.1512  2.8829  0.6979
 1384TIP3   OH225642   4.016   5.479  12.969 -0.2094 -0.0323  0.1180
 1384TIP3    H125643   3.935   5.503  12.923 -0.8679 -2.3727 -0.0464
 1384TIP3    H225644   3.987   5.459  13.058  0.3571  0.1927  0.3494
 1385TIP3   OH225645   0.141   6.074   0.544 -0.1178  0.2651 -0.0264
 1385TIP3    H125646   0.235   6.066   0.527 -0.2051 -0.2757 -0.2834
 1385TIP3    H225647   0.135   6.102   0.636  0.2601 -3.5821  1.2722
 1386TIP3   OH225648   6.189   4.276  10.609  0.1784 -0.0114 -0.1285
 1386TIP3    H125649   6.142   4.358  10.591  1.8099  0.8566 -0.5520
 1386TIP3    H225650   6.195   4.273  10.704  1.0970  0.9558 -0.1399
 1387TIP3   OH225651   1.680   1.515   5.129 -0.0309 -1.1289 -0.3979
 1387TIP3    H125652   1.619   1.572   5.175 -0.7228 -2.9408  1.0185
 1387TIP3    H225653   1.763   1.563   5.129 -1.2199  0.9750 -1.5677
 1388TIP3   OH225654   0.124   6.250  13.990 -0.0492 -0.3350 -0.6335
 1388TIP3    H125655   0.148   6.299  14.068  0.7905  0.6259 -1.4782
 1388TIP3    H225656   0.057   6.188  14.020 -0.5361  0.7669  0.6062
 1389TIP3   OH225657   6.464   1.124   3.877  0.0681 -0.4591  0.3442
 1389TIP3    H125658   6.516   1.073   3.815  0.4316 -1.4854  1.4832
 1389TIP3    H225659   6.456   1.068   3.954 -0.9750  0.5254  0.9635
 1390TIP3   OH225660   6.534   5.230   4.882 -0.4046 -0.2567  0.3089
 1390TIP3    H125661   6.524   5.180   4.801 -0.5800  0.4003 -0.0780
 1390TIP3    H225662   6.475   5.188   4.945  0.4832 -1.3890  0.3884
 1391TIP3   OH225663   6.028   1.118   3.023  0.3370  1.2655  0.1000
 1391TIP3    H125664   6.118   1.097   2.997  0.4707  0.7733  0.9362
 1391TIP3    H225665   6.037   1.195   3.078  0.2672  1.1156  0.3221
 1392TIP3   OH225666   3.378   5.910  16.756  0.5931  0.1186 -0.1338
 1392TIP3    H125667   3.305   5.906  16.695  0.7575 -0.9614 -0.2602
 1392TIP3    H225668   3.450   5.947  16.704  0.6836 -0.6322 -0.5461
 1393TIP3   OH225669   1.807   2.643   0.257 -0.2131  0.4747  0.4654
 1393TIP3    H125670   1.827   2.735   0.237  1.1852 -0.1084 -0.9317
 1393TIP3    H225671   1.884   2.595   0.225 -1.5499 -1.3191 -0.0882
 1394TIP3   OH225672   1.512   4.902   1.567 -0.1954  0.0085  0.2926
 1394TIP3    H125673   1.507   4.809   1.543 -0.5471  0.5470 -1.8051
 1394TIP3    H225674   1.599   4.930   1.538 -0.1293  0.3727  0.8274
 1395TIP3   OH225675   0.782   6.090   5.933  0.0857 -0.0790 -0.6329
 1395TIP3    H125676   0.807   6.066   5.844  1.6928 -1.3418  0.1313
 1395TIP3    H225677   0.739   6.011   5.967  0.9188 -0.1722  0.2296
 1396TIP3   OH225678   3.222   0.341  17.268 -0.5174  0.4397 -0.0963
 1396TIP3    H125679   3.236   0.419  17.214 -1.9164  1.1791  0.5655
 1396TIP3    H225680   3.197   0.376  17.354  1.4333 -0.7141  0.9765
 1397TIP3   OH225681   0.466   5.224   2.107  0.1868 -0.1558 -0.3918
 1397TIP3    H125682   0.513   5.223   2.023 -0.5308 -0.8746 -0.7907
 1397TIP3    H225683   0.535   5.230   2.173  0.7850 -0.1952 -1.0089
 1398TIP3   OH225684   0.194   2.415   3.663  0.3606 -0.2130 -0.1127
 1398TIP3    H125685   0.168   2.501   3.629  0.2359 -0.4033 -0.5071
 1398TIP3    H225686   0.211   2.363   3.584  3.2200  0.2969  0.1304
 1399TIP3   OH225687   6.422   0.492  14.361 -0.3350  0.0096  0.4297
 1399TIP3    H125688   6.354   0.545  14.319 -2.6579 -2.1741  1.3304
 1399TIP3    H225689   6.493   0.554  14.378 -1.9058  2.2592 -0.9269
 1400TIP3   OH225690   1.324   5.946   1.552 -0.7172  0.0312  0.7382
 1400TIP3    H125691   1.279   5.943   1.467 -1.6862  0.2338  1.2401
 1400TIP3    H225692   1.370   6.031   1.551  0.2708 -0.4979 -0.0742
 1401TIP3   OH225693   5.427   6.037   1.831 -0.1519  0.4690  0.3347
 1401TIP3    H125694   5.444   6.126   1.861  0.6192 -0.2253  2.0837
 1401TIP3    H225695   5.343   6.015   1.870 -0.3207  0.4284 -0.0593
 1402TIP3   OH225696   1.108   0.128  15.211 -0.0918  0.0843 -0.4394
 1402TIP3    H125697   1.045   0.200  15.205  0.3665  0.5634  0.4148
 1402TIP3    H225698   1.055   0.049  15.219 -0.5812  0.6015  1.6497
 1403TIP3   OH225699   4.571   4.251   5.505  0.5778  0.0023  0.3312
 1403TIP3    H125700   4.531   4.212   5.583  0.5257 -0.3576  0.1252
 1403TIP3    H225701   4.499   4.296   5.462 -0.0147 -2.1856 -1.0144
 1404TIP3   OH225702   5.046   0.203  15.785 -0.0229  0.2984 -0.5236
 1404TIP3    H125703   5.020   0.142  15.854 -1.5689  1.9646  0.4068
 1404TIP3    H225704   5.079   0.280  15.832  1.7239  0.2623 -1.6765
 1405TIP3   OH225705   5.865   4.397   0.265 -0.1408 -0.0972  0.5112
 1405TIP3    H125706   5.889   4.325   0.323 -0.0128  0.3678  1.0432
 1405TIP3    H225707   5.944   4.414   0.214 -0.1503 -0.2954  0.4312
 1406TIP3   OH225708   6.189   0.293  14.678  0.4308  0.3116  0.1463
 1406TIP3    H125709   6.164   0.383  14.700 -1.7010  0.0135 -0.9240
 1406TIP3    H225710   6.182   0.245  14.761  0.5907  0.9163  0.5105
 1407TIP3   OH225711   4.841   1.224   0.594  0.1179  0.3796 -0.5576
 1407TIP3    H125712   4.874   1.235   0.505  1.3559  0.6139 -0.0810
 1407TIP3    H225713   4.748   1.246   0.588 -0.0187 -0.5531 -1.9748
 1408TIP3   OH225714   0.215   4.237  14.954  0.2457  0.0184 -0.0707
 1408TIP3    H125715   0.176   4.323  14.940 -2.4305 -1.0672  0.4682
 1408TIP3    H225716   0.140   4.178  14.968  1.9923 -2.4558 -0.7517
 1409TIP3   OH225717   3.883   0.658   6.694  0.2324  0.1025  0.0388
 1409TIP3    H125718   3.912   0.730   6.750 -1.4367  0.7690  0.0647
 1409TIP3    H225719   3.962   0.631   6.648  1.2339  0.8158  1.2892
 1410TIP3   OH225720   3.411   5.238   5.098 -0.1785  0.0761 -0.3311
 1410TIP3    H125721   3.329   5.229   5.051 -0.2685  0.8007 -0.3274
 1410TIP3    H225722   3.439   5.149   5.117 -0.0862 -0.2235 -1.8587
 1411TIP3   OH225723   5.608   4.441  17.050 -0.0646  0.3557 -0.0870
 1411TIP3    H125724   5.608   4.536  17.054 -0.0797  0.3727 -0.4866
 1411TIP3    H225725   5.630   4.413  17.139  0.0709  0.7330 -0.0014
 1412TIP3   OH225726   3.571   2.813   2.104 -0.1178  0.3181  0.0922
 1412TIP3    H125727   3.657   2.781   2.133  0.4021  0.6606 -1.0246
 1412TIP3    H225728   3.585   2.906   2.088 -0.4540  0.1841 -1.0043
 1413TIP3   OH225729   3.327   1.733   3.531  1.1928 -0.0673  0.5614
 1413TIP3    H125730   3.382   1.693   3.464  1.1666  0.0937  0.4422
 1413TIP3    H225731   3.238   1.727   3.496  1.0863 -0.7112  0.9458
 1414TIP3   OH225732   5.765   2.104   3.312 -0.1636 -0.0284  0.0347
 1414TIP3    H125733   5.768   2.134   3.403 -0.9671 -0.8470  0.3437
 1414TIP3    H225734   5.701   2.033   3.313  0.4189 -0.5780 -1.0172
 1415TIP3   OH225735   3.786   5.013   3.845  0.2159 -0.3196 -0.0084
 1415TIP3    H125736   3.746   5.078   3.902  0.0237 -1.7028  1.4886
 1415TIP3    H225737   3.841   5.064   3.785 -2.1409  1.4193 -0.7607
 1416TIP3   OH225738   1.743   5.763  12.727 -0.1067 -0.0961  0.1231
 1416TIP3    H125739   1.730   5.709  12.805 -1.6232 -1.8723 -1.2880
 1416TIP3    H225740   1.665   5.746  12.674  0.5138  1.7192 -1.4177
 1417TIP3   OH225741   5.156   6.624  13.397 -0.3025 -0.1958 -0.0148
 1417TIP3    H125742   5.241   6.640  13.439  0.8660 -1.7359 -1.6995
 1417TIP3    H225743   5.116   6.555  13.450  0.2052 -0.5980 -0.1481
 1418TIP3   OH225744   4.293   3.069   0.589 -0.4801 -0.2028  0.1025
 1418TIP3    H125745   4.256   3.085   0.502  0.2619 -2.7918 -0.7464
 1418TIP3    H225746   4.272   2.977   0.607  1.0474 -0.2461  1.8208
 1419TIP3   OH225747   5.920   2.755  16.473 -0.4755  0.4918  0.0361
 1419TIP3    H125748   5.862   2.809  16.419 -0.0669  2.4667  1.5272
 1419TIP3    H225749   6.008   2.789  16.456 -0.1033 -0.3512  0.2373
 1420TIP3   OH225750   0.137   1.452  10.410  0.1514  0.1271 -0.0415
 1420TIP3    H125751   0.139   1.520  10.478  0.5662  0.3268 -0.2546
 1420TIP3    H225752   0.131   1.370  10.458 -0.8804  0.3336  0.2102
 1421TIP3   OH225753   2.030   5.941   6.276  0.3902 -0.9112 -0.4809
 1421TIP3    H125754   2.101   5.917   6.218  1.0346 -1.4395  0.5085
 1421TIP3    H225755   2.015   6.034   6.259  1.4524 -0.7473 -0.5516
 1422TIP3   OH225756   1.180   3.007   6.814  0.0332  0.5178 -0.4198
 1422TIP3    H125757   1.114   2.968   6.757 -0.1381  1.1630 -0.6565
 1422TIP3    H225758   1.249   2.940   6.819 -0.0654  0.3543 -1.1775
 1423TIP3   OH225759   0.394   4.287   4.059  0.8611  0.5179  0.4556
 1423TIP3    H125760   0.472   4.328   4.020  0.1792  1.2593 -0.1435
 1423TIP3    H225761   0.332   4.359   4.071 -0.9578 -0.5629 -2.0958
 1424TIP3   OH225762   4.088   2.218   5.027  0.0402  0.0728  0.2021
 1424TIP3    H125763   4.158   2.192   5.086 -0.6507 -1.2819  0.4314
 1424TIP3    H225764   4.084   2.148   4.962 -1.9475 -0.5178  0.9188
 1425TIP3   OH225765   2.081   1.426  16.985 -0.3242 -0.3709 -0.1133
 1425TIP3    H125766   2.031   1.357  17.030  1.2274 -0.7906  1.0219
 1425TIP3    H225767   2.066   1.505  17.038  1.3497 -0.8229  1.0825
 1426TIP3   OH225768   1.311   5.349   0.429  0.1621  0.3960 -0.3074
 1426TIP3    H125769   1.235   5.378   0.480  1.4470  2.4339  0.5055
 1426TIP3    H225770   1.311   5.406   0.352  2.0923  1.9190  0.7766
 1427TIP3   OH225771   1.210   6.046  11.209  0.1373 -0.4471 -0.0085
 1427TIP3    H125772   1.285   5.994  11.181  0.7841  0.9667 -0.9474
 1427TIP3    H225773   1.154   5.984  11.256  1.6693 -1.6179  0.3130
 1428TIP3   OH225774   5.784   6.679   2.697  0.6301 -0.3960 -0.1024
 1428TIP3    H125775   5.751   6.721   2.617 -1.9818 -0.9485  0.6487
 1428TIP3    H225776   5.817   6.594   2.667 -1.2778 -1.0239 -0.4457
 1429TIP3   OH225777   2.073   0.600   5.622  0.1258 -0.2154 -0.1079
 1429TIP3    H125778   2.119   0.595   5.538 -0.1390 -1.4511 -0.1776
 1429TIP3    H225779   2.140   0.626   5.685  0.4693  0.0463 -0.5794
 1430TIP3   OH225780   4.260   0.404   1.046  0.1249  0.6542  0.7352
 1430TIP3    H125781   4.298   0.481   1.088  3.0423 -0.3810  0.0626
 1430TIP3    H225782   4.231   0.349   1.119 -0.0818  1.4412  1.2534
 1431TIP3   OH225783   6.423   2.811  16.503 -0.4699 -0.5978 -0.3502
 1431TIP3    H125784   6.492   2.749  16.479  1.6796  2.0285 -1.1969
 1431TIP3    H225785   6.447   2.840  16.591 -1.1293 -0.4717 -0.2116
 1432TIP3   OH225786   5.343   6.606  13.188 -0.4037 -0.4315  0.1814
 1432TIP3    H125787   5.291   6.593  13.267  0.8964  0.8527  1.2892
 1432TIP3    H225788   5.304   6.681  13.145  0.7132  0.7575  1.2005
 1433TIP3   OH225789   3.192   1.596  16.245  0.5104 -0.3354  0.4750
 1433TIP3    H125790   3.199   1.690  16.233  2.4740 -0.4887  0.4020
 1433TIP3    H225791   3.172   1.584  16.338 -1.3860  0.1994  0.1691
 1434TIP3   OH225792   1.722   1.376   5.992 -0.7188 -0.2871  0.2140
 1434TIP3    H125793   1.695   1.415   5.909 -0.8978 -0.2887  0.2723
 1434TIP3    H225794   1.812   1.347   5.976 -0.6080  0.0903  0.1523
 1435TIP3   OH225795   4.384   2.235   0.653  0.0257  0.0780  0.7179
 1435TIP3    H125796   4.424   2.286   0.584  1.9019 -2.7314 -0.3462
 1435TIP3    H225797   4.434   2.257   0.732 -1.2349  2.2306  0.9625
 1436TIP3   OH225798   5.770   4.507  15.140  0.2257  0.9120 -0.3981
 1436TIP3    H125799   5.811   4.591  15.118  3.4877  0.4712  3.4427
 1436TIP3    H225800   5.710   4.528  15.211  1.0735  0.0041  0.5948
 1437TIP3   OH225801   4.142   5.751  13.697  0.0062  0.0437  0.0314
 1437TIP3    H125802   4.115   5.687  13.764 -1.3263 -0.9342 -1.3976
 1437TIP3    H225803   4.121   5.836  13.735 -0.5097 -0.4834  0.9485
 1438TIP3   OH225804   0.779   5.073  15.454 -0.5100 -0.0423  0.5598
 1438TIP3    H125805   0.707   5.026  15.412 -0.4404 -0.3562  0.7880
 1438TIP3    H225806   0.770   5.164  15.424  1.4570 -0.8610 -2.7086
 1439TIP3   OH225807   3.871   6.487   1.051 -0.1163 -0.2702 -0.1842
 1439TIP3    H125808   3.819   6.431   0.994  1.1041 -2.4032  0.7644
 1439TIP3    H225809   3.918   6.427   1.109  2.7707  1.6103 -0.4468
 1440TIP3   OH225810   4.749   5.283  15.076 -0.4535 -0.3116 -0.0580
 1440TIP3    H125811   4.713   5.257  14.991 -0.4648  0.1869 -0.2041
 1440TIP3    H225812   4.716   5.371  15.090  0.4585  0.0329 -0.0524
 1441TIP3   OH225813   1.029   3.297   0.029  0.3096 -0.1613  0.4911
 1441TIP3    H125814   0.999   3.294  -0.061 -1.2852 -0.8558  1.0308
 1441TIP3    H225815   1.114   3.341   0.025  1.1358 -1.8623 -1.5722
 1442TIP3   OH225816   1.692   3.298  15.990 -0.0874  0.1240 -0.0968
 1442TIP3    H125817   1.604   3.318  16.020  0.2945 -0.0312  1.1593
 1442TIP3    H225818   1.696   3.333  15.900 -0.4065  3.0267  0.9681
 1443TIP3   OH225819   2.063   6.139  12.243  0.2425 -0.3747 -0.4455
 1443TIP3    H125820   2.135   6.082  12.270 -0.0959 -0.3991  0.4448
 1443TIP3    H225821   2.012   6.086  12.181  0.3806 -0.7548 -0.2357
 1444TIP3   OH225822   2.673   6.120   0.277  0.4304 -0.4905 -0.1404
 1444TIP3    H125823   2.597   6.148   0.328 -0.2709  3.3035 -3.0370
 1444TIP3    H225824   2.638   6.097   0.191  2.2895 -0.5854 -0.9012
 1445TIP3   OH225825   4.322   4.940   3.236 -0.5279  0.0451  0.0757
 1445TIP3    H125826   4.371   5.018   3.212  0.3020 -1.0536 -1.8920
 1445TIP3    H225827   4.234   4.955   3.201  0.0054 -0.4797 -1.5100
 1446TIP3   OH225828   1.190   4.336  15.063  0.0530  0.4328 -0.0868
 1446TIP3    H125829   1.171   4.398  14.992  3.0103  0.4582 -0.9131
 1446TIP3    H225830   1.196   4.251  15.021  1.5435  0.4058  0.1525
 1447TIP3   OH225831   2.878   3.495  13.599  0.2699 -0.5393 -0.2338
 1447TIP3    H125832   2.881   3.588  13.622  2.4580 -0.3143 -1.3564
 1447TIP3    H225833   2.792   3.484  13.558  0.0543  1.0174 -0.2368
 1448TIP3   OH225834   5.829   6.258   4.331 -0.4651 -0.4968 -0.1313
 1448TIP3    H125835   5.902   6.302   4.286 -0.8280 -0.7461 -0.9730
 1448TIP3    H225836   5.871   6.197   4.390  0.0235 -0.1306 -0.0969
 1449TIP3   OH225837   2.018   1.584  14.416  0.3069  0.1694  0.2965
 1449TIP3    H125838   2.099   1.568  14.464  0.4660  0.2034  0.0415
 1449TIP3    H225839   2.046   1.602  14.326 -0.1296 -2.6373 -0.4740
 1450TIP3   OH225840   5.223   4.456   1.634  0.1208 -0.7833  0.0907
 1450TIP3    H125841   5.306   4.410   1.619  1.1073  1.2237 -0.7819
 1450TIP3    H225842   5.190   4.475   1.546  0.2720  1.1011  0.4254
 1451TIP3   OH225843   4.059   4.929   2.000 -0.2425 -0.1703  0.8090
 1451TIP3    H125844   4.111   4.927   2.080  1.4272  0.5130 -0.2379
 1451TIP3    H225845   3.990   4.993   2.017  0.6941  0.6904  1.3429
 1452TIP3   OH225846   4.321   4.166  14.391  0.7472  0.8202  0.1972
 1452TIP3    H125847   4.301   4.141  14.481 -0.5724 -1.2815 -0.6267
 1452TIP3    H225848   4.240   4.206  14.359  1.5222  2.4589  0.2077
 1453TIP3   OH225849   5.924   5.653   2.264 -0.0318  0.4436  0.4710
 1453TIP3    H125850   6.006   5.702   2.270 -0.6691  1.5852 -0.0019
 1453TIP3    H225851   5.937   5.593   2.190  0.2509  0.8783  0.1660
 1454TIP3   OH225852   0.849   4.000  16.361 -0.6050  0.3060  0.0017
 1454TIP3    H125853   0.797   3.920  16.375  1.1941 -0.7145  1.0565
 1454TIP3    H225854   0.867   4.033  16.449 -0.1442  1.0967 -0.3787
 1455TIP3   OH225855   0.027   1.289  14.916 -0.8176  0.7142  0.0373
 1455TIP3    H125856  -0.005   1.321  14.832 -2.2754  0.0851  0.3505
 1455TIP3    H225857   0.099   1.230  14.893 -1.8106 -0.1915 -0.8351
 1456TIP3   OH225858   5.401   5.849  13.340  0.7941  0.3545  0.1415
 1456TIP3    H125859   5.485   5.804  13.332  1.1588  1.0257  0.1295
 1456TIP3    H225860   5.409   5.900  13.421  0.3753  0.3761  0.1708
 1457TIP3   OH225861   3.114   0.823   1.023 -0.1663  0.3609  0.3940
 1457TIP3    H125862   3.123   0.779   1.108  0.2758 -0.0619  0.1258
 1457TIP3    H225863   3.045   0.775   0.978 -0.6253  0.7841  0.6376
 1458TIP3   OH225864   5.233   4.966  15.788  0.4723 -0.3164 -0.0126
 1458TIP3    H125865   5.264   4.941  15.875  0.7629  0.4456  0.1012
 1458TIP3    H225866   5.139   4.981  15.800  0.5801  0.1469  0.2454
 1459TIP3   OH225867   0.318   0.465   5.622 -0.2114 -0.4754  0.0824
 1459TIP3    H125868   0.300   0.415   5.702 -0.9991  0.9647  0.8374
 1459TIP3    H225869   0.234   0.469   5.577  0.4626 -2.1768 -1.3614
 1460TIP3   OH225870   4.917   0.892   4.509 -0.2793  0.0410 -0.3901
 1460TIP3    H125871   4.866   0.953   4.457 -1.5778 -2.0766 -1.6966
 1460TIP3    H225872   4.885   0.904   4.599 -0.2882  1.4766 -0.5758
 1461TIP3   OH225873   0.322   4.993  14.734 -0.5252 -0.1291  0.0711
 1461TIP3    H125874   0.295   5.077  14.698  0.5479  0.0607 -0.2869
 1461TIP3    H225875   0.330   4.936  14.658 -0.5596 -0.3664  0.2454
 1462TIP3   OH225876   2.941   0.130   2.114  0.2271 -0.1373 -0.3461
 1462TIP3    H125877   2.849   0.152   2.101  0.5362  1.8161  0.5710
 1462TIP3    H225878   2.942   0.036   2.132 -1.5613 -0.1806 -0.4548
 1463TIP3   OH225879   0.734   3.801   0.547  0.4304 -0.6336 -0.3726
 1463TIP3    H125880   0.820   3.827   0.581  0.1295 -0.5387  0.3037
 1463TIP3    H225881   0.728   3.708   0.567  0.1250 -0.5103  0.0916
 1464TIP3   OH225882   3.577   5.843  11.467  0.4555 -0.1714 -0.3231
 1464TIP3    H125883   3.591   5.780  11.538  0.8790 -0.5169 -0.7110
 1464TIP3    H225884   3.564   5.927  11.511 -3.1188 -1.0041  0.3699
 1465TIP3   OH225885   4.245   1.702   0.617 -0.0108  0.0686 -0.1059
 1465TIP3    H125886   4.257   1.639   0.688 -2.8943  0.2994  0.6399
 1465TIP3    H225887   4.294   1.779   0.646 -1.8233  0.4531  2.0737
 1466TIP3   OH225888   5.825   1.462  14.225 -0.3842  0.1250 -0.3812
 1466TIP3    H125889   5.785   1.547  14.211 -0.0599  0.4229  0.5039
 1466TIP3    H225890   5.902   1.479  14.278 -0.0841 -0.6685 -0.5459
 1467TIP3   OH225891   5.220   6.787  16.090 -0.3105  0.8602 -0.3116
 1467TIP3    H125892   5.148   6.835  16.049  0.2683  0.1849 -2.1594
 1467TIP3    H225893   5.223   6.821  16.179 -3.2191  0.5584 -0.0550
 1468TIP3   OH225894   6.094   3.791   2.408 -0.4314 -0.2564  0.1148
 1468TIP3    H125895   6.051   3.865   2.364  0.1644 -0.9010 -1.6160
 1468TIP3    H225896   6.055   3.714   2.366 -2.1082 -1.0060  2.8933
 1469TIP3   OH225897   0.352   2.129   2.699  0.1974 -0.0135  0.2047
 1469TIP3    H125898   0.343   2.096   2.610 -1.5064  2.1127 -0.4615
 1469TIP3    H225899   0.427   2.188   2.695  1.3186 -1.3757  0.6646
 1470TIP3   OH225900   6.454   0.403   0.978 -0.3049 -0.0842 -0.5452
 1470TIP3    H125901   6.403   0.442   0.907  1.2423  2.6758 -0.1947
 1470TIP3    H225902   6.541   0.391   0.941  0.4295  1.0987  0.7598
 1471TIP3   OH225903   2.235   6.598   1.526  0.5369  0.0332  0.0361
 1471TIP3    H125904   2.304   6.642   1.476  0.1477 -0.1425 -0.6588
 1471TIP3    H225905   2.220   6.516   1.479  0.2960 -0.2179  0.5464
 1472TIP3   OH225906   4.690   4.969   5.192  0.3311  0.0987  0.4259
 1472TIP3    H125907   4.757   4.913   5.151 -0.6756  0.4544 -1.7903
 1472TIP3    H225908   4.685   4.938   5.282  0.9132 -2.3479 -0.3376
 1473TIP3   OH225909   6.004   1.716   5.392  0.5993  0.0049  0.4093
 1473TIP3    H125910   5.965   1.766   5.464  1.3465  0.7375  0.3062
 1473TIP3    H225911   6.042   1.782   5.335  0.6786 -0.6254 -0.2643
 1474TIP3   OH225912   2.625   1.417   0.355  0.3657  0.1333  0.0939
 1474TIP3    H125913   2.563   1.487   0.336 -0.6742 -0.5565  0.8998
 1474TIP3    H225914   2.623   1.409   0.450 -0.6438 -1.9793 -0.0782
 1475TIP3   OH225915   4.611   0.591  13.982 -0.4361 -0.3965  0.2650
 1475TIP3    H125916   4.521   0.607  13.954 -1.2353 -1.8275  1.8363
 1475TIP3    H225917   4.653   0.677  13.982 -2.2995  0.5309  1.1208
 1476TIP3   OH225918   2.751   1.197   3.636  0.2230  0.5041 -0.4404
 1476TIP3    H125919   2.715   1.108   3.639  0.5035  0.4112  0.3966
 1476TIP3    H225920   2.712   1.236   3.558 -0.0947 -0.2730 -0.6792
 1477TIP3   OH225921   3.950   1.470  14.440  0.3623  0.1611 -0.2254
 1477TIP3    H125922   3.873   1.413  14.449  0.0562  0.7372  0.9474
 1477TIP3    H225923   3.956   1.489  14.347 -0.9405  0.1500 -0.3134
 1478TIP3   OH225924   5.388   2.946   3.495  0.0629 -0.5875  0.0266
 1478TIP3    H125925   5.460   2.922   3.553 -0.4732 -2.7540 -0.1475
 1478TIP3    H225926   5.310   2.933   3.547 -0.3081 -0.2871 -0.4493
 1479TIP3   OH225927   3.461   4.098  14.077  0.0651 -0.6945 -0.2584
 1479TIP3    H125928   3.432   4.183  14.044  1.0437 -0.5567 -0.7975
 1479TIP3    H225929   3.458   4.107  14.173 -0.5430 -0.3063 -0.3148
 1480TIP3   OH225930   6.550   3.110  12.954  0.6603  0.1713 -0.5004
 1480TIP3    H125931   6.494   3.034  12.968  3.7080 -1.7693  1.9245
 1480TIP3    H225932   6.604   3.087  12.877 -0.5073  1.2308 -1.6627
 1481TIP3   OH225933   5.867   4.996  12.923  0.6564 -0.4048 -0.1207
 1481TIP3    H125934   5.830   5.057  12.859  2.1959 -0.4019 -1.0397
 1481TIP3    H225935   5.791   4.962  12.970 -0.4565  0.0535 -1.5364
 1482TIP3   OH225936   1.120   2.884  12.948  0.5937 -0.4998 -0.0294
 1482TIP3    H125937   1.147   2.973  12.967 -0.6078  0.0706 -0.8906
 1482TIP3    H225938   1.186   2.851  12.886  0.5089  0.1273 -0.4540
 1483TIP3   OH225939   6.202   3.392  12.070 -0.6432  0.8254 -0.4837
 1483TIP3    H125940   6.293   3.391  12.041 -0.7878  1.0384 -0.9567
 1483TIP3    H225941   6.196   3.466  12.130 -0.4728  0.7274 -0.3465
 1484TIP3   OH225942   2.952   3.513  15.581  0.2151 -0.2735 -0.4424
 1484TIP3    H125943   2.923   3.479  15.496  0.7766 -0.8816 -0.3906
 1484TIP3    H225944   3.035   3.470  15.597  0.5562  0.5337 -0.0073
 1485TIP3   OH225945   1.081   6.022   2.326 -0.8364 -0.4061  0.0961
 1485TIP3    H125946   1.158   5.982   2.366 -0.6585 -0.1012  0.0614
 1485TIP3    H225947   1.067   5.973   2.245 -0.8970 -0.6987  0.2871
 1486TIP3   OH225948   0.034   5.642   2.022 -0.2450 -0.4202  0.1709
 1486TIP3    H125949  -0.041   5.701   2.023  1.6290  2.0560 -0.7534
 1486TIP3    H225950   0.058   5.635   1.929  0.6629 -1.2205  0.4533
 1487TIP3   OH225951   2.717   4.437   1.904 -0.1560 -0.4796  0.1217
 1487TIP3    H125952   2.692   4.516   1.856 -1.7222 -1.2091 -0.3098
 1487TIP3    H225953   2.758   4.381   1.839  3.4088  1.0078  0.9821
 1488TIP3   OH225954   4.544   4.338  15.287 -0.0106  0.2953 -0.1322
 1488TIP3    H125955   4.465   4.300  15.247 -0.0427  0.8620 -0.6136
 1488TIP3    H225956   4.558   4.420  15.239  1.5006 -0.3316 -0.7940
 1489TIP3   OH225957   5.952   2.345   4.838  0.1325  0.1147 -0.4914
 1489TIP3    H125958   6.006   2.284   4.889 -0.7151 -0.0183  0.2690
 1489TIP3    H225959   6.014   2.393   4.783  1.4130  2.3862  2.8296
 1490TIP3   OH225960   1.090   2.834  11.485  0.2457  0.3340 -0.5923
 1490TIP3    H125961   1.134   2.905  11.439  0.3503  0.4152 -0.3712
 1490TIP3    H225962   1.026   2.878  11.542 -1.6395  0.1186 -2.4873
 1491TIP3   OH225963   0.123   0.578  12.261  0.5609 -0.0934  0.3800
 1491TIP3    H125964   0.037   0.616  12.279  0.7416  0.1769  0.6859
 1491TIP3    H225965   0.177   0.605  12.335  0.7947 -0.6232  0.4022
 1492TIP3   OH225966   2.899   4.869  16.709  0.1674 -0.1400  0.0101
 1492TIP3    H125967   2.950   4.804  16.758 -0.2989 -0.4415  0.0970
 1492TIP3    H225968   2.812   4.830  16.701  0.4261 -0.3961 -1.6669
 1493TIP3   OH225969   3.812   2.285   0.679 -0.3742  0.5422  0.7840
 1493TIP3    H125970   3.757   2.304   0.603 -1.1796  0.5659  1.3697
 1493TIP3    H225971   3.780   2.344   0.747  0.2245  0.3933  1.1977
 1494TIP3   OH225972   0.668   0.071   5.878 -0.9842  0.9102 -0.0630
 1494TIP3    H125973   0.708   0.092   5.963 -1.0797  0.8415 -0.0002
 1494TIP3    H225974   0.742   0.063   5.818 -0.6162 -2.2596  0.7038
 1495TIP3   OH225975   5.583   3.582   4.460  0.2195 -0.3097  0.3876
 1495TIP3    H125976   5.652   3.648   4.457  0.3530 -0.5141 -1.8975
 1495TIP3    H225977   5.629   3.501   4.484  0.4941 -0.1126  0.5326
 1496TIP3   OH225978   4.181   4.009  17.015  0.4549 -0.1217  0.3865
 1496TIP3    H125979   4.131   3.954  16.954 -0.6526  2.2523 -0.9136
 1496TIP3    H225980   4.246   4.053  16.961 -2.2616  4.0671  0.3052
 1497TIP3   OH225981   2.826   1.897   2.850  0.1470  0.4564 -0.0468
 1497TIP3    H125982   2.897   1.881   2.789  0.2905 -0.5812  0.3938
 1497TIP3    H225983   2.833   1.827   2.915 -1.7641 -0.1412 -0.4502
 1498TIP3   OH225984   2.345   3.911   2.049 -0.2526  0.2623 -0.1974
 1498TIP3    H125985   2.303   3.838   2.094  0.0097 -0.3696 -0.9645
 1498TIP3    H225986   2.438   3.889   2.049 -0.1208  0.8134 -0.0341
 1499TIP3   OH225987   1.435   2.883  14.053 -0.3409 -0.5396 -0.0032
 1499TIP3    H125988   1.353   2.853  14.014 -1.6835 -0.4220  2.5878
 1499TIP3    H225989   1.415   2.892  14.147  2.2122  0.9407  0.4511
 1500TIP3   OH225990   5.315   5.155  12.935 -0.2938 -0.3315 -0.0899
 1500TIP3    H125991   5.222   5.154  12.957 -0.2461 -0.6353  0.1003
 1500TIP3    H225992   5.358   5.179  13.017 -0.1496 -0.9927  0.0337
 1501TIP3   OH225993   2.739   1.907  16.543 -0.4154 -0.3362  0.7662
 1501TIP3    H125994   2.782   1.825  16.566  1.0723  0.0138 -0.6399
 1501TIP3    H225995   2.812   1.969  16.529 -1.3910  0.4897 -0.8664
 1502TIP3   OH225996   1.496   1.923   0.348  0.2356 -0.3316  0.0643
 1502TIP3    H125997   1.513   1.845   0.296 -0.7968  0.3585 -1.3573
 1502TIP3    H225998   1.405   1.914   0.376  0.1238  0.3480 -0.0765
 1503TIP3   OH225999   6.663   2.829   1.587  0.5934 -0.3988  0.1053
 1503TIP3    H126000   6.589   2.792   1.635  1.6479 -1.4624  0.9407
 1503TIP3    H226001   6.624   2.863   1.506 -1.0123  0.3479  1.1771
 1504TIP3   OH226002   0.974   5.329  17.039 -0.4070 -0.4881  0.0081
 1504TIP3    H126003   1.030   5.255  17.012  0.0191  0.6378 -2.3613
 1504TIP3    H226004   0.885   5.300  17.020 -0.2008 -0.2108 -1.4434
 1505TIP3   OH226005   5.345   4.883   4.991 -0.5617 -0.3708 -0.0668
 1505TIP3    H126006   5.268   4.937   4.972 -0.5928  0.4889  2.3215
 1505TIP3    H226007   5.406   4.902   4.921 -2.1592 -0.3371 -1.4843
 1506TIP3   OH226008   5.958   4.088  11.251  0.3956  0.0523  0.5026
 1506TIP3    H126009   5.890   4.137  11.206  0.4933 -0.4507 -0.1919
 1506TIP3    H226010   5.915   4.008  11.282  0.0583  0.9110  2.2764
 1507TIP3   OH226011   4.053   3.006   6.042 -0.7630  0.5054 -0.0633
 1507TIP3    H126012   4.136   3.027   6.085 -0.6689  1.2272 -0.5765
 1507TIP3    H226013   4.020   2.929   6.088  1.2757 -1.1356 -1.3165
 1508TIP3   OH226014   0.613   1.614   0.923  0.0286  0.5240 -0.3959
 1508TIP3    H126015   0.683   1.563   0.881 -0.2452 -0.9884  0.9469
 1508TIP3    H226016   0.535   1.561   0.911 -0.0053 -0.1093  2.2677
 1509TIP3   OH226017   5.782   3.433   0.340 -0.0196  0.1401 -0.4004
 1509TIP3    H126018   5.770   3.390   0.424 -0.5131 -0.2611 -0.6744
 1509TIP3    H226019   5.788   3.362   0.277 -1.4643  0.4837 -0.9344
 1510TIP3   OH226020   4.956   5.623  16.484  0.2276  0.1966 -0.7001
 1510TIP3    H126021   4.923   5.609  16.395 -1.0785  0.2746 -0.2428
 1510TIP3    H226022   4.906   5.560  16.537  0.4440  0.6931  0.0914
 1511TIP3   OH226023   2.643   6.517  12.112  0.5856 -0.0455  0.1917
 1511TIP3    H126024   2.666   6.609  12.123  0.8249 -0.1396  0.4764
 1511TIP3    H226025   2.603   6.492  12.196  0.2693 -0.1257  0.0193
 1512TIP3   OH226026   4.153   0.170  16.240 -0.1069  0.2136  0.1601
 1512TIP3    H126027   4.121   0.081  16.257 -0.0992  0.3430  0.8600
 1512TIP3    H226028   4.073   0.222  16.230 -0.1138 -0.0501 -1.2252
 1513TIP3   OH226029   5.133   3.404   3.308 -0.1530  0.1287 -0.4323
 1513TIP3    H126030   5.178   3.342   3.251  0.0653  0.8072 -0.9982
 1513TIP3    H226031   5.040   3.382   3.300 -0.2245  0.8669 -1.8423
 1514TIP3   OH226032   5.847   2.544   2.117  0.7169 -0.0346 -0.1166
 1514TIP3    H126033   5.901   2.466   2.124  0.4257 -0.2438 -0.1965
 1514TIP3    H226034   5.870   2.582   2.032 -1.0889 -1.5052 -1.3134
 1515TIP3   OH226035   6.310   1.566   1.987 -0.1591  0.0973 -0.0534
 1515TIP3    H126036   6.402   1.589   1.994 -0.4715  1.7792 -1.1025
 1515TIP3    H226037   6.292   1.515   2.065  1.9664 -1.3473 -0.4727
 1516TIP3   OH226038   6.111   4.497  16.779 -0.2426  0.4061  0.8016
 1516TIP3    H126039   6.088   4.442  16.854  1.2443 -0.7527  0.4182
 1516TIP3    H226040   6.205   4.482  16.765 -0.2710  1.4100 -0.6431
 1517TIP3   OH226041   2.125   4.910   5.539  0.1311 -0.6543  0.1966
 1517TIP3    H126042   2.117   4.903   5.634  0.6829  0.8927  0.3697
 1517TIP3    H226043   2.147   4.821   5.511 -1.5052 -1.4692  1.3387
 1518TIP3   OH226044   2.858   4.344   4.164 -0.1178 -0.3203 -0.2335
 1518TIP3    H126045   2.926   4.407   4.186 -0.3536 -0.2956  0.4389
 1518TIP3    H226046   2.836   4.302   4.247  0.2401 -1.5000 -0.7177
 1519TIP3   OH226047   4.343   5.913   2.589  0.0450  0.2704  0.6511
 1519TIP3    H126048   4.387   5.958   2.661  0.9101  0.7325 -0.1592
 1519TIP3    H226049   4.325   5.825   2.623  0.2590  0.5532  1.4960
 1520TIP3   OH226050   4.251   1.856  16.947  0.4992  0.1264  0.3973
 1520TIP3    H126051   4.320   1.922  16.956 -0.3063  1.0574 -0.0362
 1520TIP3    H226052   4.270   1.791  17.015  2.2667 -0.0708 -0.2607
 1521TIP3   OH226053   2.216   2.626  13.461 -0.2314  0.7522  0.2278
 1521TIP3    H126054   2.289   2.624  13.399 -1.2400 -1.3234 -0.9476
 1521TIP3    H226055   2.242   2.691  13.526  1.7041  1.5898 -1.3282
 1522TIP3   OH226056   0.556   5.784   0.727  0.0875  0.1733 -0.5268
 1522TIP3    H126057   0.649   5.808   0.720 -0.3215  1.7964 -0.4078
 1522TIP3    H226058   0.528   5.772   0.636  0.3134  0.0409 -0.5804
 1523TIP3   OH226059   2.849   0.119   1.828 -0.3623  0.2659 -0.0576
 1523TIP3    H126060   2.767   0.078   1.800 -0.8218  1.7421 -0.9191
 1523TIP3    H226061   2.823   0.179   1.897 -0.4683  2.8979 -2.3076
 1524TIP3   OH226062   6.138   5.687   3.948 -0.6897  0.1027 -0.2835
 1524TIP3    H126063   6.140   5.593   3.963 -2.7342  0.0452 -0.3243
 1524TIP3    H226064   6.124   5.696   3.853 -2.1264  0.4407 -0.0432
 1525TIP3   OH226065   2.675   0.529   6.105 -0.4570  0.2648  0.4104
 1525TIP3    H126066   2.678   0.591   6.178 -1.2988  0.7912  0.0090
 1525TIP3    H226067   2.629   0.576   6.035 -0.4097 -0.5339 -0.1700
 1526TIP3   OH226068   2.089   5.697  14.813  0.3114  0.5218  0.4164
 1526TIP3    H126069   2.010   5.677  14.864 -0.0539  0.7006 -0.0689
 1526TIP3    H226070   2.111   5.787  14.837  0.7214  0.2655  1.0066
 1527TIP3   OH226071   6.642   6.545   1.367  0.0299 -0.6598 -0.2589
 1527TIP3    H126072   6.601   6.612   1.311  0.0705 -0.7818 -0.4357
 1527TIP3    H226073   6.687   6.488   1.306  1.4825  0.1647  0.0164
 1528TIP3   OH226074   5.070   6.279  14.738 -0.0751 -0.0506  0.1577
 1528TIP3    H126075   5.112   6.194  14.750  0.0873 -0.3335 -2.2917
 1528TIP3    H226076   5.111   6.315  14.660 -1.3303  1.5609  0.2339
 1529TIP3   OH226077   6.001   2.064   6.279 -0.1290 -0.1796  1.2885
 1529TIP3    H126078   6.012   2.046   6.372 -0.9919  0.1284  1.4539
 1529TIP3    H226079   5.964   2.152   6.276  1.9276  0.6830  0.5653
 1530TIP3   OH226080   1.520   0.861  16.873  0.3273 -0.2865  0.3611
 1530TIP3    H126081   1.467   0.914  16.933 -0.4858 -1.4264  0.6760
 1530TIP3    H226082   1.471   0.779  16.864  1.3066 -0.7908 -0.5184
 1531TIP3   OH226083   2.628   4.196   6.099 -0.3084  0.0747 -0.0531
 1531TIP3    H126084   2.662   4.217   6.012 -0.1190  1.3464  0.3146
 1531TIP3    H226085   2.648   4.103   6.110  0.0410 -0.0007 -1.1981
 1532TIP3   OH226086   3.040   1.516   0.404 -0.1196  0.2266 -0.5160
 1532TIP3    H126087   3.130   1.509   0.372  0.9166 -0.2744  2.3247
 1532TIP3    H226088   3.024   1.610   0.411  1.4294  0.3582  2.0813
 1533TIP3   OH226089   3.417   2.417  11.612  0.4127  0.2977 -0.4881
 1533TIP3    H126090   3.375   2.332  11.597  1.8409 -0.4670 -0.2190
 1533TIP3    H226091   3.382   2.473  11.543 -0.8197 -0.4034 -0.4467
 1534TIP3   OH226092   2.940   3.699   3.151  0.3630  0.3018 -0.1206
 1534TIP3    H126093   2.948   3.691   3.246 -1.4645 -0.1454  0.0137
 1534TIP3    H226094   2.937   3.793   3.135  0.4233  0.3734  0.2790
 1535TIP3   OH226095   2.917   0.492  12.108 -0.8998 -0.3335  0.6605
 1535TIP3    H126096   2.940   0.440  12.032  0.0678  0.9802  0.0388
 1535TIP3    H226097   2.882   0.428  12.171 -1.0619 -1.5138 -0.6076
 1536TIP3   OH226098   1.901   0.511   3.886 -0.4002  0.1147 -0.2323
 1536TIP3    H126099   1.893   0.552   3.972 -3.3543 -0.3146 -0.2653
 1536TIP3    H226100   1.978   0.553   3.847  0.2597  1.1868  2.1249
 1537TIP3   OH226101   3.985   3.529   3.779  0.5369  0.4184  0.6213
 1537TIP3    H126102   3.891   3.514   3.788  0.3910  0.1645 -1.1469
 1537TIP3    H226103   4.000   3.533   3.685  2.1608  1.3878  0.8977
 1538TIP3   OH226104   1.789   1.657   1.059  0.5252  0.2945 -0.3489
 1538TIP3    H126105   1.761   1.668   1.149 -1.1175 -2.0484 -0.5302
 1538TIP3    H226106   1.770   1.741   1.017 -1.5463  0.3841  0.7431
 1539TIP3   OH226107   2.085   0.583  13.734 -0.1067  0.3327 -0.3287
 1539TIP3    H126108   2.020   0.516  13.758 -0.8963  0.5476 -1.7989
 1539TIP3    H226109   2.032   0.660  13.710  0.8028  1.6293  1.6957
 1540TIP3   OH226110   0.913   1.348  12.545  0.4680  0.2454  0.9768
 1540TIP3    H126111   0.910   1.264  12.589 -0.1810  0.4068  1.2473
 1540TIP3    H226112   1.005   1.359  12.521  0.3037 -1.1814 -0.3281
 1541TIP3   OH226113   4.529   2.276   5.062  0.2885  0.0613  0.1029
 1541TIP3    H126114   4.551   2.356   5.110 -0.3479 -0.5362  1.4364
 1541TIP3    H226115   4.550   2.295   4.971  1.8046  1.1269  0.6625
 1542TIP3   OH226116   1.484   5.736  16.086 -0.1957 -0.4847  0.6998
 1542TIP3    H126117   1.420   5.807  16.082  2.3032  1.8271  0.2200
 1542TIP3    H226118   1.522   5.742  16.173 -0.1171 -1.4099  0.7396
 1543TIP3   OH226119   2.692   2.110  17.024 -0.3372  0.6022  0.0653
 1543TIP3    H126120   2.742   2.039  16.982 -1.0735  0.0224  0.1506
 1543TIP3    H226121   2.602   2.093  16.999 -0.6953  0.6995  1.2343
 1544TIP3   OH226122   4.790   4.714   3.784 -0.3242 -0.2342 -0.3420
 1544TIP3    H126123   4.724   4.649   3.812  0.1882 -1.1708 -1.2777
 1544TIP3    H226124   4.823   4.680   3.701  3.8653 -1.6575  1.7819
 1545TIP3   OH226125   2.459   6.310   4.766 -0.8219  0.1982 -0.3061
 1545TIP3    H126126   2.382   6.307   4.823  0.0638  1.3830  0.9607
 1545TIP3    H226127   2.513   6.236   4.796 -0.8652  0.1565 -0.3313
 1546TIP3   OH226128   2.510   5.028   2.253 -0.4003 -0.6702  0.2847
 1546TIP3    H126129   2.545   5.110   2.288 -0.7975 -0.1370 -0.5628
 1546TIP3    H226130   2.423   5.051   2.221  0.0982 -1.0768 -1.3964
 1547TIP3   OH226131   1.368   5.772   1.289  0.3953 -0.2373 -0.3156
 1547TIP3    H126132   1.337   5.858   1.317 -0.0523 -0.3892 -0.3353
 1547TIP3    H226133   1.427   5.790   1.215  1.2230  0.1340  0.4226
 1548TIP3   OH226134   3.974   4.382   1.847  0.3586 -0.3310  0.4287
 1548TIP3    H126135   4.042   4.387   1.914 -1.4895  0.0455  2.3465
 1548TIP3    H226136   3.982   4.294   1.811  2.0122 -0.2020  0.4681
 1549TIP3   OH226137   6.281   2.005   5.388  0.1350 -0.4238 -0.2693
 1549TIP3    H126138   6.195   1.967   5.409  0.5528 -0.7593  0.8656
 1549TIP3    H226139   6.265   2.058   5.310 -0.5895 -2.5383 -1.6383
 1550TIP3   OH226140   5.022   0.395   0.123  0.2671  0.1084 -0.0992
 1550TIP3    H126141   5.098   0.339   0.106  0.5693  0.4723  0.0418
 1550TIP3    H226142   5.055   0.463   0.182 -0.4606 -0.4059  0.9177
 1551TIP3   OH226143   1.224   2.911  11.834  0.1091 -0.3910 -0.1263
 1551TIP3    H126144   1.269   2.995  11.842 -0.3859  0.2168 -3.1855
 1551TIP3    H226145   1.267   2.867  11.760 -0.3373 -2.3898  0.7687
 1552TIP3   OH226146   2.628   1.046  17.270  0.2770  0.4469  0.4457
 1552TIP3    H126147   2.692   1.057  17.340  1.8837  0.2921 -0.9690
 1552TIP3    H226148   2.568   1.120  17.281  1.2883  1.1712  1.1751
 1553TIP3   OH226149   4.457   5.053   6.736 -0.4095  0.5179  0.4582
 1553TIP3    H126150   4.409   5.097   6.807 -0.6858  0.5518  0.2514
 1553TIP3    H226151   4.459   5.117   6.665 -0.1302  0.4841  0.4360
 1554TIP3   OH226152   4.750   3.257   1.729 -0.2040 -0.2162 -0.1204
 1554TIP3    H126153   4.710   3.182   1.684  0.5441 -0.8740  0.2971
 1554TIP3    H226154   4.743   3.329   1.667  0.8799 -1.1324 -1.3129
 1555TIP3   OH226155   2.411   4.265  16.724  0.2625  0.0085 -0.5038
 1555TIP3    H126156   2.335   4.310  16.686  0.4489 -1.8048 -3.1692
 1555TIP3    H226157   2.373   4.200  16.782 -0.1690  0.4442 -0.2930
 1556TIP3   OH226158   6.573   5.546   2.163  0.6558  0.0258  0.0331
 1556TIP3    H126159   6.664   5.519   2.153  0.7706 -0.1348  1.3434
 1556TIP3    H226160   6.575   5.641   2.151  1.0058  0.0308  0.1181
 1557TIP3   OH226161   1.301   3.380   3.237 -0.3488  0.0147 -0.0468
 1557TIP3    H126162   1.275   3.344   3.321  1.0971 -0.4237  0.2125
 1557TIP3    H226163   1.253   3.463   3.231 -1.4823 -0.5734  0.6025
 1558TIP3   OH226164   2.074   5.043  15.446  0.1653  0.0140  0.5782
 1558TIP3    H126165   2.167   5.039  15.470 -0.2245 -2.4070  1.8969
 1558TIP3    H226166   2.073   5.088  15.362  2.4691  0.7675  0.9132
 1559TIP3   OH226167   5.684   6.793  12.793  0.1141  0.2081 -0.6526
 1559TIP3    H126168   5.602   6.769  12.750 -0.4703 -0.7322  0.9273
 1559TIP3    H226169   5.662   6.797  12.886  1.9958 -0.6276 -0.1378
 1560TIP3   OH226170   5.750   6.793  11.302 -0.1827 -0.4773 -0.1147
 1560TIP3    H126171   5.719   6.719  11.250  0.6931 -1.4646  0.7267
 1560TIP3    H226172   5.756   6.866  11.241  0.2662 -1.4658 -1.2555
 1561TIP3   OH226173   6.209   5.595  11.105  0.3456  0.1345 -0.3669
 1561TIP3    H126174   6.276   5.527  11.111  0.2733  0.1005  0.0426
 1561TIP3    H226175   6.240   5.653  11.035  0.7978  0.1217 -0.1773
 1562TIP3   OH226176   4.969   6.201   2.401 -0.3583 -0.2323 -0.0066
 1562TIP3    H126177   5.001   6.290   2.413 -1.1019  0.2866 -1.6076
 1562TIP3    H226178   4.875   6.206   2.421 -0.4173 -0.6308 -0.1779
 1563TIP3   OH226179   0.249   2.703   5.939  0.5936 -0.2355  0.3716
 1563TIP3    H126180   0.170   2.649   5.933  0.2041  0.4629 -1.0843
 1563TIP3    H226181   0.219   2.783   5.982  0.7188 -0.3652  0.6975
 1564TIP3   OH226182   0.436   4.218   2.081 -0.4794 -0.7217 -0.0931
 1564TIP3    H126183   0.422   4.312   2.092 -0.3268 -0.7500  0.3408
 1564TIP3    H226184   0.368   4.191   2.019 -0.4077 -0.2926 -0.3578
 1565TIP3   OH226185   5.737   2.133   0.464  0.4240  0.2158  0.0463
 1565TIP3    H126186   5.658   2.097   0.423  0.9651 -1.1672  0.1668
 1565TIP3    H226187   5.808   2.076   0.433  1.3138  1.2104  0.2426
 1566TIP3   OH226188   0.791   4.448  15.654  0.1834  0.2668  0.4337
 1566TIP3    H126189   0.845   4.370  15.659  0.9905  0.8343  0.6312
 1566TIP3    H226190   0.779   4.475  15.745  1.4895  1.4468  0.2712
 1567TIP3   OH226191   3.445   2.510  14.016 -0.2249 -0.3865  0.1692
 1567TIP3    H126192   3.457   2.570  13.942 -1.2631  0.0726  0.3607
 1567TIP3    H226193   3.471   2.425  13.982  0.6621  0.0614 -0.2976
 1568TIP3   OH226194   0.189   5.283   0.476  0.1353  0.6458  0.0111
 1568TIP3    H126195   0.199   5.357   0.536 -2.0178 -0.2584  1.5415
 1568TIP3    H226196   0.134   5.317   0.405 -1.3713  0.3591  1.0248
 1569TIP3   OH226197   5.524   5.349  14.978  0.9444  0.6465  0.5184
 1569TIP3    H126198   5.545   5.302  14.897 -0.3606 -0.8192  1.0127
 1569TIP3    H226199   5.598   5.410  14.990  1.5866  0.2613 -1.2855
 1570TIP3   OH226200   2.190   4.534   1.225 -0.4220 -0.4325 -0.3037
 1570TIP3    H126201   2.259   4.490   1.175 -0.5840 -0.3627 -0.5886
 1570TIP3    H226202   2.130   4.464   1.251  0.4385 -0.6859  1.0598
 1571TIP3   OH226203   2.540   1.656   6.870 -0.2995  0.5249 -0.0808
 1571TIP3    H126204   2.469   1.667   6.807  2.4264  0.3205 -3.3569
 1571TIP3    H226205   2.585   1.741   6.871  0.7015  0.0022  0.2423
 1572TIP3   OH226206   4.825   3.591   2.334 -0.2707  0.2019 -0.7746
 1572TIP3    H126207   4.854   3.680   2.354  1.1158  0.4936 -3.6827
 1572TIP3    H226208   4.730   3.593   2.343 -0.1144  1.5662  0.6351
 1573TIP3   OH226209   1.054   3.922  11.399  0.0838  0.4982 -0.1702
 1573TIP3    H126210   1.143   3.943  11.371  0.3692  0.3636  0.6096
 1573TIP3    H226211   1.063   3.841  11.448 -0.7568 -0.4966 -1.6455
 1574TIP3   OH226212   4.524   1.198   5.447 -0.3058  0.1295 -0.3473
 1574TIP3    H126213   4.570   1.114   5.455  0.5616  0.5300 -1.0728
 1574TIP3    H226214   4.584   1.253   5.397 -0.6409  1.3484  0.5689
 1575TIP3   OH226215   6.137   1.949  12.592 -0.2966 -0.3066 -0.0156
 1575TIP3    H126216   6.044   1.971  12.590 -0.0371  0.7080 -1.4576
 1575TIP3    H226217   6.179   2.013  12.534  1.4213 -0.1708  1.3289
 1576TIP3   OH226218   4.313   5.484   0.789 -0.4295 -0.1763 -0.4094
 1576TIP3    H126219   4.329   5.393   0.815  0.6785  0.2797  0.5523
 1576TIP3    H226220   4.326   5.534   0.870  0.4711  1.0030 -1.2760
 1577TIP3   OH226221   6.555   6.616  17.288 -0.2491 -0.1042  0.0271
 1577TIP3    H126222   6.556   6.569  17.371  0.0872  2.1622  1.3618
 1577TIP3    H226223   6.644   6.607  17.254 -0.0127  0.1102  0.5898
 1578TIP3   OH226224   1.781   5.094  11.514 -0.2895 -0.0350  0.2641
 1578TIP3    H126225   1.717   5.153  11.475 -0.9731  0.5483  2.2556
 1578TIP3    H226226   1.774   5.109  11.608  2.5309 -0.2174  0.5299
 1579TIP3   OH226227   3.553   1.296  13.624 -0.4098 -0.4219 -0.1630
 1579TIP3    H126228   3.498   1.303  13.545  2.3055 -0.1693 -2.0859
 1579TIP3    H226229   3.568   1.202  13.634 -0.5419 -0.4371 -0.1067
 1580TIP3   OH226230   3.002   5.453   1.527  0.0284  0.2777  0.1110
 1580TIP3    H126231   3.088   5.433   1.491 -0.2935  0.9199 -1.0546
 1580TIP3    H226232   3.014   5.451   1.622  1.7888  2.3525 -0.0254
 1581TIP3   OH226233   1.111   0.358  13.611  0.2958 -0.2827  0.4219
 1581TIP3    H126234   1.173   0.314  13.670 -0.6028  1.1198  2.4898
 1581TIP3    H226235   1.124   0.451  13.628  0.5932  0.2048 -2.2599
 1582TIP3   OH226236   5.318   6.632  10.832 -0.3651  0.2611  1.1155
 1582TIP3    H126237   5.252   6.583  10.881 -0.1466  0.8895  2.0496
 1582TIP3    H226238   5.272   6.709  10.800 -0.3010  0.2549  1.0070
 1583TIP3   OH226239   6.448   1.457   0.949  0.1102  0.0851  0.0501
 1583TIP3    H126240   6.417   1.437   1.037  0.4198  1.8506  0.5881
 1583TIP3    H226241   6.500   1.380   0.923 -1.9901 -1.4924  0.4078
 1584TIP3   OH226242   6.178   1.758   4.969 -0.6658 -0.3036  0.2351
 1584TIP3    H126243   6.127   1.716   4.899  0.3701  0.3112 -0.9128
 1584TIP3    H226244   6.124   1.832   4.997 -0.3729  0.4169 -1.0577
 1585TIP3   OH226245   0.114   1.289   5.574 -0.4385  0.1284 -0.5597
 1585TIP3    H126246   0.068   1.343   5.510 -0.8499 -1.1110 -1.3277
 1585TIP3    H226247   0.126   1.205   5.530  2.6033  0.4189 -0.3914
 1586TIP3   OH226248   5.143   5.980  15.139 -0.2212  0.1240  0.2821
 1586TIP3    H126249   5.067   6.031  15.167  0.1933  1.4375 -0.8960
 1586TIP3    H226250   5.144   5.988  15.044  1.7271  0.6653  0.3100
 1587TIP3   OH226251   4.263   2.422   1.357 -0.2206  0.3372  0.8005
 1587TIP3    H126252   4.341   2.431   1.412  1.0798 -0.9318 -0.7767
 1587TIP3    H226253   4.203   2.367   1.409  1.1082 -1.0891  0.8660
 1588TIP3   OH226254   4.536   1.447   2.362 -0.3568 -0.5000  0.8877
 1588TIP3    H126255   4.504   1.530   2.328 -0.4791 -0.3608  1.3348
 1588TIP3    H226256   4.458   1.391   2.364 -0.0498 -0.9941 -0.4971
 1589TIP3   OH226257   0.136   3.535   6.211  0.4414  0.7018  0.0565
 1589TIP3    H126258   0.225   3.551   6.179 -0.4383  1.1798 -2.2734
 1589TIP3    H226259   0.127   3.440   6.209  1.0422  0.6311  0.6888
 1590TIP3   OH226260   3.345   2.972   6.026 -0.1108  0.3981  0.4414
 1590TIP3    H126261   3.359   2.881   6.053  0.4675  1.2086  3.0426
 1590TIP3    H226262   3.404   2.985   5.952  0.3007 -1.1492  0.4877
 1591TIP3   OH226263   4.599   1.359   3.601  0.2842 -0.2143 -0.2530
 1591TIP3    H126264   4.567   1.449   3.608  0.4094 -0.0847 -1.2086
 1591TIP3    H226265   4.693   1.367   3.613  0.2241 -0.2962  0.2690
 1592TIP3   OH226266   1.414   5.229   4.407 -0.3651  0.8460  0.5595
 1592TIP3    H126267   1.478   5.222   4.479 -0.3585  1.0723  0.5760
 1592TIP3    H226268   1.353   5.296   4.436 -1.4678 -0.4056  1.2014
 1593TIP3   OH226269   1.165   5.407  14.952 -0.3038  0.1433 -0.0588
 1593TIP3    H126270   1.201   5.385  14.866  0.6243 -1.5376  0.7317
 1593TIP3    H226271   1.235   5.455  14.996 -0.6242  0.6384 -0.0877
 1594TIP3   OH226272   0.176   1.750   5.020  0.2610  0.8084 -0.3586
 1594TIP3    H126273   0.083   1.755   5.000 -0.1555 -1.7626  0.8022
 1594TIP3    H226274   0.218   1.739   4.935 -0.6440  0.0386 -0.7062
 1595TIP3   OH226275   0.828   2.409   4.259  0.3535  0.5458  0.1170
 1595TIP3    H126276   0.747   2.391   4.212  0.8424  0.8016 -0.8282
 1595TIP3    H226277   0.821   2.501   4.285  0.8488  0.8982 -0.9799
 1596TIP3   OH226278   6.591   2.049   3.284 -0.2119  0.0952  0.0238
 1596TIP3    H126279   6.573   2.060   3.191  0.2479 -0.1514 -0.0933
 1596TIP3    H226280   6.507   2.066   3.327 -0.1904  1.2707 -0.3608
 1597TIP3   OH226281   2.758   6.282   4.884 -0.0968 -0.1042 -0.1439
 1597TIP3    H126282   2.787   6.331   4.807 -2.5870 -0.2289 -1.1794
 1597TIP3    H226283   2.699   6.215   4.850  0.0648 -1.2202  1.7035
 1598TIP3   OH226284   3.167   6.172   2.361  0.0612  0.0512  0.2705
 1598TIP3    H126285   3.251   6.202   2.327  1.1660  1.1768  3.7382
 1598TIP3    H226286   3.189   6.110   2.430 -1.9036  0.4419  1.3194
 1599TIP3   OH226287   5.305   4.510   2.180 -0.3537 -0.7180 -0.0807
 1599TIP3    H126288   5.330   4.556   2.100 -2.8873 -2.5237 -1.9954
 1599TIP3    H226289   5.250   4.572   2.227 -1.0286 -0.5699 -1.0479
 1600TIP3   OH226290   1.211   4.998   6.628 -0.0700 -0.2411  0.4237
 1600TIP3    H126291   1.135   4.964   6.675  0.3096 -0.1017  1.1513
 1600TIP3    H226292   1.210   4.952   6.544 -2.3450  1.5254 -0.5709
 1601TIP3   OH226293   1.841   6.751   3.609 -0.6672  0.0520 -0.6108
 1601TIP3    H126294   1.869   6.748   3.517 -0.0235 -2.0857 -0.3685
 1601TIP3    H226295   1.865   6.839   3.638  1.2272 -0.0264 -1.8427
 1602TIP3   OH226296   2.475   5.801   0.498  0.2938  0.6981 -0.3125
 1602TIP3    H126297   2.525   5.859   0.556  3.1597 -0.0255 -1.9672
 1602TIP3    H226298   2.487   5.839   0.411 -1.7513  0.2722 -0.7989
 1603TIP3   OH226299   0.681   4.327  13.081 -0.7806 -0.3159  0.2018
 1603TIP3    H126300   0.750   4.312  13.017 -0.0593  0.0682  0.8917
 1603TIP3    H226301   0.631   4.401  13.045  0.4476  0.7985  0.7557
 1604TIP3   OH226302   2.163   0.960   1.384  0.2759  0.6353  0.0116
 1604TIP3    H126303   2.085   0.920   1.345  1.6926 -1.4535 -0.8248
 1604TIP3    H226304   2.225   0.967   1.311  1.5844  0.3042  1.0714
 1605TIP3   OH226305   6.335   2.852  16.955  0.3798 -0.0177 -0.0390
 1605TIP3    H126306   6.369   2.775  17.000  1.5234  0.3711 -0.2141
 1605TIP3    H226307   6.282   2.817  16.884  0.8412 -0.6485 -0.0812
 1606TIP3   OH226308   0.200   5.612   0.587  0.2758  0.5394  0.7030
 1606TIP3    H126309   0.118   5.662   0.582 -0.2336 -0.1939  1.7137
 1606TIP3    H226310   0.196   5.566   0.671  0.9663 -0.8366  0.0014
 1607TIP3   OH226311   1.197   1.334  12.550 -0.1587 -0.0746 -0.4360
 1607TIP3    H126312   1.289   1.358  12.538  0.0952 -1.6872 -1.8290
 1607TIP3    H226313   1.199   1.268  12.619 -0.2196 -0.5153 -0.8578
 1608TIP3   OH226314   1.879   6.097   5.919  0.2142 -0.7261  0.1943
 1608TIP3    H126315   1.826   6.033   5.872 -0.5510 -0.6632  0.9595
 1608TIP3    H226316   1.924   6.146   5.850 -0.9515 -0.5871 -0.4837
 1609TIP3   OH226317   0.880   4.476   0.649  0.0873 -0.6022  0.2531
 1609TIP3    H126318   0.908   4.563   0.676 -0.3505 -0.5210  0.4652
 1609TIP3    H226319   0.941   4.417   0.693  0.6339 -0.3853 -0.2195
 1610TIP3   OH226320   2.802   2.014   4.210 -0.1615  0.3191 -0.5159
 1610TIP3    H126321   2.892   1.984   4.201  0.3820  1.4877  0.9616
 1610TIP3    H226322   2.809   2.102   4.245 -1.9247 -0.1244  1.0312
 1611TIP3   OH226323   1.641   2.082  13.052  0.1397  0.4983 -0.7933
 1611TIP3    H126324   1.694   2.115  12.980  0.8624  2.1126  0.4350
 1611TIP3    H226325   1.690   2.106  13.131 -0.8276 -0.8713  0.2610
 1612TIP3   OH226326   0.662   4.724   4.212  0.3500  0.1358  0.1174
 1612TIP3    H126327   0.722   4.797   4.197  0.4586 -0.2076 -1.2571
 1612TIP3    H226328   0.598   4.758   4.275  1.5314  0.7557  1.0030
 1613TIP3   OH226329   5.076   6.507  16.716  0.4306  0.5435  0.2061
 1613TIP3    H126330   5.024   6.566  16.771  1.7264  0.6260  1.3857
 1613TIP3    H226331   5.075   6.424  16.763 -1.6689 -0.4874 -1.6248
 1614TIP3   OH226332   4.252   1.929  11.640  0.4425  0.3755 -0.5152
 1614TIP3    H126333   4.248   1.995  11.571  0.3147  0.5324 -0.3589
 1614TIP3    H226334   4.342   1.896  11.638  0.8777  1.4770  0.2676
 1615TIP3   OH226335   5.378   1.653   4.062  0.4189 -0.2105 -0.2563
 1615TIP3    H126336   5.355   1.725   4.003  0.4528 -1.7472 -2.1877
 1615TIP3    H226337   5.449   1.688   4.115  0.5112  1.1530 -1.2402
 1616TIP3   OH226338   0.877   4.291  12.883 -0.2624  0.2945  0.3043
 1616TIP3    H126339   0.871   4.248  12.798 -0.4009 -2.0400  1.4599
 1616TIP3    H226340   0.970   4.311  12.893 -0.5616  2.8377 -1.4319
 1617TIP3   OH226341   3.066   6.442   2.670  0.6921 -0.1471 -0.2086
 1617TIP3    H126342   3.092   6.524   2.628 -1.7563 -0.7763 -3.1890
 1617TIP3    H226343   3.145   6.389   2.670  1.2790  0.6613 -2.2302
 1618TIP3   OH226344   1.882   1.851  15.195 -0.2729 -0.1421  0.3866
 1618TIP3    H126345   1.875   1.819  15.105 -0.6511  1.1080 -0.0359
 1618TIP3    H226346   1.792   1.850  15.228 -0.2414  0.1954  0.4829
 1619TIP3   OH226347   0.625   5.453  12.141  0.0618 -0.2456 -0.5364
 1619TIP3    H126348   0.619   5.516  12.213  0.1490  1.2520 -1.7887
 1619TIP3    H226349   0.535   5.430  12.121 -0.0997  1.0620 -1.3884
 1620TIP3   OH226350   1.616   0.365   5.961 -0.3183 -0.0031 -0.4341
 1620TIP3    H126351   1.559   0.381   6.036 -1.7506 -0.5534 -1.3795
 1620TIP3    H226352   1.687   0.310   5.996 -1.5963 -1.2425  0.2597
 1621TIP3   OH226353   0.794   3.584   4.656  0.1213  0.3737  0.3863
 1621TIP3    H126354   0.829   3.543   4.577 -2.1131  0.7329 -0.8531
 1621TIP3    H226355   0.719   3.529   4.681  0.8024  0.2600  2.2671
 1622TIP3   OH226356   6.700   1.223  16.272  0.7385 -0.5973 -0.4655
 1622TIP3    H126357   6.724   1.170  16.196 -0.3612 -1.7217 -0.0646
 1622TIP3    H226358   6.604   1.221  16.272  0.7137  0.7216  0.0375
 1623TIP3   OH226359   2.252   2.057  16.067 -0.0045  0.1714  0.0146
 1623TIP3    H126360   2.311   2.110  16.014 -1.5907  0.7628 -1.1564
 1623TIP3    H226361   2.258   1.969  16.029 -0.3077  0.3550 -0.4570
 1624TIP3   OH226362   6.679   2.874   3.900 -0.3253  0.0583  0.3461
 1624TIP3    H126363   6.649   2.901   3.987  0.5764  0.2192  0.6106
 1624TIP3    H226364   6.758   2.823   3.917 -0.9954 -1.2156 -0.2781
 1625TIP3   OH226365   1.317   6.664  13.556  0.2725 -0.0012 -0.2665
 1625TIP3    H126366   1.409   6.676  13.532  0.1144  0.0681 -0.8437
 1625TIP3    H226367   1.312   6.691  13.648  0.7723  0.2583 -0.3173
 1626TIP3   OH226368   5.778   3.166  12.240 -0.2208 -0.2550 -0.1761
 1626TIP3    H126369   5.793   3.221  12.317 -0.4508  1.1916 -1.1537
 1626TIP3    H226370   5.765   3.228  12.168 -0.1502 -1.5894 -1.3585
 1627TIP3   OH226371   1.798   2.862   3.863  0.0676 -0.0181 -0.5721
 1627TIP3    H126372   1.743   2.892   3.936  1.1600  1.8340 -0.5048
 1627TIP3    H226373   1.736   2.846   3.792 -1.1404 -2.7064  0.9674
 1628TIP3   OH226374   1.678   4.181   3.694 -0.1383 -0.0500  0.1023
 1628TIP3    H126375   1.714   4.093   3.680  1.6361  0.6589  0.0520
 1628TIP3    H226376   1.641   4.205   3.609 -1.6957 -1.2122  0.4381
 1629TIP3   OH226377   1.397   6.004   4.740 -0.4445  0.1564  0.1189
 1629TIP3    H126378   1.422   5.959   4.821  1.2709  1.3995  0.3156
 1629TIP3    H226379   1.303   6.020   4.749 -0.6740 -1.5419  0.9357
 1630TIP3   OH226380   2.740   0.822  15.160 -0.2052 -0.9039 -0.1774
 1630TIP3    H126381   2.655   0.851  15.194 -0.2030  0.4509 -1.2741
 1630TIP3    H226382   2.719   0.746  15.105 -0.8867  0.1623 -1.4316
 1631TIP3   OH226383   1.032   3.046  10.763  0.3979  0.2872 -0.2364
 1631TIP3    H126384   1.013   3.134  10.732  0.6155  0.1420 -0.7784
 1631TIP3    H226385   1.111   3.057  10.817  1.2055  0.2130 -1.3858
 1632TIP3   OH226386   3.488   1.877  13.564  0.5387 -0.0631  0.2373
 1632TIP3    H126387   3.545   1.802  13.576 -0.3768 -0.8854 -0.4856
 1632TIP3    H226388   3.403   1.850  13.599 -0.0872  0.2204 -1.0153
 1633TIP3   OH226389   2.804   2.813   5.397 -0.4186  0.1714 -0.5766
 1633TIP3    H126390   2.778   2.734   5.351  2.1109 -0.3808 -1.1751
 1633TIP3    H226391   2.891   2.793   5.432 -0.3638  2.1665  0.5360
 1634TIP3   OH226392   3.774   5.807  14.010 -0.0614  0.6195  0.1225
 1634TIP3    H126393   3.840   5.847  13.953 -0.2242  0.7105 -0.0057
 1634TIP3    H226394   3.752   5.876  14.073 -0.5814  0.8473 -0.3026
 1635TIP3   OH226395   2.635   4.881   2.477 -0.2145  0.0274  0.0035
 1635TIP3    H126396   2.620   4.954   2.417 -0.4749 -0.7565 -0.9007
 1635TIP3    H226397   2.660   4.923   2.560 -0.4715  1.1380 -0.4676
 1636TIP3   OH226398   5.204   6.341  14.142  0.5528 -0.5277 -0.1482
 1636TIP3    H126399   5.243   6.313  14.060 -0.0157 -1.6367 -0.0398
 1636TIP3    H226400   5.166   6.262  14.180 -0.6965  0.3003  0.3602
 1637TIP3   OH226401   3.667   0.431  11.962  0.1305  0.2434  0.2672
 1637TIP3    H126402   3.653   0.476  11.878 -0.7883 -0.9421 -0.2280
 1637TIP3    H226403   3.643   0.340  11.945 -1.3492  0.2404  2.1593
 1638TIP3   OH226404   4.432   3.702  13.089 -0.3233  0.5626  0.3275
 1638TIP3    H126405   4.388   3.759  13.025 -1.0576 -3.1277 -2.6668
 1638TIP3    H226406   4.360   3.658  13.135  0.1980 -0.7537 -0.0894
 1639TIP3   OH226407   0.680   1.249   2.011  0.5243  0.1235 -0.0265
 1639TIP3    H126408   0.645   1.335   1.989 -0.0347 -0.0854  0.0423
 1639TIP3    H226409   0.607   1.189   2.000  0.9516 -0.3674 -0.2114
 1640TIP3   OH226410   4.517   3.060   2.388  0.5584 -0.2271 -0.3147
 1640TIP3    H126411   4.572   2.984   2.404 -0.1873 -0.7937 -0.4320
 1640TIP3    H226412   4.570   3.134   2.417  1.4138 -0.7562 -0.5039
 1641TIP3   OH226413   3.957   0.955  13.203  0.4873 -0.9061  0.4575
 1641TIP3    H126414   3.908   1.026  13.162 -2.3738 -1.8482  2.0962
 1641TIP3    H226415   3.932   0.877  13.153 -2.0033 -1.8487  2.9971
 1642TIP3   OH226416   5.539   2.462   1.059  0.9104 -0.0570  0.2156
 1642TIP3    H126417   5.598   2.520   1.011  0.4176  0.9241  0.7758
 1642TIP3    H226418   5.452   2.483   1.026  0.6306  0.2061  1.1132
 1643TIP3   OH226419   2.757   4.530  13.368 -0.1774  0.3068  0.3103
 1643TIP3    H126420   2.712   4.497  13.446 -1.0429  1.0031  0.1107
 1643TIP3    H226421   2.698   4.511  13.296  1.2433 -1.6375 -0.4009
 1644TIP3   OH226422   4.131   2.341  15.894  0.3062  0.5882  0.1314
 1644TIP3    H126423   4.070   2.281  15.937 -0.9547  1.6641 -0.1178
 1644TIP3    H226424   4.204   2.286  15.866 -1.0572 -0.9168 -0.5346
 1645TIP3   OH226425   3.243   1.541  17.159  0.5407  0.3852  0.3861
 1645TIP3    H126426   3.334   1.534  17.188  0.3391  0.9353  1.1591
 1645TIP3    H226427   3.203   1.603  17.220 -0.3103  0.2736 -0.0562
 1646TIP3   OH226428   0.319   6.312  12.492 -0.3858  0.2292 -1.3428
 1646TIP3    H126429   0.315   6.277  12.581 -0.6201 -0.2346 -1.5299
 1646TIP3    H226430   0.227   6.327  12.469 -0.1861  3.0742 -0.4613
 1647TIP3   OH226431   2.600   2.344   0.494 -0.4194  0.2015  0.4234
 1647TIP3    H126432   2.550   2.353   0.575 -1.0226 -0.9693  0.1866
 1647TIP3    H226433   2.548   2.392   0.429 -0.3512  0.4512  0.5534
 1648TIP3   OH226434   3.728   0.756  11.453  0.7756  0.0286 -0.0763
 1648TIP3    H126435   3.740   0.715  11.368 -0.3344 -0.9930  0.2358
 1648TIP3    H226436   3.700   0.845  11.434 -3.9430 -1.4889 -0.8845
 1649TIP3   OH226437   2.681   1.866  15.044  0.1030 -0.7959  0.3143
 1649TIP3    H126438   2.615   1.871  15.112  0.5028  0.2193  0.6428
 1649TIP3    H226439   2.651   1.928  14.977  0.1496 -1.1571 -0.0437
 1650TIP3   OH226440   4.978   3.938  15.624 -0.2030 -0.3366 -0.2060
 1650TIP3    H126441   4.887   3.970  15.620 -0.1813 -0.1151  0.9344
 1650TIP3    H226442   4.979   3.877  15.698  0.7192  0.1153  0.1607
 1651TIP3   OH226443   6.393   1.848   3.095  0.0503  0.4004 -0.0467
 1651TIP3    H126444   6.385   1.944   3.098 -1.0054  0.3864 -1.9170
 1651TIP3    H226445   6.372   1.825   3.005  0.1286 -1.6199  0.4397
 1652TIP3   OH226446   0.470   0.385   5.113 -0.0625 -0.1688 -0.2108
 1652TIP3    H126447   0.418   0.409   5.189 -0.8354  0.5166 -0.9415
 1652TIP3    H226448   0.560   0.381   5.145 -0.2930  0.8231  0.5766
 1653TIP3   OH226449   2.354   0.003  14.633  0.6282 -0.0712 -0.0087
 1653TIP3    H126450   2.392   0.056  14.703 -0.4144  0.0341  0.4918
 1653TIP3    H226451   2.408  -0.075  14.630  1.7580  0.7027 -0.2782
 1654TIP3   OH226452   2.965   0.941   2.454 -0.0004 -0.0666 -0.6731
 1654TIP3    H126453   3.021   0.990   2.394  0.3736 -0.3134 -0.5268
 1654TIP3    H226454   2.898   1.004   2.481 -0.9358 -0.3166 -2.3456
 1655TIP3   OH226455   3.139   6.390   5.107 -0.1657  0.2768 -0.3456
 1655TIP3    H126456   3.093   6.312   5.137  1.2434 -0.0836  0.8940
 1655TIP3    H226457   3.215   6.357   5.060  0.6962  0.9126  0.6044
 1656TIP3   OH226458   2.718   2.701   2.395 -0.1535  0.2565 -0.1014
 1656TIP3    H126459   2.707   2.756   2.317  0.5589  0.2535 -0.2059
 1656TIP3    H226460   2.639   2.647   2.397 -0.1137  0.1542 -0.9058
 1657TIP3   OH226461   1.375   5.316   0.936  0.4573  0.0509 -0.1074
 1657TIP3    H126462   1.366   5.237   0.883 -0.0199 -0.1800  0.3090
 1657TIP3    H226463   1.435   5.292   1.006 -0.0336 -0.0832  0.2734
 1658TIP3   OH226464   5.384   1.977  14.395  0.4637  0.6018 -0.4990
 1658TIP3    H126465   5.377   2.053  14.338  0.3248  0.2649 -0.9368
 1658TIP3    H226466   5.439   1.915  14.346  0.9749  0.6115  0.0603
 1659TIP3   OH226467   4.204   1.815   5.109  0.5780  0.0548 -0.3067
 1659TIP3    H126468   4.268   1.765   5.058  0.9976  0.4893 -0.2104
 1659TIP3    H226469   4.230   1.907   5.097 -0.6997  0.3135 -1.1810
 1660TIP3   OH226470   6.731   1.624   3.073 -0.2511 -0.4968  0.3035
 1660TIP3    H126471   6.777   1.680   3.010 -1.2528  1.1021  0.9685
 1660TIP3    H226472   6.789   1.622   3.149 -0.7825  0.6912  0.7561
 1661TIP3   OH226473   0.486   6.329  11.865 -0.5615  0.1180  0.3704
 1661TIP3    H126474   0.523   6.361  11.948 -1.1491 -0.1325  0.7365
 1661TIP3    H226475   0.464   6.238  11.883  1.4062 -0.6120 -0.7787
 1662TIP3   OH226476   4.679   1.079  15.584 -0.4137  0.2839 -0.2585
 1662TIP3    H126477   4.733   1.021  15.532 -0.1956  0.8019 -0.6140
 1662TIP3    H226478   4.638   1.138  15.520 -1.7607 -0.4029 -0.0408
 1663TIP3   OH226479   2.660   6.480   0.762  0.0888  0.1072 -0.3780
 1663TIP3    H126480   2.730   6.424   0.795 -1.4557 -0.7531  1.5660
 1663TIP3    H226481   2.684   6.568   0.790 -0.7492 -0.4941  2.3748
 1664TIP3   OH226482   4.338   1.486   2.629 -0.2273  0.1679  0.1120
 1664TIP3    H126483   4.280   1.543   2.578  1.0533  0.9959 -0.4304
 1664TIP3    H226484   4.378   1.544   2.693  2.7473  0.3835 -1.8300
 1665TIP3   OH226485   6.595   4.868  16.872  0.0685  0.6679 -0.2005
 1665TIP3    H126486   6.529   4.816  16.917 -1.3288  3.7605  1.5035
 1665TIP3    H226487   6.630   4.810  16.805 -2.1072 -2.0937  0.9561
 1666TIP3   OH226488   5.956   2.576  13.765  0.0732  0.3134 -0.3344
 1666TIP3    H126489   5.891   2.505  13.761  0.3245  0.0669 -0.0791
 1666TIP3    H226490   5.961   2.597  13.858 -0.9061  1.5132 -0.5436
 1667TIP3   OH226491   3.130   3.975   0.338 -0.0238 -0.2448  0.2052
 1667TIP3    H126492   3.222   3.952   0.323 -0.2946 -0.2928 -1.4928
 1667TIP3    H226493   3.123   4.066   0.310  0.1585  0.7619  3.2080
 1668TIP3   OH226494   0.279   5.481   4.748 -0.2893 -0.0359 -0.1961
 1668TIP3    H126495   0.198   5.497   4.796  0.4250 -1.1186  1.3846
 1668TIP3    H226496   0.339   5.446   4.813  1.1683 -0.1062 -1.5629
 1669TIP3   OH226497   6.548   2.125  14.635  0.1115 -0.6207  0.7779
 1669TIP3    H126498   6.486   2.145  14.705 -0.1501 -0.1815  0.4267
 1669TIP3    H226499   6.566   2.031  14.644 -1.5972 -1.0179  0.0809
 1670TIP3   OH226500   6.751   0.595   3.850  0.1444 -0.2702  0.1364
 1670TIP3    H126501   6.699   0.587   3.770 -1.8337  0.9179  1.2824
 1670TIP3    H226502   6.726   0.519   3.903 -3.3569  2.2481  2.2969
 1671TIP3   OH226503   4.859   1.789  15.857  0.2382  0.1576  0.1125
 1671TIP3    H126504   4.834   1.709  15.904  0.6822  0.1259  0.2925
 1671TIP3    H226505   4.905   1.841  15.922  0.4067  0.3370 -0.1515
 1672TIP3   OH226506   1.908   3.715  16.401  0.4449 -0.3812 -0.1528
 1672TIP3    H126507   1.974   3.771  16.443  0.5494 -1.4879  1.1764
 1672TIP3    H226508   1.941   3.703  16.311  0.8022  1.0635 -0.2291
 1673TIP3   OH226509   4.381   5.565  14.596 -0.1062 -0.5172  0.5904
 1673TIP3    H126510   4.388   5.472  14.613 -0.5080 -1.2687 -2.8746
 1673TIP3    H226511   4.448   5.583  14.529 -1.3244  1.2632 -0.2048
 1674TIP3   OH226512   5.002   1.226   2.768  0.1598 -0.0095  0.0686
 1674TIP3    H126513   4.956   1.159   2.819 -0.2375 -0.5956 -1.0480
 1674TIP3    H226514   5.065   1.177   2.716  1.1460  0.6728  0.6181
 1675TIP3   OH226515   6.723   0.240  14.355 -0.3362 -0.2797  0.3726
 1675TIP3    H126516   6.770   0.223  14.274 -0.1108  0.9625  0.2286
 1675TIP3    H226517   6.787   0.285  14.411 -1.7212  2.7823 -0.3671
 1676TIP3   OH226518   4.455   2.071  12.964 -0.1478 -0.1063  0.6958
 1676TIP3    H126519   4.431   2.061  13.056  0.6516  0.2910  0.9539
 1676TIP3    H226520   4.437   1.985  12.926 -1.5898  0.0634  0.9517
 1677TIP3   OH226521   0.612   2.738  17.265  0.0935 -0.0654 -0.2225
 1677TIP3    H126522   0.528   2.782  17.259  0.4035  0.4508 -0.7891
 1677TIP3    H226523   0.647   2.765  17.350 -0.6853 -0.9583  0.3930
 1678TIP3   OH226524   0.016   1.174  12.147  0.1821  0.5781  0.2082
 1678TIP3    H126525  -0.023   1.087  12.138  0.1883  0.4372  1.4479
 1678TIP3    H226526  -0.057   1.231  12.172  0.2436  0.8692 -0.2592
 1679TIP3   OH226527   5.675   6.775   2.046 -0.6542 -0.0228  0.1167
 1679TIP3    H126528   5.579   6.782   2.053 -0.6980 -0.9041  0.4635
 1679TIP3    H226529   5.708   6.822   2.123 -0.9046 -2.3677  1.7036
 1680TIP3   OH226530   5.716   1.592  11.522 -0.1600  0.0595 -0.4223
 1680TIP3    H126531   5.671   1.553  11.597 -1.4971  1.4162 -0.4848
 1680TIP3    H226532   5.756   1.518  11.477  2.3134 -0.5886  2.6682
 1681TIP3   OH226533   3.436   5.630  14.373  0.1777 -0.4289  0.7461
 1681TIP3    H126534   3.477   5.577  14.441  1.3439  0.8222  1.0548
 1681TIP3    H226535   3.482   5.605  14.293  0.0588 -0.5908  0.7282
 1682TIP3   OH226536   4.278   3.898  12.955 -0.5308 -0.0798 -0.1703
 1682TIP3    H126537   4.202   3.948  12.982  0.2428  0.5946  0.8044
 1682TIP3    H226538   4.256   3.865  12.868 -0.7352  2.6014 -1.1624
 1683TIP3   OH226539   1.546   2.238   5.631 -0.4475  0.1314  0.3966
 1683TIP3    H126540   1.460   2.248   5.671 -0.8470 -0.7722 -0.2166
 1683TIP3    H226541   1.573   2.328   5.609 -0.7070  0.5217  1.6610
 1684TIP3   OH226542   0.515   3.537   1.892 -0.2878 -0.0885 -0.1394
 1684TIP3    H126543   0.469   3.491   1.962 -1.1224 -0.3653 -0.8621
 1684TIP3    H226544   0.477   3.503   1.811 -0.2344  1.1476 -0.7027
 1685TIP3   OH226545   2.498   5.298  11.938 -0.4513 -0.0805 -0.4696
 1685TIP3    H126546   2.542   5.258  12.013  0.6339 -0.6864 -1.4241
 1685TIP3    H226547   2.472   5.385  11.969  0.4618 -0.1261  0.4435
 1686TIP3   OH226548   2.688   5.286  14.866 -0.3349  0.3839 -0.6817
 1686TIP3    H126549   2.649   5.215  14.815 -1.8410 -0.2299  1.2459
 1686TIP3    H226550   2.633   5.292  14.944 -0.5536  4.0548 -1.0446
 1687TIP3   OH226551   4.010   1.635  14.650  0.3293 -0.1030  0.1152
 1687TIP3    H126552   4.059   1.692  14.591 -0.4634  0.6320  0.1639
 1687TIP3    H226553   3.981   1.562  14.595  0.1539  0.2513 -0.2647
 1688TIP3   OH226554   2.117   5.635  15.571 -0.2871 -0.0111  0.1713
 1688TIP3    H126555   2.136   5.729  15.570  1.4591 -0.3375  1.4166
 1688TIP3    H226556   2.022   5.630  15.563 -0.1790  1.7553 -3.3629
 1689TIP3   OH226557   0.453   1.669   4.089 -0.2597  0.5454  0.2147
 1689TIP3    H126558   0.543   1.649   4.111 -0.8012 -1.5344  0.6691
 1689TIP3    H226559   0.453   1.679   3.994  0.2867 -0.4581  0.1008
 1690TIP3   OH226560   6.462   1.964   2.477 -0.3257  0.4410 -0.3948
 1690TIP3    H126561   6.496   1.912   2.404 -3.2960 -2.0990 -0.0813
 1690TIP3    H226562   6.411   2.034   2.435 -2.4470 -1.3041 -0.8335
 1691TIP3   OH226563   1.681   1.252  11.437  0.4900  0.2904 -0.0811
 1691TIP3    H126564   1.734   1.321  11.396  0.9880 -0.0148  0.0514
 1691TIP3    H226565   1.727   1.231  11.517 -1.0371  1.6204  1.1869
 1692TIP3   OH226566   0.112   3.434  16.585 -0.0959  0.1249 -0.9269
 1692TIP3    H126567   0.124   3.521  16.547  0.3579  0.6500  0.3914
 1692TIP3    H226568   0.200   3.404  16.607 -0.3052 -0.3867 -0.7579
 1693TIP3   OH226569   1.250   3.990   5.138 -0.4806  0.2131 -0.3074
 1693TIP3    H126570   1.338   4.021   5.119 -0.3840 -0.3854 -0.8323
 1693TIP3    H226571   1.263   3.909   5.186 -0.7399 -0.7667 -1.8499
 1694TIP3   OH226572   5.059   3.386   1.588 -0.5578 -0.1771 -0.3227
 1694TIP3    H126573   5.053   3.357   1.497 -0.4234  0.1509 -0.4387
 1694TIP3    H226574   5.004   3.465   1.592 -1.1761 -0.6160  0.0626
 1695TIP3   OH226575   3.698   3.402   4.042  0.0631  0.4775 -0.7577
 1695TIP3    H126576   3.628   3.463   4.065  0.9582  1.3238 -0.2190
 1695TIP3    H226577   3.766   3.419   4.107 -0.5591 -2.6607  0.7624
 1696TIP3   OH226578   0.298   2.875   5.516 -0.0455  0.1283  0.6205
 1696TIP3    H126579   0.377   2.895   5.466  0.2845 -0.8256  0.7535
 1696TIP3    H226580   0.312   2.785   5.548 -0.2935  0.6653  2.3193
 1697TIP3   OH226581   4.828   4.652  15.263  0.2422  0.0862 -0.2867
 1697TIP3    H126582   4.855   4.579  15.319  1.4688 -0.3088 -1.3570
 1697TIP3    H226583   4.910   4.699  15.245 -0.3022  0.7981 -0.9081
 1698TIP3   OH226584   6.476   3.111  11.944  0.0850 -0.0576 -0.0379
 1698TIP3    H126585   6.455   3.042  12.007  1.4892  0.3646  0.9121
 1698TIP3    H226586   6.477   3.191  11.997 -1.4368  0.6908 -1.1130
 1699TIP3   OH226587   5.809   4.250   3.928 -0.2477  0.0757  0.1270
 1699TIP3    H126588   5.842   4.229   4.015 -0.3892 -0.0473  0.1516
 1699TIP3    H226589   5.871   4.315   3.893 -0.0679 -0.0403  0.2321
 1700TIP3   OH226590   4.540   5.861   4.394  0.1116  0.3955  0.0232
 1700TIP3    H126591   4.530   5.851   4.299  0.9948  1.2228 -0.1672
 1700TIP3    H226592   4.467   5.812   4.431 -0.4630  0.3897 -1.0960
 1701TIP3   OH226593   1.064   6.415   4.051  0.0522  0.1032 -0.8384
 1701TIP3    H126594   1.038   6.453   4.135 -0.5837  0.2179 -1.0880
 1701TIP3    H226595   0.996   6.351   4.031  0.9064 -0.8916 -0.6244
 1702TIP3   OH226596   6.228   6.617   1.351  0.6683 -0.4040 -0.0777
 1702TIP3    H126597   6.185   6.692   1.393  1.5166 -0.8473  1.6373
 1702TIP3    H226598   6.229   6.639   1.258 -1.1447  0.6692  0.1308
 1703TIP3   OH226599   3.542   6.043  11.882  0.2009  0.0631  0.3032
 1703TIP3    H126600   3.544   5.974  11.816  1.8203  0.1347  0.2574
 1703TIP3    H226601   3.584   6.118  11.840  0.2029  0.4703  1.0171
 1704TIP3   OH226602   0.911   1.048   4.709 -0.9069 -0.4060  0.6685
 1704TIP3    H126603   0.954   1.019   4.628  1.1742 -1.3503  2.0718
 1704TIP3    H226604   0.862   1.126   4.683  3.0074  1.7319 -0.6853
 1705TIP3   OH226605   3.708   6.512   5.686 -0.0727  0.0424 -0.1233
 1705TIP3    H126606   3.699   6.471   5.772 -1.3392 -0.7221 -0.6096
 1705TIP3    H226607   3.785   6.568   5.695 -1.4212  1.6253  2.1642
 1706TIP3   OH226608   1.457   5.230  13.137  0.4702  0.4102  0.5510
 1706TIP3    H126609   1.528   5.178  13.175  1.4479  2.5343  1.7259
 1706TIP3    H226610   1.464   5.315  13.181 -3.1543  0.4936  1.0454
 1707TIP3   OH226611   4.731   5.458  10.836 -0.0879 -0.4329  0.3283
 1707TIP3    H126612   4.648   5.502  10.850  0.0471  0.1853 -0.7367
 1707TIP3    H226613   4.730   5.434  10.743  2.0781  2.0398 -0.4072
 1708TIP3   OH226614   6.426   2.693   2.267  0.4011  0.0831  0.7328
 1708TIP3    H126615   6.374   2.683   2.187  0.8534  1.7098  0.2279
 1708TIP3    H226616   6.419   2.608   2.310  1.1303 -1.2569 -1.6396
 1709TIP3   OH226617   5.918   5.994   1.030  0.2465 -0.4949 -0.1428
 1709TIP3    H126618   5.967   5.915   1.008  0.6084 -0.5278  0.7919
 1709TIP3    H226619   5.980   6.050   1.075 -0.5528 -0.5144  1.0106
 1710TIP3   OH226620   1.927   0.873   5.791  0.5339 -0.0772 -0.1671
 1710TIP3    H126621   1.996   0.826   5.838  1.9724  0.6620 -1.4910
 1710TIP3    H226622   1.846   0.829   5.816  1.5013 -1.0656  1.2871
 1711TIP3   OH226623   5.793   5.554   4.681 -0.0986 -0.4579 -0.1433
 1711TIP3    H126624   5.707   5.545   4.722 -0.3062  1.5153 -0.1158
 1711TIP3    H226625   5.855   5.531   4.749 -0.5847 -1.4860 -0.0384
 1712TIP3   OH226626   1.900   3.172  14.098  0.4582 -0.1383 -0.2296
 1712TIP3    H126627   1.841   3.121  14.154  0.4947 -0.0580 -0.1182
 1712TIP3    H226628   1.927   3.110  14.030 -0.5006  0.0902 -0.8345
 1713TIP3   OH226629   0.063   5.080   6.123 -0.4329  0.3219 -0.1105
 1713TIP3    H126630   0.069   5.137   6.199 -1.4662 -0.1787  0.3525
 1713TIP3    H226631  -0.028   5.088   6.094 -0.0192  0.6064 -1.3657
 1714TIP3   OH226632   5.204   3.016   4.852 -0.1258 -0.1183 -0.1934
 1714TIP3    H126633   5.267   2.968   4.797 -0.4831  0.5288 -1.1892
 1714TIP3    H226634   5.185   3.095   4.802 -1.4581 -0.1398  0.2651
 1715TIP3   OH226635   5.824   4.024   2.914  0.0371 -0.2174  0.2656
 1715TIP3    H126636   5.744   4.076   2.922  1.1429  1.8099 -1.2079
 1715TIP3    H226637   5.836   3.984   3.000 -1.9631  0.3646  0.8256
 1716TIP3   OH226638   1.289   5.028  15.936 -0.2925 -0.0235 -0.1293
 1716TIP3    H126639   1.206   5.011  15.891 -1.1503  1.0090  1.0193
 1716TIP3    H226640   1.282   4.981  16.019 -0.0090  0.5947  0.2528
 1717TIP3   OH226641   2.815   6.429   6.546 -0.2376  0.3112 -0.1670
 1717TIP3    H126642   2.740   6.402   6.600 -0.5517  1.7084  0.1136
 1717TIP3    H226643   2.823   6.360   6.480  0.5019 -1.7179  1.9974
 1718TIP3   OH226644   0.853   1.233   5.577  0.1085  0.2732 -0.1171
 1718TIP3    H126645   0.824   1.170   5.510  0.4009 -0.3521  0.3392
 1718TIP3    H226646   0.933   1.195   5.612 -0.9211 -0.2367  1.7455
 1719TIP3   OH226647   1.143   4.965  16.891 -0.0082  0.5902 -0.8807
 1719TIP3    H126648   1.068   4.974  16.950  2.1080  1.7335  1.7765
 1719TIP3    H226649   1.127   5.027  16.821 -1.4095  1.0330 -0.1744
 1720TIP3   OH226650   6.279   2.937  11.579  0.5271  0.3109  0.0837
 1720TIP3    H126651   6.214   2.938  11.649  0.7704 -0.9821  0.3311
 1720TIP3    H226652   6.279   3.027  11.545  0.4101  0.9362  1.7201
 1721TIP3   OH226653   0.043   6.386   5.839 -0.2145 -0.4028  0.4490
 1721TIP3    H126654   0.030   6.381   5.934 -0.3942 -0.2533  0.4322
 1721TIP3    H226655   0.090   6.468   5.825 -0.3703 -0.3237  0.3889
 1722TIP3   OH226656   5.272   2.122   5.469 -0.3934  0.0897 -0.2085
 1722TIP3    H126657   5.327   2.065   5.416  0.7623  1.0376 -0.0449
 1722TIP3    H226658   5.190   2.129   5.421 -0.8197 -2.2799  0.1112
 1723TIP3   OH226659   3.370   4.965   0.069 -0.1459 -0.1795 -0.3806
 1723TIP3    H126660   3.453   4.945   0.025  0.4695 -1.3771  1.2940
 1723TIP3    H226661   3.396   5.014   0.147 -0.7641 -2.9087  1.6041
 1724TIP3   OH226662   4.923   2.079  13.178 -0.0435  0.0277 -0.0334
 1724TIP3    H126663   4.975   2.090  13.099  0.0862 -0.2950  0.0079
 1724TIP3    H226664   4.859   2.012  13.156 -1.7009  1.7856 -0.7226
 1725TIP3   OH226665   5.402   2.251  12.722  0.3056 -0.5813 -0.0360
 1725TIP3    H126666   5.441   2.183  12.777 -0.5789 -3.0997 -2.3748
 1725TIP3    H226667   5.372   2.204  12.644 -1.0346  2.4036 -1.4043
 1726TIP3   OH226668   2.533   1.069   2.269 -0.2680  0.7192  0.1309
 1726TIP3    H126669   2.590   1.146   2.267  0.9946 -0.2233 -0.4233
 1726TIP3    H226670   2.506   1.062   2.361 -1.1918  2.3938  0.0100
 1727TIP3   OH226671   5.881   2.599   5.282  0.2027  0.6915  0.2407
 1727TIP3    H126672   5.918   2.642   5.360 -1.5676  1.1928  0.8189
 1727TIP3    H226673   5.817   2.538   5.317 -0.0703  0.3697 -0.8080
 1728TIP3   OH226674   1.459   4.010  15.497 -0.1074  0.0307  0.2259
 1728TIP3    H126675   1.410   4.091  15.508 -0.5612 -0.0264 -1.2685
 1728TIP3    H226676   1.460   3.970  15.584 -0.5247  1.2724  0.8004
 1729TIP3   OH226677   1.874   2.042   6.672 -0.4579 -0.1498 -0.2037
 1729TIP3    H126678   1.876   1.948   6.653 -0.2477 -0.0462 -0.6944
 1729TIP3    H226679   1.957   2.059   6.716  0.7007  0.2963 -2.4586
 1730TIP3   OH226680   3.653   3.908  15.265 -0.2720  0.3333 -0.5163
 1730TIP3    H126681   3.669   3.899  15.171  0.2750 -0.8310 -0.3313
 1730TIP3    H226682   3.564   3.941  15.272 -0.3191  0.4127 -1.4445
 1731TIP3   OH226683   1.519   4.122  16.217  0.4106  0.0353 -0.0760
 1731TIP3    H126684   1.504   4.067  16.293  2.0197 -0.9235 -0.4118
 1731TIP3    H226685   1.447   4.102  16.158  0.9590 -1.7222 -0.1810
 1732TIP3   OH226686   0.299   2.595  14.462 -0.0978 -0.1456  0.0501
 1732TIP3    H126687   0.225   2.539  14.441 -0.2064  0.0675 -0.1364
 1732TIP3    H226688   0.304   2.595  14.558 -1.9503  1.9376  0.1862
 1733TIP3   OH226689   3.392   4.430  16.065  0.2413 -0.0626 -0.3946
 1733TIP3    H126690   3.371   4.362  16.001 -0.3966  0.0862 -0.3424
 1733TIP3    H226691   3.411   4.382  16.146  0.3221 -0.2146 -0.5047
 1734TIP3   OH226692   5.388   5.736   3.037  0.0904 -0.3401 -0.3119
 1734TIP3    H126693   5.301   5.707   3.065 -0.4970  0.3763 -1.4097
 1734TIP3    H226694   5.428   5.657   2.999  1.3111 -1.6495  3.3695
 1735TIP3   OH226695   3.941   4.284  16.391 -0.3084  0.3350  0.3018
 1735TIP3    H126696   3.963   4.331  16.471 -1.5765  1.1695  0.1649
 1735TIP3    H226697   3.881   4.342  16.344 -1.1481 -1.0013 -0.3158
 1736TIP3   OH226698   2.655   2.230   3.321 -0.7005 -0.6906 -0.1194
 1736TIP3    H126699   2.629   2.254   3.232  0.2854  0.2848 -0.1463
 1736TIP3    H226700   2.731   2.174   3.309 -0.5282 -0.5045  0.1198
 1737TIP3   OH226701   4.829   3.946   1.466  0.3088 -0.1490 -0.8878
 1737TIP3    H126702   4.744   3.991   1.465  1.1099  1.4033 -0.8641
 1737TIP3    H226703   4.879   3.991   1.534  0.4175 -2.4990  0.6436
 1738TIP3   OH226704   5.571   5.694   0.538 -0.4490 -0.4718 -0.2622
 1738TIP3    H126705   5.614   5.776   0.562 -0.4252 -0.3053 -0.8724
 1738TIP3    H226706   5.483   5.720   0.510 -0.3866 -0.6376 -0.6130
 1739TIP3   OH226707   2.758   2.399   5.838  0.2843  0.2803  0.6238
 1739TIP3    H126708   2.720   2.315   5.866  0.2139  0.5302  1.2885
 1739TIP3    H226709   2.825   2.418   5.904 -0.1556  1.0741  0.8546
 1740TIP3   OH226710   3.197   4.742   0.202 -0.7142  0.2979  0.5125
 1740TIP3    H126711   3.224   4.790   0.123  0.4601 -0.8663  0.1912
 1740TIP3    H226712   3.255   4.776   0.270 -1.5066  1.0612  0.8200
 1741TIP3   OH226713   6.418   6.483   3.952  0.5710 -0.0467 -0.4051
 1741TIP3    H126714   6.431   6.389   3.963 -0.4271 -0.0480  0.8477
 1741TIP3    H226715   6.482   6.523   4.010 -2.9191 -0.0349  3.6634
 1742TIP3   OH226716   6.299   1.595  14.454  0.1436 -0.3730 -0.2653
 1742TIP3    H126717   6.313   1.587  14.360 -0.4479 -0.5487 -0.3425
 1742TIP3    H226718   6.385   1.620  14.489  0.6731 -1.5070 -0.7117
 1743TIP3   OH226719   2.640   5.628  14.422  0.4678 -0.4790  0.3501
 1743TIP3    H126720   2.605   5.589  14.502  0.6822  0.5725  0.9651
 1743TIP3    H226721   2.570   5.619  14.358 -0.2223 -0.0971  1.0440
 1744TIP3   OH226722   1.268   0.909   0.820 -0.5331  0.0296  0.1004
 1744TIP3    H126723   1.236   0.968   0.752  0.7293  0.0216 -0.5141
 1744TIP3    H226724   1.225   0.825   0.801 -1.5370  0.4719  0.3691
 1745TIP3   OH226725   0.157   1.226  11.910  0.1768 -0.2610  0.7712
 1745TIP3    H126726   0.142   1.316  11.882 -0.8503 -0.7257 -0.2004
 1745TIP3    H226727   0.106   1.217  11.990  1.3099  0.3914  1.5845
 1746TIP3   OH226728   4.144   1.136  14.256  0.4608 -0.2722 -0.1752
 1746TIP3    H126729   4.152   1.222  14.214 -0.1639 -0.0331  0.1784
 1746TIP3    H226730   4.182   1.149  14.343  0.1093 -0.2704 -0.0190
 1747TIP3   OH226731   2.840   4.817  12.793  0.1398  0.1071  0.3212
 1747TIP3    H126732   2.823   4.870  12.715  0.5021  0.9719  0.8171
 1747TIP3    H226733   2.765   4.759  12.801  0.9758 -1.3010 -1.7498
 1748TIP3   OH226734   2.797   2.603   0.962 -0.2513 -0.4048  0.3597
 1748TIP3    H126735   2.729   2.538   0.980 -0.9018  0.1531 -0.0219
 1748TIP3    H226736   2.751   2.673   0.916  0.5557  0.0615  0.2492
 1749TIP3   OH226737   5.174   2.221  14.356 -0.0521 -1.0171 -0.0754
 1749TIP3    H126738   5.190   2.141  14.407 -2.6109 -0.9095  0.9335
 1749TIP3    H226739   5.101   2.264  14.400 -0.1968  0.7457 -1.9604
 1750TIP3   OH226740   2.414   4.761   3.704 -0.3313  0.0818 -0.0433
 1750TIP3    H126741   2.423   4.669   3.680  0.1303 -0.5014  2.2822
 1750TIP3    H226742   2.336   4.764   3.760 -0.2712  1.0848  0.0040
 1751TIP3   OH226743   5.538   3.279  11.977  0.2447 -0.9092  0.0736
 1751TIP3    H126744   5.586   3.214  11.925  0.3562 -0.8012  0.0420
 1751TIP3    H226745   5.569   3.363  11.945  0.4513 -0.8448  0.4512
 1752TIP3   OH226746   3.877   3.393  13.116 -0.1211 -0.0897  0.7705
 1752TIP3    H126747   3.957   3.342  13.125  0.0175  0.0264  0.1986
 1752TIP3    H226748   3.905   3.484  13.122 -0.2200 -0.0487  0.5956
 1753TIP3   OH226749   4.609   6.649   1.410  0.4126  0.0610 -0.3460
 1753TIP3    H126750   4.536   6.646   1.348 -1.6586 -2.6110  2.0712
 1753TIP3    H226751   4.665   6.576   1.385  1.9946  1.7474 -1.8279
 1754TIP3   OH226752   4.557   3.306   3.479 -0.1923  0.5916  0.3957
 1754TIP3    H126753   4.511   3.365   3.420 -0.2536  0.9160  0.7669
 1754TIP3    H226754   4.616   3.363   3.529 -1.0855  0.4964  1.5600
 1755TIP3   OH226755   4.095   5.669   1.049  0.1541 -0.0959  0.1510
 1755TIP3    H126756   4.105   5.706   1.137  2.1550  1.0184 -0.5238
 1755TIP3    H226757   4.185   5.652   1.020 -0.5344 -1.2861 -1.3452
 1756TIP3   OH226758   1.284   1.774  13.278 -0.2455  0.5793 -0.0093
 1756TIP3    H126759   1.198   1.760  13.238  0.4913  2.0665 -2.1769
 1756TIP3    H226760   1.311   1.860  13.247  2.4302 -0.2603 -0.0708
 1757TIP3   OH226761   0.137   2.008  17.062 -0.1445  0.1248  0.6948
 1757TIP3    H126762   0.225   1.969  17.066 -0.5562 -0.6655  2.5319
 1757TIP3    H226763   0.153   2.102  17.064  0.7184  0.0175 -0.5336
 1758TIP3   OH226764   5.492   3.922   6.073 -0.4065 -0.2847  1.3738
 1758TIP3    H126765   5.538   4.001   6.103 -0.6469  0.4758 -0.1761
 1758TIP3    H226766   5.424   3.955   6.015  0.8107 -1.7264 -0.9654
 1759TIP3   OH226767   0.202   2.569  16.782 -0.1424  0.1632 -0.1849
 1759TIP3    H126768   0.126   2.625  16.766 -0.1252 -0.0395 -0.9669
 1759TIP3    H226769   0.259   2.623  16.838 -1.1620  0.0497  0.9940
 1760TIP3   OH226770   2.056   2.088  15.036  0.4093  0.2776  0.2885
 1760TIP3    H126771   1.980   2.081  15.094 -1.4682  1.6381 -1.9238
 1760TIP3    H226772   2.088   2.178  15.048 -0.0603  0.6023 -0.8562
 1761TIP3   OH226773   4.061   4.986   5.259  0.3322  0.3198 -0.3934
 1761TIP3    H126774   4.154   4.976   5.280  0.5096  0.4456 -1.1139
 1761TIP3    H226775   4.033   5.063   5.309  1.1550  1.6233 -1.8988
 1762TIP3   OH226776   4.275   6.816   3.223 -0.4634 -0.5467  0.2774
 1762TIP3    H126777   4.340   6.816   3.152 -0.9719  1.9861 -0.2560
 1762TIP3    H226778   4.191   6.802   3.180 -0.8540  1.6831  0.2382
 1763TIP3   OH226779   1.309   3.411   0.561  0.6449  0.1928  0.2342
 1763TIP3    H126780   1.397   3.375   0.576 -0.1238 -1.1641  1.5806
 1763TIP3    H226781   1.286   3.383   0.473  2.1250  1.7644 -0.6857
 1764TIP3   OH226782   4.385   1.654   5.036 -0.2913  0.0219 -0.1072
 1764TIP3    H126783   4.390   1.651   5.131 -2.0392 -2.0374 -0.0366
 1764TIP3    H226784   4.430   1.576   5.006 -1.6842 -0.5326 -0.8464
 1765TIP3   OH226785   4.544   5.841   6.146 -0.2724 -0.3429 -0.2550
 1765TIP3    H126786   4.504   5.876   6.066  1.5339 -0.5225 -1.2538
 1765TIP3    H226787   4.484   5.867   6.216 -1.3332  0.7387 -1.5389
 1766TIP3   OH226788   2.764   6.250  14.281  0.0431  0.4320 -0.3674
 1766TIP3    H126789   2.772   6.183  14.349 -0.2358  0.7688 -0.0066
 1766TIP3    H226790   2.809   6.211  14.205 -1.2731 -0.7266 -0.5715
 1767TIP3   OH226791   3.768   4.303  13.713 -0.2002 -0.0240 -0.0822
 1767TIP3    H126792   3.753   4.352  13.633 -1.0045 -0.5931 -0.2833
 1767TIP3    H226793   3.688   4.252  13.726  0.2600 -0.5867  0.6158
 1768TIP3   OH226794   5.527   5.858   1.259 -0.2897  0.1988 -0.2464
 1768TIP3    H126795   5.585   5.793   1.299 -1.1102  0.8425  2.0678
 1768TIP3    H226796   5.550   5.940   1.303 -2.9210  0.4669  0.7017
 1769TIP3   OH226797   5.192   4.084  12.034  0.0985 -0.2903  0.5660
 1769TIP3    H126798   5.269   4.035  12.005  0.8606  1.6851 -0.8276
 1769TIP3    H226799   5.139   4.095  11.954  0.7908  2.6435  0.4637
 1770TIP3   OH226800   1.333   1.987   3.799 -0.3482  0.0352  0.6881
 1770TIP3    H126801   1.262   1.972   3.862  0.2650 -0.4411  1.2675
 1770TIP3    H226802   1.411   1.955   3.843  0.1086 -0.1784 -0.2738
 1771TIP3   OH226803   1.823   1.223  13.800  0.2658  0.3306  0.4133
 1771TIP3    H126804   1.839   1.244  13.708  2.5345 -1.2027  0.4271
 1771TIP3    H226805   1.762   1.150  13.798 -0.8376  1.2364  0.1857
 1772TIP3   OH226806   4.924   2.484   5.137 -0.3353 -0.1611 -0.4647
 1772TIP3    H126807   4.942   2.518   5.050 -1.0385 -0.9745 -0.9379
 1772TIP3    H226808   4.967   2.545   5.197  0.8003 -0.0234 -1.4143
 1773TIP3   OH226809   2.635   1.578  11.600  0.3781  0.2244  0.5481
 1773TIP3    H126810   2.604   1.607  11.686 -0.7586 -2.2206  1.0227
 1773TIP3    H226811   2.560   1.593  11.542 -1.0019 -3.4823  1.2159
 1774TIP3   OH226812   1.440   5.794  14.450 -0.3973 -0.4362  0.2794
 1774TIP3    H126813   1.440   5.885  14.419  0.0844 -0.2774  0.7160
 1774TIP3    H226814   1.376   5.793  14.521  0.3257 -0.1815  0.9532
 1775TIP3   OH226815   5.870   1.910   3.864 -0.2799  0.0933 -0.2982
 1775TIP3    H126816   5.832   1.863   3.790 -2.2035  0.1440  0.6318
 1775TIP3    H226817   5.920   1.844   3.911 -1.0629 -0.4986 -0.2865
 1776TIP3   OH226818   5.609   1.056   3.319  0.0382 -0.1133  0.1973
 1776TIP3    H126819   5.536   1.007   3.284 -0.3620  1.2805 -0.9906
 1776TIP3    H226820   5.570   1.117   3.382  0.2191  0.2884 -0.0699
 1777TIP3   OH226821   4.895   6.766  13.600 -0.1749  0.1088 -0.0708
 1777TIP3    H126822   4.910   6.838  13.538  1.5893  1.5081  1.8853
 1777TIP3    H226823   4.889   6.810  13.686  1.5276 -2.1389  1.2367
 1778TIP3   OH226824   1.759   5.004  14.991 -0.6113  0.1591 -0.2767
 1778TIP3    H126825   1.751   4.914  14.959 -0.2257 -0.9393  2.5544
 1778TIP3    H226826   1.850   5.012  15.019 -0.8792  1.1399  0.3463
 1779TIP3   OH226827   0.546   0.046   4.646 -0.0701 -0.0923 -0.0733
 1779TIP3    H126828   0.535   0.014   4.735  0.9346 -1.2134 -0.3380
 1779TIP3    H226829   0.507   0.134   4.647  0.8309  0.3101  1.7310
 1780TIP3   OH226830   5.270   3.989  11.658  0.1196  0.3067  0.3008
 1780TIP3    H126831   5.226   3.946  11.584  0.7530 -0.6220  0.4530
 1780TIP3    H226832   5.263   4.082  11.639 -0.1110  0.0879 -0.7167
 1781TIP3   OH226833   5.113   3.628   3.492  0.5412  0.7219 -0.0139
 1781TIP3    H126834   5.119   3.560   3.425  0.1958  0.3278  0.3537
 1781TIP3    H226835   5.073   3.584   3.567 -0.4422  1.5295 -0.0486
 1782TIP3   OH226836   0.912   0.931   3.076  0.0385 -0.2118  0.2718
 1782TIP3    H126837   0.942   0.841   3.077 -0.9815 -0.5570  0.2659
 1782TIP3    H226838   0.879   0.945   2.987 -1.7049 -0.4826  0.8632
 1783TIP3   OH226839   2.979   5.672  16.896  0.4666 -0.0912 -0.0819
 1783TIP3    H126840   3.065   5.712  16.891  0.0268  0.8764  0.0119
 1783TIP3    H226841   2.967   5.630  16.811  0.9827 -0.1344 -0.1345
 1784TIP3   OH226842   1.436   5.115   5.982  0.2436  0.3537 -0.0619
 1784TIP3    H126843   1.450   5.056   5.908  1.2095  0.7022 -0.1701
 1784TIP3    H226844   1.437   5.203   5.943 -0.0711  0.4956  0.2496
 1785TIP3   OH226845   1.973   1.479   2.891 -0.2612  0.3987 -0.1379
 1785TIP3    H126846   1.930   1.497   2.975  0.1883  1.0759 -0.0492
 1785TIP3    H226847   1.964   1.561   2.842  1.6610  0.8486  0.1984
 1786TIP3   OH226848   0.101   2.122  15.857  0.0853  0.1763  0.3168
 1786TIP3    H126849   0.159   2.114  15.933  0.6285  0.8776 -0.0167
 1786TIP3    H226850   0.051   2.040  15.856  1.3839 -0.6314  0.3376
 1787TIP3   OH226851   2.786   6.045   3.532  0.3767 -0.0596  0.2163
 1787TIP3    H126852   2.875   6.009   3.537  0.3666  0.0083  0.9572
 1787TIP3    H226853   2.761   6.033   3.441  0.7835 -0.9597  0.2159
 1788TIP3   OH226854   2.825   0.887   2.175  0.4765  0.1095 -0.2894
 1788TIP3    H126855   2.796   0.968   2.216 -1.6035 -0.1547 -1.1953
 1788TIP3    H226856   2.903   0.911   2.126  1.4498  0.9802  1.6364
 1789TIP3   OH226857   3.051   3.924  16.637 -1.0269  0.2420  0.1736
 1789TIP3    H126858   3.081   3.982  16.567 -2.3195  0.1819 -0.4262
 1789TIP3    H226859   3.099   3.842  16.622  2.5795  1.8124  2.3676
 1790TIP3   OH226860   3.567   3.050  15.420 -0.2015 -0.1864  0.4781
 1790TIP3    H126861   3.613   3.003  15.350  2.6182  1.1323  1.3654
 1790TIP3    H226862   3.590   3.001  15.500 -1.6727 -0.4440  0.7550
 1791TIP3   OH226863   2.164   4.822  12.877 -0.0979  0.3817 -0.0327
 1791TIP3    H126864   2.243   4.802  12.927 -0.5832 -2.0882 -0.2051
 1791TIP3    H226865   2.111   4.874  12.937 -0.0364 -1.3063  1.5441
 1792TIP3   OH226866   4.065   3.503  13.793  0.6960 -0.1618 -0.1747
 1792TIP3    H126867   4.110   3.568  13.847 -0.6061 -0.0991  0.8739
 1792TIP3    H226868   3.989   3.550  13.758 -0.1398 -1.0500  0.4235
 1793TIP3   OH226869   0.897   1.301   1.556 -0.4542 -0.8285  0.0542
 1793TIP3    H126870   0.987   1.277   1.580 -0.1739  0.4247  0.3053
 1793TIP3    H226871   0.893   1.283   1.462  0.5817  0.5952 -0.2917
 1794TIP3   OH226872   1.008   5.366   1.984  0.0103  0.4883  0.2585
 1794TIP3    H126873   1.006   5.436   1.920  1.9219 -0.3864 -0.7874
 1794TIP3    H226874   1.057   5.402   2.058 -1.2576  1.1270  0.7959
 1795TIP3   OH226875   3.441   2.126   1.939  0.1281  0.3816  0.2289
 1795TIP3    H126876   3.490   2.202   1.909  1.4990  0.2177  1.9612
 1795TIP3    H226877   3.426   2.074   1.860  0.4348  1.7432 -0.7355
 1796TIP3   OH226878   1.984   6.655  12.009  0.4232  0.2924 -0.3289
 1796TIP3    H126879   1.910   6.716  12.008  0.7026  0.6431 -0.0474
 1796TIP3    H226880   2.009   6.645  11.918  0.6487  0.9374 -0.3381
 1797TIP3   OH226881   2.870   6.679  16.966  0.5881 -0.1258  0.1892
 1797TIP3    H126882   2.870   6.746  16.898  0.4193 -0.2501  0.0671
 1797TIP3    H226883   2.962   6.671  16.992  0.6764 -0.2083 -0.1484
 1798TIP3   OH226884   0.029   1.769  15.072  0.6181 -0.7768 -1.1679
 1798TIP3    H126885   0.099   1.716  15.111  1.3957  0.3552 -1.0203
 1798TIP3    H226886  -0.021   1.801  15.146 -0.8378 -2.6074 -1.3166
 1799TIP3   OH226887   2.929   2.808  16.518 -0.2556  0.3614  0.0941
 1799TIP3    H126888   3.003   2.833  16.572  0.3730 -1.5794  0.1796
 1799TIP3    H226889   2.858   2.789  16.580 -0.4714  1.1166  0.0728
 1800TIP3   OH226890   1.032   0.460   2.173  1.1075 -0.2287 -0.0647
 1800TIP3    H126891   0.975   0.522   2.218  0.5363 -2.3467  2.2412
 1800TIP3    H226892   1.103   0.442   2.235  1.0340 -2.1743 -0.4867
 1801TIP3   OH226893   1.932   2.978   6.697 -0.0471 -0.6845 -0.3565
 1801TIP3    H126894   1.840   2.970   6.675 -0.2039  1.0664 -0.4035
 1801TIP3    H226895   1.954   2.896   6.741 -2.1470 -0.2893  1.5120
 1802TIP3   OH226896   1.514   1.305   5.635 -0.3000 -0.6124 -0.2760
 1802TIP3    H126897   1.600   1.294   5.676 -0.6915 -2.3516  0.1390
 1802TIP3    H226898   1.523   1.383   5.580  0.7746  0.6929  1.7045
 1803TIP3   OH226899   3.410   0.676  13.773  0.1490  0.0568  0.3578
 1803TIP3    H126900   3.401   0.617  13.848 -0.9463  0.1397  0.2927
 1803TIP3    H226901   3.473   0.742  13.803  0.9745 -0.8342  0.6136
 1804TIP3   OH226902   6.493   0.624   0.434 -0.3326 -0.1283  0.0031
 1804TIP3    H126903   6.584   0.598   0.452 -0.8340 -1.5383  0.6271
 1804TIP3    H226904   6.477   0.594   0.344  0.0510  0.7913 -0.3724
 1805TIP3   OH226905   4.200   4.181   0.332  0.3601  0.2725 -0.0437
 1805TIP3    H126906   4.181   4.177   0.238  2.3506  0.2443 -0.4695
 1805TIP3    H226907   4.154   4.258   0.363  1.1569  1.3215 -1.4149
 1806TIP3   OH226908   0.860   4.328   0.396 -0.2773 -0.3859 -0.4174
 1806TIP3    H126909   0.947   4.291   0.405 -0.6740 -0.9038  1.5437
 1806TIP3    H226910   0.853   4.392   0.466 -0.5682  1.5197 -2.1503
 1807TIP3   OH226911   6.034   1.604   0.536 -0.0055  0.2756  0.2193
 1807TIP3    H126912   6.051   1.517   0.572  1.4504  1.0867  1.5502
 1807TIP3    H226913   5.950   1.595   0.490  2.1256 -2.9275 -3.3285
 1808TIP3   OH226914   4.754   4.434   1.551 -0.1993  0.0383 -0.2729
 1808TIP3    H126915   4.825   4.383   1.590  0.3249  0.5558 -0.5359
 1808TIP3    H226916   4.695   4.453   1.623  0.9647  1.3296  0.3422
 1809TIP3   OH226917   0.800   1.268  11.509  0.3712  0.2713 -0.6068
 1809TIP3    H126918   0.719   1.215  11.506 -0.5032  1.5108  0.7014
 1809TIP3    H226919   0.789   1.332  11.439  0.8699 -0.4414 -1.3557
 1810TIP3   OH226920   3.235   5.834   6.513 -0.4398 -0.1799 -0.0939
 1810TIP3    H126921   3.255   5.740   6.503 -2.6827 -0.6656 -0.2793
 1810TIP3    H226922   3.315   5.871   6.548  1.2862 -1.7505 -2.2216
 1811TIP3   OH226923   6.227   3.126  14.410 -0.0514 -0.6786 -0.6004
 1811TIP3    H126924   6.205   3.211  14.449  0.2189 -0.5203 -0.7952
 1811TIP3    H226925   6.276   3.081  14.479 -4.0997 -2.4977  1.2594
 1812TIP3   OH226926   3.672   2.784   1.771  0.4060 -0.6080  0.1473
 1812TIP3    H126927   3.738   2.788   1.702 -0.2071 -0.8567 -0.4661
 1812TIP3    H226928   3.670   2.873   1.807  0.7647 -0.4858 -0.1257
 1813TIP3   OH226929   0.932   4.792   5.840 -0.0477  0.4538 -0.6463
 1813TIP3    H126930   0.927   4.884   5.867 -0.6464  0.1482  0.2652
 1813TIP3    H226931   1.022   4.783   5.807  0.1762  1.2356 -0.2769
 1814TIP3   OH226932   4.725   3.427  13.399  0.0416 -0.2640 -0.3331
 1814TIP3    H126933   4.799   3.387  13.353  0.8762  0.9534 -0.0787
 1814TIP3    H226934   4.762   3.459  13.480 -1.1254 -1.0834  0.5474
 1815TIP3   OH226935   5.601   4.134   6.419  0.3823 -0.1228 -0.2469
 1815TIP3    H126936   5.512   4.167   6.407 -0.5515 -2.2469  0.5471
 1815TIP3    H226937   5.647   4.204   6.466 -0.0678  2.1187 -3.0050
 1816TIP3   OH226938   5.548   6.422  16.055  0.1214 -0.4954  0.1243
 1816TIP3    H126939   5.599   6.495  16.089 -0.1147 -0.3943  0.2588
 1816TIP3    H226940   5.606   6.347  16.062  0.5974 -0.2086 -0.5963
 1817TIP3   OH226941   0.928   5.296  14.033  0.0787 -0.0726  0.1233
 1817TIP3    H126942   0.999   5.347  14.073  0.5285 -0.5655 -0.0385
 1817TIP3    H226943   0.865   5.362  14.003  0.6749  0.3909 -0.1231
 1818TIP3   OH226944   0.295   4.268  15.230 -0.3443  0.1642  0.4834
 1818TIP3    H126945   0.350   4.292  15.156 -1.4918 -0.4508 -0.5968
 1818TIP3    H226946   0.283   4.173  15.221 -0.1414  0.0182  1.7040
 1819TIP3   OH226947   6.189   5.672  13.823 -0.1130 -0.9357  0.4215
 1819TIP3    H126948   6.271   5.705  13.786 -1.0148  1.1611  0.2620
 1819TIP3    H226949   6.158   5.609  13.758  1.5620 -2.1080  0.6904
 1820TIP3   OH226950   4.294   0.858   1.843  0.5340  0.4007 -0.0657
 1820TIP3    H126951   4.290   0.866   1.748 -1.6276 -0.4089 -0.0740
 1820TIP3    H226952   4.262   0.942   1.875 -1.2510 -0.2544 -0.0820
 1821TIP3   OH226953   0.600   3.529  16.056 -0.1680 -0.3297 -0.0144
 1821TIP3    H126954   0.510   3.526  16.023  0.6481  1.5960 -2.6782
 1821TIP3    H226955   0.628   3.438  16.059 -2.0380 -0.9071  0.3393
 1822TIP3   OH226956   1.413   4.906  14.387  0.0333 -0.3773  0.0058
 1822TIP3    H126957   1.343   4.843  14.402 -1.8872  1.1879 -1.9422
 1822TIP3    H226958   1.436   4.894  14.295  1.0687  0.3479  0.1598
 1823TIP3   OH226959   2.310   2.089   0.899 -0.1843 -0.7477 -0.6429
 1823TIP3    H126960   2.305   2.136   0.816 -0.5328  0.1213 -0.1428
 1823TIP3    H226961   2.224   2.050   0.910  0.3506 -2.1577 -1.4311
 1824TIP3   OH226962   6.296   2.964   0.140  0.0455 -0.2445  0.0903
 1824TIP3    H126963   6.308   3.056   0.161 -1.7345 -0.1384  0.7244
 1824TIP3    H226964   6.384   2.932   0.121  0.7320  1.4722  0.2994
 1825TIP3   OH226965   0.862   5.759   2.460 -0.3082  0.6017  0.5735
 1825TIP3    H126966   0.937   5.809   2.427 -1.0077  1.7522  0.7196
 1825TIP3    H226967   0.878   5.670   2.428  0.7336  0.9950 -0.0451
 1826TIP3   OH226968   6.434   1.193   0.126  0.6496  0.2358 -0.3412
 1826TIP3    H126969   6.474   1.132   0.187 -2.7765 -1.1190  0.7075
 1826TIP3    H226970   6.411   1.139   0.050 -2.1183  0.1698  0.4660
 1827TIP3   OH226971   4.366   6.375   0.296  0.6358  0.0071 -0.5799
 1827TIP3    H126972   4.325   6.388   0.210  0.2916 -0.7635 -0.5392
 1827TIP3    H226973   4.298   6.332   0.348  0.4717  1.4364  0.4107
 1828TIP3   OH226974   5.069   3.665   0.814  0.3641  0.4337  0.0797
 1828TIP3    H126975   5.052   3.745   0.864 -0.6980 -0.8041  1.7531
 1828TIP3    H226976   4.985   3.643   0.775  0.1158 -1.0335  1.3969
 1829TIP3   OH226977   6.613   3.313  15.910  1.1513 -0.9107 -0.3326
 1829TIP3    H126978   6.700   3.326  15.871  1.4963 -3.6889 -0.6595
 1829TIP3    H226979   6.552   3.321  15.837  1.1555  0.5548 -0.1913
 1830TIP3   OH226980   3.889   5.138   1.686  0.7204 -0.1081  0.0944
 1830TIP3    H126981   3.857   5.048   1.695  0.1747 -0.2093 -2.4257
 1830TIP3    H226982   3.822   5.191   1.729 -0.3248 -0.7324 -0.7060
 1831TIP3   OH226983   5.905   0.234   5.474  0.0479 -0.0726  0.3727
 1831TIP3    H126984   5.859   0.295   5.531  0.1390  0.2325  0.1241
 1831TIP3    H226985   5.860   0.151   5.486  0.9289 -0.3394  1.9214
 1832TIP3   OH226986   1.372   5.468   5.535  0.3324  0.1064 -0.2450
 1832TIP3    H126987   1.293   5.445   5.584  1.6647 -1.9208  1.0166
 1832TIP3    H226988   1.370   5.412   5.457  1.4282 -1.3000  0.7112
 1833TIP3   OH226989   6.816   1.901   2.988 -0.2431 -0.0779 -0.1377
 1833TIP3    H126990   6.874   1.910   3.064 -0.1817 -1.0118 -0.0720
 1833TIP3    H226991   6.849   1.966   2.926  0.2541  0.0908  0.2919
 1834TIP3   OH226992   1.555   3.414  11.637  0.2424  0.3913 -0.1072
 1834TIP3    H126993   1.527   3.432  11.547 -1.8536  0.3135  0.5026
 1834TIP3    H226994   1.477   3.429  11.690  1.5033  0.6259  1.7354
 1835TIP3   OH226995   6.599   0.806  11.499  0.0642 -0.7828 -0.0260
 1835TIP3    H126996   6.573   0.877  11.440 -0.0824 -0.4057  0.4871
 1835TIP3    H226997   6.684   0.778  11.466 -1.0019 -2.0820 -1.7758
 1836TIP3   OH226998   5.090   0.314  12.566  0.2760 -0.4083  0.0428
 1836TIP3    H126999   5.097   0.291  12.658 -0.3275 -1.9474 -0.2695
 1836TIP3    H227000   5.044   0.240  12.526 -0.2947  0.6457 -1.3277
 1837TIP3   OH227001   3.045   5.723  13.560  0.2805 -0.3651  0.0755
 1837TIP3    H127002   3.002   5.791  13.613  0.4024 -0.5184  0.3636
 1837TIP3    H227003   3.007   5.641  13.590  1.9044 -0.6503  1.4130
 1838TIP3   OH227004   0.590   2.947  14.388  0.5035  0.0487 -0.1892
 1838TIP3    H127005   0.564   2.910  14.303 -0.0504  0.1714 -0.0734
 1838TIP3    H227006   0.644   2.879  14.428  0.8816  0.0456 -0.7027
 1839TIP3   OH227007   1.479   2.774  16.322 -0.9952 -0.1313 -0.7472
 1839TIP3    H127008   1.391   2.777  16.284 -1.4056  2.6939  0.3248
 1839TIP3    H227009   1.536   2.752  16.248 -2.2120  1.4795 -2.2203
 1840TIP3   OH227010   1.795   3.776   4.236 -0.6145 -0.0317 -0.0980
 1840TIP3    H127011   1.884   3.807   4.218 -1.2611  1.6306 -0.5276
 1840TIP3    H227012   1.789   3.774   4.331 -0.4664  0.8659 -0.0730
 1841TIP3   OH227013   4.991   5.493   3.226  0.0028  0.1550  0.3582
 1841TIP3    H127014   4.930   5.539   3.284  0.2035  0.8917 -0.0078
 1841TIP3    H227015   5.039   5.434   3.284 -0.3800  0.2785  0.8069
 1842TIP3   OH227016   1.778   3.688  15.023 -0.5936  0.3977 -0.2469
 1842TIP3    H127017   1.739   3.774  15.039  1.2531  0.8637  1.9999
 1842TIP3    H227018   1.867   3.708  14.994  0.6957 -0.7615  2.7512
 1843TIP3   OH227019   6.499   4.451   6.511 -0.7580 -0.7214  0.3264
 1843TIP3    H127020   6.537   4.420   6.429  0.7396 -1.2505  1.1924
 1843TIP3    H227021   6.494   4.546   6.501 -1.6173 -0.8758 -0.7935
 1844TIP3   OH227022   5.910   4.630  11.572 -0.5179 -0.4061 -0.2864
 1844TIP3    H127023   5.870   4.566  11.630  0.5814 -1.2852 -0.4900
 1844TIP3    H227024   5.960   4.687  11.631  0.0537 -0.8906 -0.3057
 1845TIP3   OH227025   3.859   1.302  15.265  0.0902 -0.0854 -0.1065
 1845TIP3    H127026   3.821   1.333  15.347  2.2064  0.3127  0.7744
 1845TIP3    H227027   3.843   1.208  15.264 -0.7083  0.0490  0.3495
 1846TIP3   OH227028   1.844   4.396   3.440  0.0782  0.4011  0.1374
 1846TIP3    H127029   1.801   4.322   3.397  0.1503  0.6002 -0.2868
 1846TIP3    H227030   1.807   4.398   3.528 -0.5266  0.3647 -0.1159
 1847TIP3   OH227031   6.453   0.405   5.126 -0.3131  0.1833  0.1409
 1847TIP3    H127032   6.495   0.466   5.187 -0.3794 -1.1145  1.5119
 1847TIP3    H227033   6.371   0.382   5.169 -0.3765 -0.7249 -0.4581
 1848TIP3   OH227034   4.113   0.154  13.993 -0.7062 -0.2841  0.2319
 1848TIP3    H127035   4.141   0.236  14.032 -1.1037  0.1979 -0.4865
 1848TIP3    H227036   4.048   0.119  14.054  1.5774 -1.5250  2.0265
 1849TIP3   OH227037   3.583   6.579  16.655  0.4087  0.0869 -0.3058
 1849TIP3    H127038   3.637   6.508  16.622 -1.1152 -0.5995 -1.4256
 1849TIP3    H227039   3.526   6.602  16.582 -1.7735 -0.1865  1.2533
 1850TIP3   OH227040   0.007   4.582   6.394 -0.3873 -0.1297 -0.4042
 1850TIP3    H127041  -0.077   4.588   6.347 -1.0696 -0.2910  0.7754
 1850TIP3    H227042   0.046   4.669   6.383 -1.9807  0.8574  1.3534
 1851TIP3   OH227043   1.648   3.195   4.595 -0.2792 -0.4286 -0.6324
 1851TIP3    H127044   1.718   3.244   4.639 -0.2295  0.0736 -1.2564
 1851TIP3    H227045   1.570   3.250   4.605 -0.8469 -1.5081  1.0261
 1852TIP3   OH227046   2.850   0.926   3.874  0.6776  0.4347  0.6267
 1852TIP3    H127047   2.893   0.925   3.788 -0.3234  2.4100  0.0743
 1852TIP3    H227048   2.901   0.864   3.927  2.5784  0.7485 -0.7777
 1853TIP3   OH227049   0.961   6.119   5.346  0.2762  0.5087  0.6876
 1853TIP3    H127050   0.936   6.148   5.434 -1.4876  1.6569 -0.1744
 1853TIP3    H227051   1.002   6.195   5.306 -1.7273  0.9768 -0.5553
 1854TIP3   OH227052   2.128   0.340  14.496 -0.1259 -0.0692 -0.4627
 1854TIP3    H127053   2.204   0.283  14.508 -0.7713 -0.6660  0.9164
 1854TIP3    H227054   2.149   0.393  14.419  2.2203  0.6583  0.6533
 1855TIP3   OH227055   1.612   5.440   5.664 -1.2155  0.4515  0.3813
 1855TIP3    H127056   1.594   5.519   5.714 -0.6285  1.3808 -0.8333
 1855TIP3    H227057   1.533   5.426   5.612 -1.9395 -0.6795  1.7565
 1856TIP3   OH227058   6.624   2.599  16.800  0.0089  0.6150 -0.4310
 1856TIP3    H127059   6.535   2.564  16.804  0.3372 -0.1068  0.7088
 1856TIP3    H227060   6.659   2.563  16.718 -1.0239  1.5971 -1.3179
 1857TIP3   OH227061   3.530   3.286  12.558 -0.2575  0.3438 -0.4115
 1857TIP3    H127062   3.589   3.330  12.496 -0.5068 -0.1383 -0.9909
 1857TIP3    H227063   3.449   3.273  12.509 -0.5880  0.3090  0.1422
 1858TIP3   OH227064   4.473   0.062   2.974  0.0551 -0.1728  0.0563
 1858TIP3    H127065   4.530   0.123   3.021 -0.5727  1.1457 -0.8279
 1858TIP3    H227066   4.388   0.108   2.970 -1.1641 -2.2247  1.6386
 1859TIP3   OH227067   5.661   1.885   1.378  0.6007 -0.5198  0.5345
 1859TIP3    H127068   5.579   1.866   1.333  0.6145  0.5499  0.0400
 1859TIP3    H227069   5.635   1.906   1.467  0.2044  1.0171  0.0727
 1860TIP3   OH227070   6.148   5.381  14.189  0.0532  0.0394 -0.2461
 1860TIP3    H127071   6.080   5.433  14.232  0.4458  0.0694  0.3429
 1860TIP3    H227072   6.230   5.424  14.212  0.3579 -0.6427 -0.0366
 1861TIP3   OH227073   3.817   6.580  12.187 -0.3707 -0.4166 -0.4293
 1861TIP3    H127074   3.793   6.579  12.094 -0.0038  0.8547 -0.5427
 1861TIP3    H227075   3.899   6.531  12.191 -1.7483 -2.7980 -0.3694
 1862TIP3   OH227076   0.978   4.672   0.840 -0.2133  0.3077 -0.6452
 1862TIP3    H127077   1.024   4.637   0.916 -0.7817 -1.6085 -1.1516
 1862TIP3    H227078   0.886   4.679   0.868 -0.2668  0.4884 -0.8599
 1863TIP3   OH227079   2.640   2.688  12.433 -0.3485  0.6900  0.1024
 1863TIP3    H127080   2.686   2.640  12.365 -1.2719 -0.1423  0.0627
 1863TIP3    H227081   2.708   2.714  12.495  0.0917 -1.0204  0.3391
 1864TIP3   OH227082   1.620   6.696  13.570 -0.9733  0.4900  0.2948
 1864TIP3    H127083   1.674   6.653  13.503 -1.0198 -0.5021  0.8853
 1864TIP3    H227084   1.616   6.633  13.641 -0.0716  1.9301  1.6752
 1865TIP3   OH227085   5.914   5.364  13.326 -0.8478  0.1001  0.5220
 1865TIP3    H127086   5.984   5.359  13.261 -0.1895 -0.9862  1.2894
 1865TIP3    H227087   5.901   5.458  13.340  1.1622  0.3236  1.0928
 1866TIP3   OH227088   0.359   4.741  12.109 -0.4208 -0.0838 -0.2762
 1866TIP3    H127089   0.280   4.789  12.085  0.3202  1.7499  0.8860
 1866TIP3    H227090   0.373   4.681  12.035 -2.9486 -0.5421 -0.4336
 1867TIP3   OH227091   0.855   3.844  14.909  0.6375 -0.1311 -0.3994
 1867TIP3    H127092   0.844   3.751  14.933 -0.3813  0.0888  0.0313
 1867TIP3    H227093   0.907   3.881  14.980 -0.1769 -0.0561  0.1589
 1868TIP3   OH227094   5.058   3.549   1.275  0.3802 -0.0613  0.3632
 1868TIP3    H127095   5.035   3.459   1.295 -0.2727 -0.3038 -1.3428
 1868TIP3    H227096   5.039   3.598   1.355  0.6621 -1.4227  1.2624
 1869TIP3   OH227097   2.091   5.635  11.246 -0.4745 -0.1836 -0.4113
 1869TIP3    H127098   2.053   5.597  11.324 -1.1316  1.4076  0.0637
 1869TIP3    H227099   2.017   5.674  11.199  0.0142 -0.4885 -1.4524
 1870TIP3   OH227100   4.873   6.552  13.320  0.3252  0.3610 -0.4488
 1870TIP3    H127101   4.853   6.575  13.411 -0.6513  0.7799 -0.7554
 1870TIP3    H227102   4.884   6.636  13.276  0.7206  0.1596 -0.7318
 1871TIP3   OH227103   1.370   2.415  12.083  0.4376  0.1386 -0.3975
 1871TIP3    H127104   1.441   2.456  12.132 -0.6899  0.1134  1.2948
 1871TIP3    H227105   1.381   2.321  12.098  1.2418 -0.0145 -1.8239
 1872TIP3   OH227106   5.108   5.235  15.524  0.5246  0.1814 -0.4161
 1872TIP3    H127107   5.132   5.290  15.449 -0.0524  0.8600 -0.1023
 1872TIP3    H227108   5.190   5.195  15.552  0.6726 -0.4661 -1.7233
 1873TIP3   OH227109   5.434   0.390  15.927 -0.1910 -0.1936 -0.3472
 1873TIP3    H127110   5.475   0.447  15.992  1.0234  0.4641 -1.6773
 1873TIP3    H227111   5.465   0.302  15.950  0.6745  0.1032 -0.3512
 1874TIP3   OH227112   2.371   4.022   1.081 -0.2796  0.5000  0.8313
 1874TIP3    H127113   2.346   4.080   1.009 -2.0798 -0.8735  0.3182
 1874TIP3    H227114   2.379   3.936   1.040 -0.3545 -0.1143  2.0975
 1875TIP3   OH227115   5.855   2.406  14.271  0.7655  0.4366 -0.4870
 1875TIP3    H127116   5.797   2.354  14.326  0.0163  1.5676 -0.1822
 1875TIP3    H227117   5.943   2.376  14.293  0.3252 -0.9765 -0.6219
 1876TIP3   OH227118   2.247   3.044   1.657 -0.4729  0.5820 -0.7028
 1876TIP3    H127119   2.332   3.001   1.648  0.1947  1.6223  0.4637
 1876TIP3    H227120   2.267   3.137   1.664 -1.5235  0.6572  1.8306
 1877TIP3   OH227121   5.794   3.322   1.973 -0.3567  0.4250  0.1332
 1877TIP3    H127122   5.860   3.275   2.024  0.4031  1.3019 -0.0193
 1877TIP3    H227123   5.727   3.346   2.036 -0.4270 -0.3009  0.3314
 1878TIP3   OH227124   1.649   3.692  11.698  0.7155  0.1216 -0.4253
 1878TIP3    H127125   1.565   3.722  11.663  0.8819  0.1884 -0.7760
 1878TIP3    H227126   1.677   3.763  11.755 -0.3651 -0.7278  1.1890
 1879TIP3   OH227127   0.371   5.964   0.191 -0.0394 -0.4564 -0.2711
 1879TIP3    H127128   0.434   6.027   0.156 -0.3233  1.2044  2.1391
 1879TIP3    H227129   0.425   5.899   0.236 -0.0349  1.1413  2.0702
 1880TIP3   OH227130   6.634   0.717   2.394 -0.0509  0.2206  0.5103
 1880TIP3    H127131   6.556   0.664   2.411  0.5150 -0.7783  0.0377
 1880TIP3    H227132   6.707   0.657   2.409  0.6329  1.2129  1.1588
 1881TIP3   OH227133   5.679   1.227  16.881  0.6788  0.1958 -0.5571
 1881TIP3    H127134   5.682   1.136  16.851 -0.4030  0.0704 -0.2848
 1881TIP3    H227135   5.589   1.255  16.865  0.3906  0.4921  1.4696
 1882TIP3   OH227136   6.196   5.404   0.023 -0.1288  0.0366  0.4855
 1882TIP3    H127137   6.152   5.457  -0.043 -2.2195 -0.4087  1.4735
 1882TIP3    H227138   6.196   5.458   0.102 -0.9340 -0.8195  1.0956
 1883TIP3   OH227139   1.429   6.205   1.552 -0.7782  0.4858 -0.0120
 1883TIP3    H127140   1.479   6.284   1.573 -0.1268  0.3553 -1.0628
 1883TIP3    H227141   1.338   6.228   1.573 -0.5278  1.3440  0.1558
 1884TIP3   OH227142   3.898   5.933  12.555 -0.2368  0.3659  0.1380
 1884TIP3    H127143   3.964   5.942  12.485  1.7553 -1.0491  1.7808
 1884TIP3    H227144   3.902   5.841  12.580 -1.2382  0.7621  1.8363
 1885TIP3   OH227145   0.439   4.067  13.971 -0.3987 -0.4029  0.2078
 1885TIP3    H127146   0.525   4.081  13.933 -0.6760  0.0350 -0.2709
 1885TIP3    H227147   0.378   4.102  13.907 -0.8864  0.2058  0.9884
 1886TIP3   OH227148   4.699   5.000  14.650 -0.1435 -0.3566  0.0352
 1886TIP3    H127149   4.694   5.058  14.574 -0.9629 -0.2879  0.1388
 1886TIP3    H227150   4.611   4.964  14.659  0.3316 -1.5849  0.0052
 1887TIP3   OH227151   3.152   4.470  11.197  0.0765 -0.1409 -0.6261
 1887TIP3    H127152   3.076   4.521  11.225  1.1413  0.6028  0.9871
 1887TIP3    H227153   3.157   4.485  11.103 -1.8408 -0.3145 -0.7868
 1888TIP3   OH227154   4.183   5.626  15.060 -0.2313 -0.0935  0.3089
 1888TIP3    H127155   4.181   5.542  15.014  0.7169 -0.4790  0.9538
 1888TIP3    H227156   4.243   5.680  15.009  0.5683 -0.4146  0.8972
 1889TIP3   OH227157   1.549   0.967   3.637 -0.4806 -0.7506  0.4229
 1889TIP3    H127158   1.462   0.988   3.671 -0.3428 -0.0160  0.3292
 1889TIP3    H227159   1.593   1.052   3.629  0.7904 -1.2480  1.9435
 1890TIP3   OH227160   3.648   1.010  11.426  0.2951 -0.0785  0.2739
 1890TIP3    H127161   3.566   1.055  11.406  0.9199  2.4890  3.0898
 1890TIP3    H227162   3.714   1.055  11.373  0.3823  0.0861  0.5192
 1891TIP3   OH227163   5.315   2.707   1.118 -0.0502 -0.7959 -0.8009
 1891TIP3    H127164   5.348   2.683   1.031 -0.2749 -0.4431 -0.9824
 1891TIP3    H227165   5.220   2.703   1.109 -0.0679 -0.9782 -0.5100
 1892TIP3   OH227166   0.859   5.625  16.107 -0.1191  0.1517  0.2222
 1892TIP3    H127167   0.896   5.594  16.025  0.4623  0.1414  0.4852
 1892TIP3    H227168   0.930   5.676  16.148 -0.3330 -0.0135  0.8068
 1893TIP3   OH227169   5.839   3.534  17.187  0.1977  0.0682  0.0740
 1893TIP3    H127170   5.855   3.440  17.194  3.4806  0.6685  1.1129
 1893TIP3    H227171   5.900   3.574  17.249 -0.7637  2.9378 -0.7535
 1894TIP3   OH227172   3.682   2.352  12.816  0.0976  0.2758  0.0075
 1894TIP3    H127173   3.662   2.333  12.907 -1.6114  0.9353 -0.2184
 1894TIP3    H227174   3.599   2.383  12.779  0.3976 -1.3389 -2.1270
 1895TIP3   OH227175   0.565   0.166  16.400  0.0870 -0.0456  0.3319
 1895TIP3    H127176   0.512   0.193  16.324  1.9440  0.8231 -0.6905
 1895TIP3    H227177   0.622   0.097  16.365  3.2917  2.6480  0.0272
 1896TIP3   OH227178   3.473   4.443  13.545  0.0822 -0.1697 -0.0794
 1896TIP3    H127179   3.385   4.454  13.508  0.9547  0.7346 -1.8996
 1896TIP3    H227180   3.470   4.358  13.588 -1.6493 -0.1984 -0.2217
 1897TIP3   OH227181   0.524   1.413  16.148  0.1452 -0.0563  0.2308
 1897TIP3    H127182   0.607   1.458  16.135 -0.1859  0.5106  0.0419
 1897TIP3    H227183   0.505   1.374  16.063 -1.0214  1.9498 -0.4778
 1898TIP3   OH227184   4.973   3.869   1.242  0.1370 -0.2577 -0.0689
 1898TIP3    H127185   4.906   3.852   1.309  0.1688  0.2589  0.0980
 1898TIP3    H227186   4.971   3.964   1.231  0.8868 -0.2340 -0.0239
 1899TIP3   OH227187   2.797   5.454  12.736 -0.0169 -0.3743 -0.3680
 1899TIP3    H127188   2.888   5.484  12.731  0.0055 -0.4012 -0.0934
 1899TIP3    H227189   2.759   5.504  12.807  0.5945 -2.5189  1.5303
 1900TIP3   OH227190   1.404   4.469   5.261 -0.3011  0.9409  0.2587
 1900TIP3    H127191   1.327   4.472   5.204 -0.6110  1.4381  0.6979
 1900TIP3    H227192   1.370   4.441   5.345  0.2937 -0.5849 -0.0087
 1901TIP3   OH227193   0.205   4.422   1.758 -0.1974 -0.3479 -0.0024
 1901TIP3    H127194   0.268   4.473   1.707  1.0679 -1.8187  0.0596
 1901TIP3    H227195   0.130   4.410   1.699 -0.7815  2.0632  0.1895
 1902TIP3   OH227196   5.117   5.431  13.327 -0.0693 -0.1279 -0.3007
 1902TIP3    H127197   5.144   5.522  13.323  2.9662 -0.9301  0.8716
 1902TIP3    H227198   5.021   5.434  13.318 -0.4269  3.4461  3.2593
 1903TIP3   OH227199   4.789   3.822  13.794  0.0913  0.3605  0.2369
 1903TIP3    H127200   4.751   3.907  13.815 -0.0872 -0.0659  1.7091
 1903TIP3    H227201   4.728   3.783  13.732  0.0946  1.2426 -0.3221
 1904TIP3   OH227202   0.218   5.153  16.894 -0.6610  0.6302 -0.0724
 1904TIP3    H127203   0.176   5.124  16.813  0.5816 -4.3398  0.9507
 1904TIP3    H227204   0.306   5.116  16.890 -0.3502  0.8495  3.2702
 1905TIP3   OH227205   6.655   6.230  13.808  0.0585 -0.2124  0.1187
 1905TIP3    H127206   6.729   6.189  13.762 -0.9844 -1.3655 -0.5514
 1905TIP3    H227207   6.691   6.312  13.843  1.0649  0.3011 -2.0763
 1906TIP3   OH227208   1.190   3.122   0.188  0.1545 -0.0241 -0.3967
 1906TIP3    H127209   1.226   3.135   0.100 -1.3699 -1.2532 -1.2329
 1906TIP3    H227210   1.116   3.182   0.192  0.7128  0.6244  0.3694
 1907TIP3   OH227211   4.175   6.172  14.798  0.3942 -0.2215  0.8323
 1907TIP3    H127212   4.182   6.121  14.879 -0.3139 -0.3427  0.8154
 1907TIP3    H227213   4.082   6.191  14.789  0.5537  0.3607  0.3941
 1908TIP3   OH227214   6.082   4.493  11.381  0.0978  0.2625 -0.4694
 1908TIP3    H127215   6.125   4.565  11.334  1.0251  0.7055  1.0464
 1908TIP3    H227216   6.006   4.534  11.423  0.9987  0.5084  0.9441
 1909TIP3   OH227217   6.142   5.600   0.684  0.0813  0.1559  0.2230
 1909TIP3    H127218   6.104   5.576   0.769  0.6631 -0.2585  0.3697
 1909TIP3    H227219   6.230   5.564   0.687 -0.3766 -1.1126 -1.1357
 1910TIP3   OH227220   6.215   6.508   5.523 -0.0456  0.1376  0.0629
 1910TIP3    H127221   6.306   6.479   5.515 -0.6488 -1.1383 -2.6681
 1910TIP3    H227222   6.220   6.601   5.542  1.8372  0.0190  0.1862
 1911TIP3   OH227223   6.072   1.480  15.835  0.0106 -0.1429  0.4074
 1911TIP3    H127224   6.067   1.522  15.749  1.3967 -0.8292 -0.0261
 1911TIP3    H227225   6.119   1.543  15.890  1.8436 -0.9917 -0.1675
 1912TIP3   OH227226   3.776   0.929  14.091 -0.3292 -0.2772  0.0671
 1912TIP3    H127227   3.812   0.964  14.173  0.6135 -0.9013 -0.0716
 1912TIP3    H227228   3.748   0.840  14.114 -1.7931  0.1991  0.1711
 1913TIP3   OH227229   4.142   4.473  11.934 -0.1082 -0.2975 -0.7663
 1913TIP3    H127230   4.215   4.455  11.992 -1.1326  0.9337  0.9515
 1913TIP3    H227231   4.162   4.557  11.894 -0.6607  0.1336 -0.1495
 1914TIP3   OH227232   1.896   3.410  17.035 -0.7136  0.1197 -0.3311
 1914TIP3    H127233   1.943   3.392  16.953 -1.2831 -0.9396 -0.4400
 1914TIP3    H227234   1.803   3.399  17.012 -0.8414 -0.8468  0.6092
 1915TIP3   OH227235   5.150   2.286  11.525 -1.0533 -0.5500  0.2224
 1915TIP3    H127236   5.146   2.269  11.619 -0.7590 -0.1463  0.3045
 1915TIP3    H227237   5.216   2.225  11.493 -0.8507 -0.3924  0.3407
 1916TIP3   OH227238   3.750   0.039   1.899 -0.7900 -0.1704 -0.5389
 1916TIP3    H127239   3.678   0.091   1.935 -1.2944 -2.2479  1.5600
 1916TIP3    H227240   3.827   0.095   1.909 -1.7412  1.2285 -0.8288
 1917TIP3   OH227241   3.116   1.732   4.803 -0.0411  0.2392  0.1727
 1917TIP3    H127242   3.153   1.804   4.855  2.2715  1.3089 -2.8517
 1917TIP3    H227243   3.021   1.744   4.811  0.2705  1.2162  2.9231
 1918TIP3   OH227244   5.498   6.586   5.872 -0.2364 -0.3468  0.8352
 1918TIP3    H127245   5.594   6.580   5.872 -0.1975  0.2324 -0.3159
 1918TIP3    H227246   5.469   6.495   5.879  0.3906 -0.5491  0.8309
 1919TIP3   OH227247   3.622   1.454   5.768 -0.6996  0.4063 -0.0268
 1919TIP3    H127248   3.704   1.407   5.754 -1.0941 -0.3157  0.0368
 1919TIP3    H227249   3.586   1.415   5.848 -1.0209  0.8321  0.0359
 1920TIP3   OH227250   0.318   1.361  10.665 -0.1111  0.4158  0.2962
 1920TIP3    H127251   0.300   1.455  10.662  1.6125  0.7320 -1.1871
 1920TIP3    H227252   0.408   1.353  10.633 -0.6796 -1.8555 -0.8232
 1921TIP3   OH227253   2.261   3.881   0.602  0.3006  0.3253 -0.0741
 1921TIP3    H127254   2.223   3.832   0.529  1.5256 -0.3151 -0.2967
 1921TIP3    H227255   2.187   3.900   0.660 -0.2278 -1.5361 -0.1302
 1922TIP3   OH227256   1.288   5.263  16.572  0.3778 -0.0201 -0.7813
 1922TIP3    H127257   1.342   5.286  16.496 -1.0953 -2.6670 -2.6893
 1922TIP3    H227258   1.210   5.317  16.564  0.2632 -0.2341 -1.1062
 1923TIP3   OH227259   3.657   5.141   3.132  0.6042  0.0437 -0.1264
 1923TIP3    H127260   3.648   5.159   3.039 -1.6202  0.3677  0.1314
 1923TIP3    H227261   3.649   5.046   3.140 -2.1029  0.2334 -0.0096
 1924TIP3   OH227262   5.379   0.476   0.015 -0.0008  0.2306  0.0173
 1924TIP3    H127263   5.318   0.537  -0.027  2.0932  2.8152  0.5251
 1924TIP3    H227264   5.440   0.452  -0.055 -1.0062 -1.5737 -0.2555
 1925TIP3   OH227265   6.432   6.043   5.417 -0.1007  0.2904  0.2567
 1925TIP3    H127266   6.396   6.130   5.399 -0.3704  0.3351  1.0118
 1925TIP3    H227267   6.362   5.997   5.463  0.7089  0.2885  1.5016
 1926TIP3   OH227268   2.198   6.604  12.763 -0.1026 -0.0648 -0.2812
 1926TIP3    H127269   2.177   6.529  12.708  3.1772 -0.9849 -0.4347
 1926TIP3    H227270   2.175   6.575  12.852 -0.5520 -0.5858 -0.5659
 1927TIP3   OH227271   3.556   0.964   3.620 -0.0166 -0.3811  0.4233
 1927TIP3    H127272   3.471   0.945   3.658 -1.1014 -1.1299 -2.3150
 1927TIP3    H227273   3.579   1.050   3.656 -1.9205 -0.1487  1.1488
 1928TIP3   OH227274   0.049   2.666  16.421 -0.1415 -0.4039  0.7264
 1928TIP3    H127275   0.131   2.669  16.471 -0.8720 -2.7557  2.1724
 1928TIP3    H227276   0.076   2.642  16.332  0.8983  0.7452  0.7226
 1929TIP3   OH227277   5.317   4.496  15.041 -0.5102  0.2855  0.2329
 1929TIP3    H127278   5.381   4.557  15.006 -1.4563  0.5974 -0.9786
 1929TIP3    H227279   5.363   4.412  15.044 -0.1138  0.4538 -0.8836
 1930TIP3   OH227280   1.648   1.685  11.420 -0.3741 -0.5812  0.2089
 1930TIP3    H127281   1.714   1.621  11.394 -0.2319 -0.2941 -0.1261
 1930TIP3    H227282   1.668   1.763  11.368  0.9807  0.5879  2.4068
 1931TIP3   OH227283   4.445   2.642   2.787  0.4629  0.0611 -0.6610
 1931TIP3    H127284   4.352   2.623   2.792  0.6015 -0.4701 -0.1411
 1931TIP3    H227285   4.485   2.562   2.753  0.7615  0.1990 -0.6422
 1932TIP3   OH227286   4.042   4.549   0.066  0.2677  0.2024  0.4822
 1932TIP3    H127287   3.976   4.491   0.027  1.3017  0.6655 -2.0280
 1932TIP3    H227288   4.012   4.562   0.156 -1.5143 -1.9192  0.2422
 1933TIP3   OH227289   1.749   6.525   0.888 -0.0447  0.3513  1.1885
 1933TIP3    H127290   1.812   6.459   0.858 -0.2149  0.1292  1.3193
 1933TIP3    H227291   1.763   6.599   0.829  0.1999  0.2271  1.0879
 1934TIP3   OH227292   6.222   4.138  11.013 -0.0150 -0.1574  0.0541
 1934TIP3    H127293   6.265   4.186  10.942 -0.5264  1.2876  0.6791
 1934TIP3    H227294   6.146   4.097  10.971  0.8019 -0.9874 -0.6287
 1935TIP3   OH227295   6.337   0.656   0.209  0.3463  0.0802 -0.2607
 1935TIP3    H127296   6.284   0.595   0.260 -0.5132  0.1998 -0.9903
 1935TIP3    H227297   6.332   0.738   0.257  0.9476 -0.2398  0.3631
 1936TIP3   OH227298   1.726   3.431  11.892  0.3233 -0.0612  0.2580
 1936TIP3    H127299   1.777   3.351  11.899  1.7870  0.8222 -0.0408
 1936TIP3    H227300   1.697   3.434  11.801  1.6680  0.5430 -0.1795
 1937TIP3   OH227301   6.631   4.805   1.459 -0.9037  0.2465 -0.5745
 1937TIP3    H127302   6.609   4.775   1.371 -0.1467 -0.2046 -0.6112
 1937TIP3    H227303   6.547   4.829   1.497 -1.2944 -0.0442 -1.2409
 1938TIP3   OH227304   6.753   6.275   3.967  0.1713  1.1153  0.7346
 1938TIP3    H127305   6.721   6.353   4.012 -0.4114  0.9700  0.5706
 1938TIP3    H227306   6.799   6.309   3.890  0.8336  1.3438  1.2277
 1939TIP3   OH227307   1.802   0.313   1.920  0.0956  0.1886  0.4486
 1939TIP3    H127308   1.796   0.257   1.843  1.3790  0.0364  0.4472
 1939TIP3    H227309   1.813   0.401   1.884 -1.6937  0.4244  0.4520
 1940TIP3   OH227310   1.532   0.944   1.725  0.4371  0.2619  0.1678
 1940TIP3    H127311   1.511   0.900   1.806  0.5354  1.2552  0.7460
 1940TIP3    H227312   1.548   0.874   1.662  1.6776 -0.5168  1.3377
 1941TIP3   OH227313   1.760   6.012   0.518 -0.1822 -0.1027 -0.6807
 1941TIP3    H127314   1.707   5.952   0.466 -0.2768  0.6969 -1.5305
 1941TIP3    H227315   1.779   6.084   0.458  1.5625 -0.2123 -0.2837
 1942TIP3   OH227316   0.486   4.103   1.665  0.0926 -0.1843 -0.4309
 1942TIP3    H127317   0.425   4.163   1.709  0.3255  0.6306 -1.2058
 1942TIP3    H227318   0.570   4.147   1.670  0.3030 -0.5425 -0.8421
 1943TIP3   OH227319   3.837   1.437  11.388 -0.1373  0.3948  0.1674
 1943TIP3    H127320   3.854   1.453  11.295  1.4883  0.6865  0.5025
 1943TIP3    H227321   3.869   1.514  11.433 -0.4430  0.0321  1.0301
 1944TIP3   OH227322   0.888   4.697  13.373 -0.1775  0.6016 -0.5302
 1944TIP3    H127323   0.970   4.734  13.340 -0.0271 -1.2595 -2.4468
 1944TIP3    H227324   0.880   4.614  13.325 -1.0089 -1.3012  2.7612
 1945TIP3   OH227325   2.947   1.708   5.143 -0.2199 -0.2405  0.4925
 1945TIP3    H127326   2.998   1.649   5.199 -0.8985  0.7608  2.1931
 1945TIP3    H227327   2.979   1.795   5.165 -0.5821  0.1696 -0.6010
 1946TIP3   OH227328   4.850   6.079   2.923  0.1614  0.3100 -0.6644
 1946TIP3    H127329   4.909   6.139   2.877  1.1820  0.5634  0.9206
 1946TIP3    H227330   4.902   6.001   2.940 -0.4107 -0.0535 -0.5578
 1947TIP3   OH227331   1.403   1.171   2.212  0.0620 -0.0506 -0.3645
 1947TIP3    H127332   1.417   1.100   2.150 -0.0559  0.5101 -1.0420
 1947TIP3    H227333   1.451   1.145   2.291  2.1789  0.3267 -1.4952
 1948TIP3   OH227334   0.426   3.615   5.767  0.3276  0.2227 -0.7030
 1948TIP3    H127335   0.454   3.524   5.769 -0.1780  0.0408 -1.7288
 1948TIP3    H227336   0.508   3.665   5.766  0.6308 -0.1306  2.1187
 1949TIP3   OH227337   0.286   3.771   0.330  0.1256  0.1154  0.9556
 1949TIP3    H127338   0.355   3.837   0.332  2.2095 -1.9784  0.3843
 1949TIP3    H227339   0.223   3.805   0.267  1.2764  1.4546  0.4873
 1950TIP3   OH227340   0.869   6.337   1.924  0.4759  0.3227 -0.7251
 1950TIP3    H127341   0.843   6.428   1.910 -0.6415  0.2474  0.7459
 1950TIP3    H227342   0.959   6.343   1.954 -0.1693  1.0949  1.1569
 1951TIP3   OH227343   0.874   0.330   4.018 -0.1646 -0.1632 -0.4757
 1951TIP3    H127344   0.852   0.242   3.987  0.8607 -1.3064  1.8970
 1951TIP3    H227345   0.967   0.326   4.039 -0.6569  0.7094  2.0797
 1952TIP3   OH227346   3.263   1.944   4.057 -0.8204  0.5714  0.8735
 1952TIP3    H127347   3.228   2.019   4.105 -1.2509  0.8385  0.1492
 1952TIP3    H227348   3.223   1.950   3.970 -1.2702 -0.7957  0.9694
 1953TIP3   OH227349   3.702   2.850  12.350 -0.2067  0.4340 -0.0812
 1953TIP3    H127350   3.782   2.881  12.393 -0.9236  0.3551  1.3433
 1953TIP3    H227351   3.642   2.925  12.355 -0.8586 -0.1253  0.5413
 1954TIP3   OH227352   2.202   5.193  11.870  0.0707  0.7905 -0.1734
 1954TIP3    H127353   2.295   5.214  11.862  0.4640 -1.3340 -1.8380
 1954TIP3    H227354   2.185   5.136  11.795 -1.0776 -3.9056  3.4059
 1955TIP3   OH227355   5.267   6.044   2.426  0.5732 -0.0952  0.1678
 1955TIP3    H127356   5.222   5.960   2.423  0.1165  0.1017  1.5294
 1955TIP3    H227357   5.351   6.026   2.468  0.0447  0.3105  1.4314
 1956TIP3   OH227358   4.194   3.893   4.820 -0.5784  0.0604 -0.6626
 1956TIP3    H127359   4.170   3.984   4.801 -2.1488 -0.6582 -2.2283
 1956TIP3    H227360   4.169   3.844   4.742  2.2490 -1.4185 -0.6882
 1957TIP3   OH227361   1.310   0.346   3.761  0.2242  0.9594  0.9284
 1957TIP3    H127362   1.331   0.255   3.782 -1.8326  0.1458 -0.3580
 1957TIP3    H227363   1.395   0.389   3.753  1.2164 -0.7594  1.8827
 1958TIP3   OH227364   5.974   5.873  16.361  0.3476  0.3429 -0.4615
 1958TIP3    H127365   5.898   5.838  16.314  1.5468 -0.2387 -2.0002
 1958TIP3    H227366   5.959   5.846  16.452 -0.5781 -1.0347 -0.9881
 1959TIP3   OH227367   3.058   5.600  10.583  0.1968 -0.1988 -0.5565
 1959TIP3    H127368   3.149   5.576  10.568  1.0397 -0.3259  4.0786
 1959TIP3    H227369   3.062   5.682  10.631 -2.1446 -0.1666 -0.3599
 1960TIP3   OH227370   0.890   1.381   2.244  0.0810  0.6393 -0.1346
 1960TIP3    H127371   0.918   1.290   2.240  1.1093  0.8735  1.1762
 1960TIP3    H227372   0.933   1.423   2.170  0.1589  0.1973 -0.3402
 1961TIP3   OH227373   2.750   3.974  14.876 -0.3799  0.3338  0.5862
 1961TIP3    H127374   2.816   4.014  14.820 -0.9432  0.6738  0.1535
 1961TIP3    H227375   2.667   3.989  14.830 -0.6594 -0.8464  0.6932
 1962TIP3   OH227376   5.155   0.551   3.757 -0.1876 -0.1470  0.5553
 1962TIP3    H127377   5.081   0.538   3.697 -1.1160  0.3450  1.5863
 1962TIP3    H227378   5.183   0.641   3.741 -0.2929 -0.0881  0.7055
 1963TIP3   OH227379   6.526   5.749  16.495 -0.6078  0.3569  0.4263
 1963TIP3    H127380   6.522   5.722  16.404 -0.4799  1.2685  0.1454
 1963TIP3    H227381   6.563   5.673  16.541  2.0077  0.8802 -0.6957
 1964TIP3   OH227382   5.888   5.898   1.322  0.2153 -0.2700  0.5614
 1964TIP3    H127383   5.847   5.816   1.346 -0.2820 -0.3779 -0.5801
 1964TIP3    H227384   5.952   5.875   1.254  0.2043  0.2501  0.3646
 1965TIP3   OH227385   1.509   3.501  15.133 -0.8995 -0.2212 -0.0476
 1965TIP3    H127386   1.492   3.595  15.145  1.0975  0.2008 -0.4580
 1965TIP3    H227387   1.582   3.482  15.192 -0.1268 -1.1257 -1.2882
 1966TIP3   OH227388   3.188   3.371  11.356  0.6309  0.8475 -0.9446
 1966TIP3    H127389   3.184   3.383  11.261 -0.4861  2.5124 -0.7058
 1966TIP3    H227390   3.164   3.279  11.370 -1.3843  1.1821 -2.1194
 1967TIP3   OH227391   1.268   3.452   6.151 -0.1922  0.1454  0.7259
 1967TIP3    H127392   1.277   3.491   6.238  2.1345 -2.6587  1.8213
 1967TIP3    H227393   1.185   3.406   6.154 -0.0028 -0.1463  1.5571
 1968TIP3   OH227394   3.149   6.729  13.024  0.0239  0.3174  0.4531
 1968TIP3    H127395   3.236   6.707  12.991  1.2089  0.9211  3.0532
 1968TIP3    H227396   3.111   6.645  13.050  0.2531  0.1750  0.3326
 1969TIP3   OH227397   3.608   6.289   5.012 -0.4362  0.1309  0.4232
 1969TIP3    H127398   3.641   6.264   5.098 -0.2125  1.6117  0.7749
 1969TIP3    H227399   3.678   6.342   4.973 -1.0150  0.4675 -0.1879
 1970TIP3   OH227400   5.046   2.568   1.744 -0.2970 -0.0658 -0.0959
 1970TIP3    H127401   4.992   2.489   1.739  0.8032 -0.7908 -0.8017
 1970TIP3    H227402   4.999   2.625   1.805 -1.8005 -0.7139 -0.6077
 1971TIP3   OH227403   0.508   2.548   0.685 -0.8744  0.7287  0.6515
 1971TIP3    H127404   0.482   2.598   0.763  1.7816  1.2803  1.2232
 1971TIP3    H227405   0.548   2.468   0.720 -2.1337 -0.3035 -0.2175
 1972TIP3   OH227406   5.884   1.865   0.087  0.3651 -0.4587 -0.2115
 1972TIP3    H127407   5.971   1.870   0.126  0.7170  2.6102 -1.2533
 1972TIP3    H227408   5.877   1.776   0.054  3.0470 -0.7861  0.0055
 1973TIP3   OH227409   6.352   1.112  13.292 -0.0746 -0.1532 -0.7084
 1973TIP3    H127410   6.342   1.039  13.231 -3.3595 -0.4188  0.0786
 1973TIP3    H227411   6.439   1.100  13.330  0.1218 -2.6288 -1.8817
 1974TIP3   OH227412   3.746   5.780   1.364  0.0586  0.0637 -0.5197
 1974TIP3    H127413   3.687   5.760   1.291 -0.5570 -1.2509  0.3041
 1974TIP3    H227414   3.742   5.702   1.420 -0.1126  1.3451  1.3283
 1975TIP3   OH227415   4.544   0.119   6.049 -0.2840 -0.6064 -0.3363
 1975TIP3    H127416   4.615   0.157   6.100  0.6992 -1.8087 -0.7873
 1975TIP3    H227417   4.490   0.193   6.023  0.8752  0.3231 -0.0943
 1976TIP3   OH227418   2.208   3.616   1.591 -0.3090 -0.0841 -0.1238
 1976TIP3    H127419   2.294   3.639   1.627 -0.0586  0.0065 -0.7738
 1976TIP3    H227420   2.213   3.641   1.499 -1.5984  1.4119  0.1966
 1977TIP3   OH227421   3.452   3.210  13.887 -0.0182  0.3146  0.1738
 1977TIP3    H127422   3.374   3.266  13.898 -0.5966 -0.5269  0.3699
 1977TIP3    H227423   3.520   3.271  13.857 -1.5433  0.5582 -3.0846
 1978TIP3   OH227424   1.814   2.933   2.816 -0.0229 -0.0667  0.2293
 1978TIP3    H127425   1.907   2.958   2.822 -0.2559  0.8200  0.1479
 1978TIP3    H227426   1.793   2.939   2.723 -0.3266  0.3248  0.3230
 1979TIP3   OH227427   5.146   2.806   2.666 -0.5512 -0.1845  0.3802
 1979TIP3    H127428   5.214   2.821   2.601 -0.2984  0.7496  0.8609
 1979TIP3    H227429   5.064   2.809   2.616 -0.4403  1.6815  0.2639
 1980TIP3   OH227430   3.991   2.079   0.604  0.3768  0.4793 -0.5093
 1980TIP3    H127431   3.917   2.139   0.600 -0.5720 -0.5212  1.1380
 1980TIP3    H227432   3.953   1.998   0.639  2.4014  0.2111  1.1053
 1981TIP3   OH227433   0.817   3.488  14.585 -0.4594  0.0190  0.3445
 1981TIP3    H127434   0.890   3.457  14.640 -0.2868 -0.2761 -0.0482
 1981TIP3    H227435   0.742   3.436  14.615 -0.3891 -0.0663  0.3759
 1982TIP3   OH227436   4.599   4.033   2.132  0.6366 -0.2561  0.5073
 1982TIP3    H127437   4.689   4.006   2.153  0.4988 -0.3491  0.9831
 1982TIP3    H227438   4.608   4.085   2.052  0.7776 -2.6962 -1.1088
 1983TIP3   OH227439   0.899   5.586   6.092  0.0518 -0.0791 -0.1907
 1983TIP3    H127440   0.965   5.522   6.064  0.1734 -0.1528  0.2535
 1983TIP3    H227441   0.827   5.534   6.126 -0.6436 -0.0172 -1.5612
 1984TIP3   OH227442   4.768   4.511   5.271  0.1594  0.8521  0.5769
 1984TIP3    H127443   4.738   4.421   5.255  0.3819  0.9632 -0.4569
 1984TIP3    H227444   4.803   4.508   5.360  2.4684 -0.6973 -0.3278
 1985TIP3   OH227445   2.864   3.108   1.261 -0.1663  0.3959  0.0685
 1985TIP3    H127446   2.940   3.167   1.267  0.2183 -0.0691 -0.2468
 1985TIP3    H227447   2.896   3.024   1.291  0.4133 -0.7030 -3.3656
 1986TIP3   OH227448   6.081   1.582  11.340  0.2679  0.0477  0.4542
 1986TIP3    H127449   6.009   1.565  11.280 -0.2920 -0.3586  1.2336
 1986TIP3    H227450   6.105   1.673  11.323  0.1938 -0.1059 -0.4703
 1987TIP3   OH227451   4.107   3.984   0.945  0.0691 -0.1028  0.0199
 1987TIP3    H127452   4.105   4.058   1.006  0.1433  0.5922 -0.8195
 1987TIP3    H227453   4.126   4.023   0.860  1.6266 -1.2404 -0.1928
 1988TIP3   OH227454   0.872   0.340  13.106  0.3416 -0.4269  0.0659
 1988TIP3    H127455   0.780   0.315  13.103  0.2660 -0.4552  1.8541
 1988TIP3    H227456   0.900   0.318  13.195  1.9769 -0.0650 -0.3317
 1989TIP3   OH227457   0.123   1.873   0.775  0.4475 -0.3530  0.8382
 1989TIP3    H127458   0.173   1.931   0.717  1.5530 -0.9390  1.1903
 1989TIP3    H227459   0.149   1.898   0.863 -1.9423  1.1697  1.1414
 1990TIP3   OH227460   0.458   4.992  12.118  0.5927  0.3513 -0.6122
 1990TIP3    H127461   0.428   4.902  12.121  1.0478  0.2075 -0.4034
 1990TIP3    H227462   0.379   5.043  12.099 -0.2367  0.2129  2.2789
 1991TIP3   OH227463   5.110   2.389  15.407  0.5761  0.6059  0.1795
 1991TIP3    H127464   5.177   2.458  15.402  0.2695  1.1435  2.7803
 1991TIP3    H227465   5.161   2.308  15.409  1.1836  1.0080  2.0384
 1992TIP3   OH227466   4.043   3.632   0.592  0.1767 -0.0588  0.1177
 1992TIP3    H127467   4.052   3.695   0.520  0.1950  0.9059  0.9640
 1992TIP3    H227468   4.025   3.685   0.669  1.9790 -0.9636  1.1994
 1993TIP3   OH227469   0.894   4.854   0.424  0.8259  0.0817  0.1679
 1993TIP3    H127470   0.981   4.814   0.420  1.2512  0.6212  2.9469
 1993TIP3    H227471   0.897   4.908   0.503 -1.5178  1.3633 -0.5968
 1994TIP3   OH227472   2.186   6.244  16.489 -0.3345  0.0356  0.1286
 1994TIP3    H127473   2.268   6.267  16.534  0.5434 -0.7910 -1.0108
 1994TIP3    H227474   2.174   6.314  16.425  2.3225 -2.4631 -3.3216
 1995TIP3   OH227475   4.695   4.065  13.865  0.6898 -0.0894 -0.6387
 1995TIP3    H127476   4.790   4.080  13.865  0.4806  1.3070 -0.1750
 1995TIP3    H227477   4.659   4.136  13.917 -0.4983 -1.4937  0.5082
 1996TIP3   OH227478   5.390   2.227   2.843 -0.1749 -0.0811 -0.6643
 1996TIP3    H127479   5.407   2.136   2.866  0.6943  0.0881 -0.6157
 1996TIP3    H227480   5.297   2.240   2.865 -0.2996 -0.9416 -0.6557
 1997TIP3   OH227481   4.341   5.806   0.682 -0.2181 -0.5331 -0.5651
 1997TIP3    H127482   4.413   5.870   0.681 -1.9840  1.5228  0.9508
 1997TIP3    H227483   4.385   5.721   0.674  2.3631  0.6800  0.2019
 1998TIP3   OH227484   3.509   0.666   0.787  0.3917  0.0001 -0.4151
 1998TIP3    H127485   3.583   0.608   0.805  1.5586  2.0828  1.6438
 1998TIP3    H227486   3.542   0.727   0.720 -0.5513 -1.1111 -1.9266
 1999TIP3   OH227487   5.221   2.040  14.015  0.3837  0.9882  0.1865
 1999TIP3    H127488   5.276   1.983  13.961  0.8981  0.4567  1.2537
 1999TIP3    H227489   5.274   2.119  14.027 -0.2055  1.5749 -1.0394
 2000TIP3   OH227490   5.883   6.674  16.413 -0.2309  0.1533 -0.1799
 2000TIP3    H127491   5.941   6.617  16.463 -0.7590  0.6202  0.9791
 2000TIP3    H227492   5.795   6.639  16.430 -0.4750  0.7550 -0.1917
 2001TIP3   OH227493   3.188   6.472  15.089 -0.0796 -0.1160  0.0852
 2001TIP3    H127494   3.235   6.547  15.127  1.5784 -0.4804 -1.2111
 2001TIP3    H227495   3.235   6.396  15.121 -0.0769 -0.5103 -0.8409
 2002TIP3   OH227496   5.652   4.684   1.187 -0.3719  0.0441  0.4446
 2002TIP3    H127497   5.721   4.737   1.149 -1.7925  1.5895 -0.0479
 2002TIP3    H227498   5.581   4.746   1.206 -0.5401 -1.0045  3.6120
 2003TIP3   OH227499   5.867   1.896  15.011  0.1013 -0.1746  0.1703
 2003TIP3    H127500   5.791   1.879  14.955  1.7498 -1.7161 -1.6843
 2003TIP3    H227501   5.904   1.809  15.028  1.6140  0.5687  0.8219
 2004TIP3   OH227502   3.960   0.990   1.498 -0.0709  0.1690 -0.6243
 2004TIP3    H127503   3.934   1.056   1.561 -1.5092 -0.4542 -0.5578
 2004TIP3    H227504   3.977   1.040   1.417 -0.1469  0.7332 -0.2957
 2005TIP3   OH227505   6.666   0.203   1.431  0.7650 -0.5525 -0.2971
 2005TIP3    H127506   6.738   0.173   1.486 -0.0673 -0.9935  0.5663
 2005TIP3    H227507   6.645   0.290   1.464  0.9069 -0.4231 -0.5497
 2006TIP3   OH227508   5.290   0.350   0.582  0.2577  0.1563  0.8070
 2006TIP3    H127509   5.321   0.357   0.491 -1.7433 -1.6585 -0.0373
 2006TIP3    H227510   5.369   0.327   0.632  1.4409  1.4574 -0.3847
 2007TIP3   OH227511   4.336   6.114   4.419 -0.6671 -0.4683 -0.3432
 2007TIP3    H127512   4.418   6.077   4.386 -1.5065 -1.5707 -1.2325
 2007TIP3    H227513   4.335   6.091   4.512  1.0136  1.3917  0.1773
 2008TIP3   OH227514   0.084   6.129  13.743  0.1562 -0.5903 -0.1097
 2008TIP3    H127515   0.094   6.036  13.764  0.8960 -0.0347  2.2123
 2008TIP3    H227516   0.133   6.174  13.812  0.0880  1.5198 -1.3922
 2009TIP3   OH227517   5.965   1.098   0.884  0.4583 -0.6007  0.1440
 2009TIP3    H127518   6.026   1.170   0.900 -0.3030  0.3148 -1.0122
 2009TIP3    H227519   5.886   1.121   0.931  0.5565 -1.1880  0.6118
 2010TIP3   OH227520   3.770   1.132   0.175 -0.1101  0.3007  0.4425
 2010TIP3    H127521   3.780   1.054   0.120 -1.1553  0.2148  0.3811
 2010TIP3    H227522   3.857   1.145   0.213 -0.4974 -2.3430  2.3856
 2011TIP3   OH227523   2.401   5.282   2.850  0.6213  0.3124 -0.2024
 2011TIP3    H127524   2.446   5.323   2.924 -0.3803 -0.4825  0.8569
 2011TIP3    H227525   2.418   5.189   2.860 -2.3486 -0.1452  0.9759
 2012TIP3   OH227526   2.905   3.058  15.573  0.2056  0.2478 -0.1418
 2012TIP3    H127527   2.836   3.008  15.616  0.3003 -0.2777 -0.5914
 2012TIP3    H227528   2.952   2.993  15.521  2.3476  0.1980  1.7795
 2013TIP3   OH227529   0.802   3.085   1.381  0.0108 -0.5957  0.3577
 2013TIP3    H127530   0.831   3.033   1.456  2.4862  1.0540  0.6088
 2013TIP3    H227531   0.882   3.127   1.349 -1.2731 -0.0646 -2.2682
 2014TIP3   OH227532   6.682   3.227   1.410  0.0171 -0.7285  0.3282
 2014TIP3    H127533   6.759   3.217   1.466  0.2765 -0.9674 -0.0672
 2014TIP3    H227534   6.608   3.212   1.469  0.2079  1.3011  1.1099
 2015TIP3   OH227535   4.079   4.891  10.761  0.4074 -0.4856 -0.4826
 2015TIP3    H127536   4.104   4.863  10.673  1.0714 -0.1211 -0.4125
 2015TIP3    H227537   3.990   4.925  10.751  0.8077  0.3905 -1.1872
 2016TIP3   OH227538   1.098   1.869  11.518 -0.6909  0.9040  0.0225
 2016TIP3    H127539   1.117   1.904  11.605  1.0813 -1.8724  0.8116
 2016TIP3    H227540   1.003   1.868  11.512 -0.8193  1.3560  1.8465
 2017TIP3   OH227541   5.478   1.831  16.908  0.2196  0.2902  0.2702
 2017TIP3    H127542   5.397   1.783  16.925  1.1125 -1.4358 -0.2041
 2017TIP3    H227543   5.459   1.885  16.831 -1.0369  1.3185  1.2794
 2018TIP3   OH227544   1.184   6.427  15.643  0.1284 -0.0551  1.2371
 2018TIP3    H127545   1.233   6.346  15.632 -1.0631 -0.7625  1.0980
 2018TIP3    H227546   1.236   6.493  15.596  1.0545 -0.7372  1.2761
 2019TIP3   OH227547   3.255   2.584   0.739 -0.0442 -0.7574  1.1194
 2019TIP3    H127548   3.207   2.643   0.681 -0.8421  0.4087  2.9262
 2019TIP3    H227549   3.304   2.527   0.680 -0.1010  1.0038 -0.6873
 2020TIP3   OH227550   4.803   3.953  12.287  0.3226  0.4262  0.5396
 2020TIP3    H127551   4.858   3.894  12.339 -2.3178 -1.5626  1.1848
 2020TIP3    H227552   4.800   4.034  12.338  0.4003 -0.3850  1.8658
 2021TIP3   OH227553   2.834   4.972   5.913  0.4006 -0.5194  0.3465
 2021TIP3    H127554   2.880   5.055   5.922 -2.9851  1.6539 -1.2712
 2021TIP3    H227555   2.776   4.968   5.989 -1.5454  0.0549 -1.0741
 2022TIP3   OH227556   0.042   3.548   5.131  0.7049 -0.5339  0.6182
 2022TIP3    H127557   0.118   3.599   5.158 -1.2485  2.5806  0.4771
 2022TIP3    H227558  -0.001   3.524   5.213 -0.0005  0.6818  0.6210
 2023TIP3   OH227559   0.848   0.691   2.516 -0.4780 -0.3943  0.2529
 2023TIP3    H127560   0.819   0.643   2.593 -0.1126 -2.0713 -0.6308
 2023TIP3    H227561   0.802   0.649   2.443  0.0234  0.4573 -0.5651
 2024TIP3   OH227562   5.550   6.269   5.104 -0.0180  0.3286 -0.1464
 2024TIP3    H127563   5.633   6.285   5.059 -0.6290  1.9813 -0.7084
 2024TIP3    H227564   5.493   6.341   5.077 -1.5083 -0.5428  0.5741
 2025TIP3   OH227565   0.607   5.532  16.166 -0.0215 -0.2417 -0.9033
 2025TIP3    H127566   0.683   5.575  16.127 -0.3633  0.1389 -1.1436
 2025TIP3    H227567   0.606   5.563  16.257  0.3722 -0.5999 -0.7709
 2026TIP3   OH227568   4.983   6.093  12.906 -0.4267  0.6790 -0.1477
 2026TIP3    H127569   4.932   6.088  12.825 -0.8424 -0.6122  0.1901
 2026TIP3    H227570   5.025   6.007  12.913  1.2607  1.4954 -0.0659
 2027TIP3   OH227571   1.703   1.439  10.416  0.0451  0.1359 -0.2637
 2027TIP3    H127572   1.720   1.532  10.426 -2.9594  0.5296  1.6533
 2027TIP3    H227573   1.768   1.396  10.473  1.4108  1.0228 -1.1323
 2028TIP3   OH227574   0.251   3.970  11.536  0.0033  0.4236  0.3344
 2028TIP3    H127575   0.236   3.881  11.569  2.4663  0.8561  2.7554
 2028TIP3    H227576   0.309   3.959  11.461 -0.1757 -0.0489  0.2656
 2029TIP3   OH227577   2.756   6.683   5.493  0.4329 -0.1300 -0.4522
 2029TIP3    H127578   2.828   6.619   5.498  0.0816 -0.5023 -0.0615
 2029TIP3    H227579   2.783   6.745   5.426  0.4068 -1.1541 -1.4156
 2030TIP3   OH227580   2.166   1.681  15.148 -0.4432 -0.5543 -0.7427
 2030TIP3    H127581   2.199   1.697  15.236 -1.4382 -3.0845  0.1603
 2030TIP3    H227582   2.099   1.748  15.135  0.0180  0.1198  0.2456
 2031TIP3   OH227583   3.454   2.360  11.234  0.0435 -0.5332 -0.1673
 2031TIP3    H127584   3.416   2.273  11.221  1.1483 -0.9742 -0.5288
 2031TIP3    H227585   3.396   2.403  11.297  0.1735 -1.9889  0.9859
 2032TIP3   OH227586   2.122   6.723   0.546 -0.1105 -0.3471 -0.2827
 2032TIP3    H127587   2.193   6.664   0.571 -0.2040  0.0282  0.8949
 2032TIP3    H227588   2.095   6.763   0.628  1.7116  3.3201 -1.3547
 2033TIP3   OH227589   6.561   3.737  14.135  0.4186 -0.0201  0.0482
 2033TIP3    H127590   6.502   3.812  14.127  0.8727  0.3601  0.2595
 2033TIP3    H227591   6.550   3.709  14.226 -0.7521 -1.0443 -0.3926
 2034TIP3   OH227592   1.635   4.493  15.482 -0.5863  0.4556  0.1291
 2034TIP3    H127593   1.716   4.478  15.531 -1.3623  0.7105  1.5389
 2034TIP3    H227594   1.613   4.584  15.501 -1.4561  0.2454  0.1413
 2035TIP3   OH227595   2.499   2.819   3.231  0.0137  0.3039 -0.1873
 2035TIP3    H127596   2.455   2.742   3.195 -2.6437  1.5697  0.2632
 2035TIP3    H227597   2.473   2.822   3.323  1.2901  0.9294  0.1680
 2036TIP3   OH227598   2.758   0.756  11.555  0.3904  0.2546  0.3559
 2036TIP3    H127599   2.757   0.666  11.586  0.0784  0.9048  2.3531
 2036TIP3    H227600   2.850   0.780  11.553  0.4499  0.0116  0.2166
 2037TIP3   OH227601   4.843   2.393  11.297 -0.0015 -0.0067  0.7380
 2037TIP3    H127602   4.880   2.475  11.265  2.1104 -2.0016 -2.2233
 2037TIP3    H227603   4.918   2.344  11.331 -0.9670 -1.3859  0.9377
 2038TIP3   OH227604   6.008   0.106   0.688 -0.1053 -0.0715 -0.3984
 2038TIP3    H127605   6.034   0.025   0.644 -1.2865 -0.5892 -0.1781
 2038TIP3    H227606   5.983   0.078   0.777 -0.3643  0.5532 -0.2689
 2039TIP3   OH227607   4.136   1.127  13.888 -0.2875 -0.1213  0.1603
 2039TIP3    H127608   4.142   1.057  13.953 -1.7099 -1.5704 -1.2286
 2039TIP3    H227609   4.071   1.095  13.825  0.8065  1.4251 -1.7698
 2040TIP3   OH227610   1.950   0.979  15.614  0.1694  0.4337 -0.6546
 2040TIP3    H127611   1.926   1.019  15.698 -0.6086  1.0254 -1.1524
 2040TIP3    H227612   2.034   0.935  15.631  0.5393  1.4415  0.1515
 2041TIP3   OH227613   3.081   5.192  13.164 -0.6334 -0.0204 -0.0440
 2041TIP3    H127614   3.006   5.215  13.110 -0.0440  0.9723 -0.4530
 2041TIP3    H227615   3.060   5.229  13.250 -0.7498 -0.0094 -0.0774
 2042TIP3   OH227616   3.011   5.456  14.140  0.6067  0.3343  0.2947
 2042TIP3    H127617   2.991   5.548  14.127  1.9290  1.1155  3.2628
 2042TIP3    H227618   3.066   5.454  14.218  2.0778 -2.8167 -0.7242
 2043TIP3   OH227619   2.837   0.803   0.209 -0.2851  0.0019 -0.2154
 2043TIP3    H127620   2.777   0.762   0.147  0.6635 -2.3521  0.3593
 2043TIP3    H227621   2.795   0.790   0.295  1.0014 -1.7016  0.1950
 2044TIP3   OH227622   6.668   6.406   1.576  0.3402 -0.4656  0.0848
 2044TIP3    H127623   6.644   6.466   1.506 -0.0252 -1.2500 -0.4825
 2044TIP3    H227624   6.764   6.404   1.575  0.3437 -0.1777 -0.1383
 2045TIP3   OH227625   6.201   0.771  13.612  0.1632  0.3463 -0.0804
 2045TIP3    H127626   6.276   0.824  13.640  0.7019  0.0771 -0.9990
 2045TIP3    H227627   6.202   0.695  13.671 -0.1629  0.9726  0.7480
 2046TIP3   OH227628   0.876   4.450  13.220  0.0182 -0.0389 -0.4165
 2046TIP3    H127629   0.898   4.368  13.265 -0.5097 -0.5573 -1.0862
 2046TIP3    H227630   0.803   4.426  13.162  0.9476  0.5354 -1.8314
 2047TIP3   OH227631   1.668   3.019  14.198 -0.2186 -0.2546  0.3284
 2047TIP3    H127632   1.604   3.017  14.270  0.1717 -2.7189  0.6604
 2047TIP3    H227633   1.615   3.021  14.119 -0.6934 -0.6637  0.6344
 2048TIP3   OH227634   1.447   0.429   4.030  0.0441 -0.5534 -0.6168
 2048TIP3    H127635   1.469   0.460   3.942  0.5227 -0.3404 -0.4239
 2048TIP3    H227636   1.499   0.349   4.041 -1.4713 -1.6384 -1.2536
 2049TIP3   OH227637   6.562   3.930  12.695  0.3657  0.5566 -0.2028
 2049TIP3    H127638   6.497   3.912  12.763  1.3026  2.6195  1.3262
 2049TIP3    H227639   6.590   3.844  12.664 -0.2456 -0.4241  1.8741
 2050TIP3   OH227640   2.235   0.135   3.560  0.0293  0.5536 -0.3703
 2050TIP3    H127641   2.269   0.192   3.490  1.3947 -0.5987 -0.6747
 2050TIP3    H227642   2.283   0.053   3.549 -2.5338 -0.9937 -0.4856
 2051TIP3   OH227643   4.135   1.623   3.997  0.3371  0.2072 -0.0420
 2051TIP3    H127644   4.130   1.686   4.068  0.3003  1.9116 -1.5076
 2051TIP3    H227645   4.207   1.564   4.022 -0.2773  0.2187  1.8027
 2052TIP3   OH227646   1.042   2.785   3.541  0.3387  0.4114 -0.3871
 2052TIP3    H127647   1.070   2.858   3.596 -0.4534  0.7847 -0.4730
 2052TIP3    H227648   1.060   2.707   3.593  2.9106  0.5204 -1.0071
 2053TIP3   OH227649   2.596   0.105  11.541  0.2808 -0.7015 -0.0837
 2053TIP3    H127650   2.674   0.160  11.546  1.2461 -2.1121  0.5024
 2053TIP3    H227651   2.567   0.095  11.631 -0.5188 -0.2743 -0.2909
 2054TIP3   OH227652   1.773   6.185   5.341  0.0284 -0.1267 -0.0191
 2054TIP3    H127653   1.764   6.092   5.362 -0.7862 -0.1819 -0.5818
 2054TIP3    H227654   1.732   6.231   5.414  0.1183 -0.2215  0.0906
 2055TIP3   OH227655   1.680   3.594   1.358 -0.1795  0.2129 -0.1514
 2055TIP3    H127656   1.771   3.590   1.388 -1.5516 -4.4139  4.1963
 2055TIP3    H227657   1.650   3.681   1.387  1.9453  0.5003  1.3524
 2056TIP3   OH227658   4.655   0.233  10.901  0.1395 -0.3655 -0.6960
 2056TIP3    H127659   4.665   0.141  10.924 -0.6710 -0.2006  0.3832
 2056TIP3    H227660   4.561   0.245  10.887  0.1256  0.4728  0.0297
 2057TIP3   OH227661   4.536   1.281   2.940 -0.1043 -0.3912  0.1150
 2057TIP3    H127662   4.596   1.217   2.980  1.1639  0.4637 -0.3720
 2057TIP3    H227663   4.484   1.229   2.879  2.4896 -0.6617 -1.9843
 2058TIP3   OH227664   3.235   3.319   3.615  0.0344 -0.8265  0.5887
 2058TIP3    H127665   3.148   3.355   3.601  0.8246  0.3217 -1.6505
 2058TIP3    H227666   3.231   3.231   3.577  0.3021 -0.1631 -1.0012
 2059TIP3   OH227667   5.864   4.818  14.316  0.1437  0.2809 -0.1506
 2059TIP3    H127668   5.846   4.912  14.318  0.8217  0.3876  2.6825
 2059TIP3    H227669   5.960   4.812  14.311  0.0927 -0.2700 -0.5221
 2060TIP3   OH227670   1.025   2.722  13.308 -1.1833  0.0635 -0.3125
 2060TIP3    H127671   0.969   2.758  13.377 -1.0633  1.3681 -0.8816
 2060TIP3    H227672   1.079   2.796  13.280 -0.5685 -0.6940 -1.1526
 2061TIP3   OH227673   3.214   6.511   6.051  0.4172 -0.1753  1.2509
 2061TIP3    H127674   3.279   6.442   6.035  1.7728  1.0050  1.5741
 2061TIP3    H227675   3.266   6.591   6.059 -1.0339  0.6981  2.0923
 2062TIP3   OH227676   6.397   0.778  15.107  0.5249  0.2572  0.1757
 2062TIP3    H127677   6.342   0.748  15.180  0.3215  1.0469  0.3533
 2062TIP3    H227678   6.486   0.757  15.133  0.7895  3.4887  2.1575
 2063TIP3   OH227679   2.969   0.725   5.206 -0.0521  0.5564  0.0164
 2063TIP3    H127680   2.961   0.645   5.259 -0.5642  0.2151 -0.5718
 2063TIP3    H227681   3.031   0.702   5.137  0.2562  0.8549  0.1954
 2064TIP3   OH227682   2.343   2.775   2.641  0.3157  0.2123  0.3055
 2064TIP3    H127683   2.297   2.725   2.708  1.9055 -0.5312  0.8645
 2064TIP3    H227684   2.325   2.728   2.559 -0.9481  0.6556  0.3183
 2065TIP3   OH227685   5.553   5.772   2.810  0.2496  0.0927  0.0281
 2065TIP3    H127686   5.494   5.784   2.884  0.8677  0.7545  0.4213
 2065TIP3    H227687   5.510   5.819   2.738  0.5987  1.1431  0.4828
 2066TIP3   OH227688   6.795   3.207   5.311  0.5218 -0.2242  0.5512
 2066TIP3    H127689   6.785   3.119   5.348 -1.9513 -0.1076  0.2285
 2066TIP3    H227690   6.798   3.192   5.217  1.3463 -0.0594  0.5501
 2067TIP3   OH227691   3.870   4.078  15.146 -0.0183 -0.1713  0.1632
 2067TIP3    H127692   3.866   4.066  15.241  0.4697 -0.1239  0.1920
 2067TIP3    H227693   3.914   4.000  15.114 -0.2418 -0.2184 -0.0346
 2068TIP3   OH227694   4.758   1.725   4.436  0.2824 -0.0471 -0.3015
 2068TIP3    H127695   4.695   1.796   4.448  0.5544  0.6556 -2.8017
 2068TIP3    H227696   4.777   1.695   4.525 -2.2339  0.8928  0.5955
 2069TIP3   OH227697   6.471   2.885  13.953  0.2569 -0.4396 -0.2679
 2069TIP3    H127698   6.459   2.803  14.001 -0.3415 -0.2150 -0.0259
 2069TIP3    H227699   6.461   2.953  14.020 -0.6049 -0.1271 -0.7109
 2070TIP3   OH227700   2.296   5.539  14.864  0.5066 -0.1513 -0.1119
 2070TIP3    H127701   2.327   5.572  14.948  0.1065  1.3390 -0.5313
 2070TIP3    H227702   2.222   5.596  14.842  0.5526 -0.5853 -1.4345
 2071TIP3   OH227703   3.368   2.074  16.259  0.1801  0.0824 -0.5502
 2071TIP3    H127704   3.409   2.085  16.345 -0.9129 -1.1513  0.1539
 2071TIP3    H227705   3.336   2.161  16.236 -0.1558  0.2735  0.6302
 2072TIP3   OH227706   2.155   1.014   0.716 -0.2249 -0.0579 -0.3248
 2072TIP3    H127707   2.220   0.955   0.678 -0.0153 -0.1872  0.2263
 2072TIP3    H227708   2.197   1.100   0.711  0.1968 -0.2135  0.4861
 2073TIP3   OH227709   5.245   3.673   2.828 -0.2227 -0.1194  0.3438
 2073TIP3    H127710   5.255   3.764   2.802  1.5893 -0.8007 -1.4491
 2073TIP3    H227711   5.157   3.649   2.797  0.2294  0.3435 -1.3712
 2074TIP3   OH227712   5.377   4.964  15.179 -0.2993  0.2218 -0.0512
 2074TIP3    H127713   5.450   5.023  15.160 -0.4723  0.5228  0.2139
 2074TIP3    H227714   5.372   4.961  15.274  0.4791 -1.1923 -0.0401
 2075TIP3   OH227715   1.759   5.870  15.369 -0.2636 -0.1705  0.3300
 2075TIP3    H127716   1.702   5.802  15.406  0.2877 -1.1897 -0.6490
 2075TIP3    H227717   1.824   5.821  15.320  0.4282  1.0694  0.0074
 2076TIP3   OH227718   1.496   5.449  15.015  0.3705  0.3769  0.0206
 2076TIP3    H127719   1.589   5.435  15.033  0.1172 -0.2643  0.8546
 2076TIP3    H227720   1.484   5.543  15.025  0.9439  0.4767 -0.1676
 2077TIP3   OH227721   2.927   1.852  11.676 -0.3373  0.3615  0.0198
 2077TIP3    H127722   3.014   1.892  11.673  0.0231 -0.4775 -0.8386
 2077TIP3    H227723   2.900   1.847  11.584 -1.8328  1.7819  0.3704
 2078TIP3   OH227724   4.165   0.958   3.947  0.0617  0.2124  0.4179
 2078TIP3    H127725   4.201   0.870   3.945 -0.3686  0.0203  0.9567
 2078TIP3    H227726   4.120   0.964   4.031 -1.6852  0.2380 -0.4910
 2079TIP3   OH227727   0.244   6.707  11.534 -0.3011 -0.0742  0.0166
 2079TIP3    H127728   0.269   6.617  11.553  1.6826  0.2150 -1.0515
 2079TIP3    H227729   0.253   6.753  11.617  1.9775 -0.1697 -0.1594
 2080TIP3   OH227730   1.098   1.320   6.095 -0.0302  0.1407 -0.2791
 2080TIP3    H127731   1.146   1.289   6.172 -2.2806 -0.2983  1.0114
 2080TIP3    H227732   1.027   1.374   6.131 -0.9484  0.1730 -2.0578
 2081TIP3   OH227733   6.548   5.993   2.659  0.2484 -0.3135  0.1745
 2081TIP3    H127734   6.534   5.941   2.738  0.2185 -1.3260 -0.4836
 2081TIP3    H227735   6.588   5.931   2.597  0.7361  0.6037 -0.4278
 2082TIP3   OH227736   2.023   2.980   1.858 -0.0364 -0.4395  0.2893
 2082TIP3    H127737   2.079   2.987   1.780  1.0011  0.3952  1.0948
 2082TIP3    H227738   2.057   3.046   1.918 -0.9560 -0.9386  1.3788
 2083TIP3   OH227739   3.110   3.220   2.115 -0.1336 -0.0699  0.6263
 2083TIP3    H127740   3.087   3.223   2.022  1.0106  0.0258  0.3399
 2083TIP3    H227741   3.125   3.311   2.139  2.1422 -0.3281  0.2370
 2084TIP3   OH227742   4.193   4.970  16.671 -0.1156  0.2235 -0.0115
 2084TIP3    H127743   4.197   4.895  16.730  0.2320  0.2524  0.0015
 2084TIP3    H227744   4.267   4.957  16.611  0.0367  0.6336  0.0880
 2085TIP3   OH227745   4.681   2.679  11.429  0.1920  0.3616  0.6479
 2085TIP3    H127746   4.710   2.613  11.493 -2.1961 -1.1502  0.2472
 2085TIP3    H227747   4.745   2.673  11.358 -1.2400 -3.2733 -0.4748
 2086TIP3   OH227748   4.761   2.800  12.490 -0.1725  0.2339  0.2348
 2086TIP3    H127749   4.790   2.743  12.561 -0.1351 -0.0426 -0.0020
 2086TIP3    H227750   4.839   2.814  12.436  0.4599  2.5400  1.6423
 2087TIP3   OH227751   6.766   3.756   4.552 -0.1596  0.1665  0.4883
 2087TIP3    H127752   6.829   3.741   4.622  0.7998  2.1321  0.0795
 2087TIP3    H227753   6.742   3.668   4.522 -0.6072 -0.6859  3.2541
 2088TIP3   OH227754   5.933   0.614  10.838 -0.7219 -0.1502  0.3070
 2088TIP3    H127755   5.891   0.626  10.753 -0.4741  1.5817  0.4102
 2088TIP3    H227756   5.959   0.522  10.839 -0.6072 -0.1525 -1.5515
 2089TIP3   OH227757   1.619   0.849  14.700  0.1174 -0.1837 -0.2612
 2089TIP3    H127758   1.680   0.775  14.698 -0.3204 -0.5675  0.4776
 2089TIP3    H227759   1.591   0.859  14.609  1.1935 -0.0775 -0.5977
 2090TIP3   OH227760   0.994   0.514   5.533  0.3252  0.2991  0.6266
 2090TIP3    H127761   0.947   0.455   5.473 -1.8232 -0.7866  3.2329
 2090TIP3    H227762   1.082   0.478   5.538 -0.4286 -1.6322  0.6904
 2091TIP3   OH227763   2.384   5.201   6.292 -0.3655 -0.5325 -0.4210
 2091TIP3    H127764   2.310   5.185   6.351  0.4949 -0.1255  0.8011
 2091TIP3    H227765   2.455   5.229   6.350  0.6756 -0.6716 -1.6029
 2092TIP3   OH227766   3.512   4.691   1.458 -0.5366 -0.0730  0.2171
 2092TIP3    H127767   3.556   4.693   1.373  0.5651 -1.0018  0.7501
 2092TIP3    H227768   3.581   4.667   1.520 -1.3383  0.5568  1.3708
 2093TIP3   OH227769   5.371   1.818   0.974 -0.4582  0.9216 -0.1639
 2093TIP3    H127770   5.283   1.849   0.992  0.5550  1.9775  3.3590
 2093TIP3    H227771   5.417   1.895   0.940 -0.2947  0.9741  0.1733
 2094TIP3   OH227772   0.624   0.792   4.102 -0.0960 -0.0491 -0.0888
 2094TIP3    H127773   0.705   0.836   4.076  0.7578 -1.1719  0.6449
 2094TIP3    H227774   0.555   0.848   4.067  0.9748 -0.6038 -3.3248
 2095TIP3   OH227775   6.373   2.021  15.108 -0.2104  0.6173 -0.1421
 2095TIP3    H127776   6.296   2.000  15.161 -0.4154  0.2828 -0.5641
 2095TIP3    H227777   6.420   2.088  15.158 -1.1546  1.3475 -0.2250
 2096TIP3   OH227778   1.643   0.835   4.543 -0.5272 -0.7291  0.2494
 2096TIP3    H127779   1.663   0.813   4.452  1.8504 -0.3724  0.6561
 2096TIP3    H227780   1.648   0.931   4.546 -1.0433 -0.7117  0.6710
 2097TIP3   OH227781   2.366   4.747  12.611  0.0622 -0.3895 -0.1812
 2097TIP3    H127782   2.280   4.777  12.582  1.1177  1.4306 -1.6299
 2097TIP3    H227783   2.397   4.689  12.541  0.3401 -0.3890 -0.0630
 2098TIP3   OH227784   1.923   3.752  11.457  0.2223  0.0396  0.3098
 2098TIP3    H127785   1.883   3.665  11.461 -2.7556  1.3397  0.1914
 2098TIP3    H227786   1.945   3.773  11.547 -1.3986  0.1776  0.6874
 2099TIP3   OH227787   5.366   4.969  10.927  0.4255  0.3703  0.1158
 2099TIP3    H127788   5.340   5.056  10.897  2.4183  0.5028 -1.3425
 2099TIP3    H227789   5.454   4.981  10.963  0.8105 -1.0654 -0.3096
 2100TIP3   OH227790   6.250   0.624   1.376 -0.3184  0.0055  0.4353
 2100TIP3    H127791   6.285   0.649   1.462 -1.9830  0.8348  0.8877
 2100TIP3    H227792   6.161   0.594   1.394 -0.9995  1.0336 -1.1040
 2101TIP3   OH227793   3.935   6.533   1.462  0.1338 -0.2010  0.2842
 2101TIP3    H127794   3.886   6.454   1.483  1.1206 -0.6284  1.0076
 2101TIP3    H227795   3.915   6.594   1.533 -0.4783  0.1315 -0.1741
 2102TIP3   OH227796   1.789   5.680   5.130  0.0227  0.3302 -0.2638
 2102TIP3    H127797   1.796   5.772   5.104  0.2685  0.9890  2.0270
 2102TIP3    H227798   1.855   5.669   5.198  0.2123 -1.6373 -0.7286
 2103TIP3   OH227799   0.152   3.894   2.980 -0.2870  0.1306  0.3584
 2103TIP3    H127800   0.217   3.938   3.035  0.2669  0.9760 -0.9608
 2103TIP3    H227801   0.145   3.806   3.017  0.8247  0.3699  1.1537
 2104TIP3   OH227802   4.443   4.134  16.132 -0.2287  0.8166 -0.8915
 2104TIP3    H127803   4.424   4.207  16.072  0.0300 -0.9215 -3.1532
 2104TIP3    H227804   4.521   4.093  16.095 -0.8524 -1.1017 -0.1078
 2105TIP3   OH227805   3.692   0.349   2.943 -0.1158  0.0152 -0.1653
 2105TIP3    H127806   3.645   0.323   2.864  0.2245 -0.0371 -0.3506
 2105TIP3    H227807   3.751   0.418   2.915 -1.1873  1.1572  0.3808
 2106TIP3   OH227808   4.519   4.303   0.243 -0.6558 -0.6103 -0.0137
 2106TIP3    H127809   4.518   4.326   0.151 -0.5251 -0.5031  0.0109
 2106TIP3    H227810   4.427   4.294   0.267 -0.7061 -0.1225 -0.0258
 2107TIP3   OH227811   2.242   4.477  12.810 -0.4647  0.4991  0.1804
 2107TIP3    H127812   2.321   4.424  12.798 -0.5778  0.7141 -1.7027
 2107TIP3    H227813   2.271   4.567  12.799 -1.1331  0.5221 -1.5108
 2108TIP3   OH227814   2.224   5.510  14.308 -0.1795  0.0476 -0.4198
 2108TIP3    H127815   2.204   5.416  14.306  0.2378 -0.0713  0.3766
 2108TIP3    H227816   2.208   5.536  14.399  0.9382  0.4549 -0.3188
 2109TIP3   OH227817   0.883   0.209  10.781  0.2991 -0.5377 -0.0577
 2109TIP3    H127818   0.970   0.250  10.778  0.9330 -1.8939 -0.3134
 2109TIP3    H227819   0.823   0.283  10.796  1.4398  0.4657 -0.3236
 2110TIP3   OH227820   2.697   0.694   0.678  0.2211 -0.1903 -0.0817
 2110TIP3    H127821   2.725   0.699   0.769 -0.3934  2.7936 -0.0199
 2110TIP3    H227822   2.777   0.670   0.630  1.7411  3.0827  0.6941
 2111TIP3   OH227823   3.711   3.859  12.488  0.6607 -0.3301 -0.6301
 2111TIP3    H127824   3.783   3.852  12.550 -0.2147  0.1216  0.4553
 2111TIP3    H227825   3.745   3.915  12.417  2.1158 -1.9666 -1.2457
 2112TIP3   OH227826   4.049   0.549  13.963 -0.0553 -0.2036 -0.5155
 2112TIP3    H127827   4.105   0.551  13.886 -0.6031 -0.3339 -0.9240
 2112TIP3    H227828   3.969   0.504  13.933 -0.6666  0.6181 -0.1438
 2113TIP3   OH227829   5.183   3.639   3.092 -0.0954  0.8145 -0.9340
 2113TIP3    H127830   5.211   3.663   3.004 -2.3684 -1.7535 -2.4582
 2113TIP3    H227831   5.123   3.566   3.078  0.6823 -0.6407  2.8755
 2114TIP3   OH227832   4.219   3.075  15.750  0.3532  0.3963 -0.4144
 2114TIP3    H127833   4.194   3.159  15.789  0.5146  0.6080 -0.7637
 2114TIP3    H227834   4.227   3.093  15.656 -0.0990 -0.1264 -0.5603
 2115TIP3   OH227835   6.495   3.750  10.466  0.0838 -0.2526 -0.8506
 2115TIP3    H127836   6.588   3.751  10.441  0.2648 -0.2555 -0.1663
 2115TIP3    H227837   6.457   3.823  10.417  1.1599  2.0497  1.6063
 2116TIP3   OH227838   0.453   6.720   3.553  0.3205 -0.1790 -0.1241
 2116TIP3    H127839   0.496   6.652   3.605 -0.3267  0.6030  1.4884
 2116TIP3    H227840   0.359   6.700   3.561  0.0169  1.7673  1.6920
 2117TIP3   OH227841   3.594   1.703  12.392 -0.2880  0.7422  0.6854
 2117TIP3    H127842   3.645   1.779  12.366  0.2647  0.7510  1.7517
 2117TIP3    H227843   3.503   1.733  12.393 -0.5029  0.4095 -2.4063
 2118TIP3   OH227844   5.833   1.183   1.355 -0.0085 -0.0227  0.0989
 2118TIP3    H127845   5.750   1.141   1.378 -2.2103  2.3875 -2.9431
 2118TIP3    H227846   5.829   1.270   1.396  0.1047  0.8260 -1.6268
 2119TIP3   OH227847   4.734   5.710  11.447  0.2877 -0.5429 -0.8886
 2119TIP3    H127848   4.754   5.802  11.463  1.2758 -1.0435  0.8403
 2119TIP3    H227849   4.645   5.711  11.411  0.6170  1.1385 -1.7118
 2120TIP3   OH227850   5.018   1.936  16.021  0.0981  0.8638  0.3899
 2120TIP3    H127851   5.014   1.966  16.112 -1.2065  1.7484  0.0560
 2120TIP3    H227852   4.995   2.013  15.969 -2.2294 -0.4185 -0.5478
 2121TIP3   OH227853   1.979   5.382  11.815  0.4424  0.0260  0.2016
 2121TIP3    H127854   1.951   5.311  11.872  1.5908  0.1294  0.9195
 2121TIP3    H227855   2.065   5.354  11.782  0.6239  0.8005  0.0029
 2122TIP3   OH227856   5.532   0.379  12.530 -0.1062 -0.4660 -0.1233
 2122TIP3    H127857   5.523   0.325  12.608 -1.5658  0.5176  0.4172
 2122TIP3    H227858   5.622   0.413  12.535  0.4747 -1.9757  0.0674
 2123TIP3   OH227859   5.071   6.442  16.431  0.1893  0.2071  0.7608
 2123TIP3    H127860   5.127   6.407  16.500 -2.4885 -2.5133  1.6884
 2123TIP3    H227861   5.008   6.498  16.477  0.5680  1.2259  0.0510
 2124TIP3   OH227862   1.687   2.140  11.448 -0.4411 -0.2444  0.5714
 2124TIP3    H127863   1.680   2.079  11.376  0.1778  2.4350 -1.8479
 2124TIP3    H227864   1.597   2.157  11.474 -0.7179 -0.5161 -0.2037
 2125TIP3   OH227865   3.290   1.148   2.789 -0.1374  0.5189  0.2521
 2125TIP3    H127866   3.204   1.134   2.828 -0.0454 -1.8437 -0.3519
 2125TIP3    H227867   3.278   1.134   2.696  0.9240  0.0611  0.1739
 2126TIP3   OH227868   2.094   5.851  13.274 -0.3825 -0.0482 -0.0856
 2126TIP3    H127869   2.133   5.864  13.360 -0.7631 -0.4205  0.1429
 2126TIP3    H227870   2.127   5.924  13.222  0.5450 -0.2985  0.1296
 2127TIP3   OH227871   0.737   6.227   0.180 -0.6904 -0.1069  0.4665
 2127TIP3    H127872   0.760   6.145   0.223 -0.6740 -0.5107 -0.3135
 2127TIP3    H227873   0.800   6.235   0.108  1.4947  2.2567  2.5437
 2128TIP3   OH227874   2.275   2.077  12.725  0.1878  0.3518  0.0605
 2128TIP3    H127875   2.242   2.167  12.718 -0.5159  0.1013  0.2018
 2128TIP3    H227876   2.297   2.068  12.818  0.7471  0.5473 -0.0505
 2129TIP3   OH227877   3.304   3.802   0.072  0.4407 -0.0770  0.2639
 2129TIP3    H127878   3.238   3.854   0.028  0.4627 -0.6994 -0.5261
 2129TIP3    H227879   3.320   3.847   0.155 -0.2220  0.6350  0.0054
 2130TIP3   OH227880   1.422   2.196  16.952  0.0652  0.5654 -0.1347
 2130TIP3    H127881   1.385   2.283  16.945  0.9972  1.0231  0.5232
 2130TIP3    H227882   1.500   2.198  16.897  0.7596  0.5197  0.8449
 2131TIP3   OH227883   2.594   3.671   6.406  0.2295  0.2605 -0.0400
 2131TIP3    H127884   2.537   3.663   6.482  0.0220  0.4177 -0.1790
 2131TIP3    H227885   2.534   3.684   6.332  0.4571  0.7561 -0.1391
 2132TIP3   OH227886   6.746   0.550  17.078 -0.1879  0.3820 -0.0911
 2132TIP3    H127887   6.743   0.642  17.103 -2.1923  0.4256 -0.4189
 2132TIP3    H227888   6.820   0.544  17.018  2.0462  1.0805  2.5141
 2133TIP3   OH227889   2.361   6.509  13.406 -0.0564 -0.2156 -0.5026
 2133TIP3    H127890   2.287   6.569  13.406  0.1032 -0.0188 -0.8050
 2133TIP3    H227891   2.392   6.510  13.497 -0.2965 -0.1461 -0.4194
 2134TIP3   OH227892   4.712   4.076  11.068 -0.1759 -0.0696 -0.0356
 2134TIP3    H127893   4.725   4.110  10.980 -0.3838  0.8178  0.2721
 2134TIP3    H227894   4.712   3.981  11.057 -0.4211  0.0362 -1.0231
 2135TIP3   OH227895   0.523   2.494   0.434  0.3125 -0.3894 -0.2227
 2135TIP3    H127896   0.587   2.427   0.410  0.4654  0.2080 -1.4559
 2135TIP3    H227897   0.538   2.508   0.528  1.0121 -1.2941 -0.1922
 2136TIP3   OH227898   0.379   1.719   5.776 -0.3391  0.1054 -0.2682
 2136TIP3    H127899   0.404   1.805   5.810  0.6953 -0.1814 -0.2855
 2136TIP3    H227900   0.462   1.674   5.760 -0.8744 -1.5853  1.4827
 2137TIP3   OH227901   5.363   2.898   2.469 -0.1186  0.0734  0.0349
 2137TIP3    H127902   5.313   2.870   2.392 -0.2055  1.1361 -0.3068
 2137TIP3    H227903   5.452   2.912   2.436  0.2008 -0.9398  0.4531
 2138TIP3   OH227904   2.912   5.330   6.812  0.3973 -0.0699 -0.1268
 2138TIP3    H127905   2.935   5.239   6.831 -1.4781 -0.6178 -0.3323
 2138TIP3    H227906   2.982   5.381   6.851  0.6806 -1.5476  1.3645
 2139TIP3   OH227907   2.351   2.411   6.026 -0.1759 -0.0926  0.4649
 2139TIP3    H127908   2.414   2.429   6.095  0.4084 -0.9959  0.1855
 2139TIP3    H227909   2.403   2.374   5.955 -1.0520 -1.1205  0.3385
 2140TIP3   OH227910   1.777   4.225   6.115 -0.0154 -0.3077  0.3996
 2140TIP3    H127911   1.843   4.186   6.058 -0.1459 -0.7599  0.5522
 2140TIP3    H227912   1.704   4.248   6.057 -0.3422 -1.1976  0.4469
 2141TIP3   OH227913   3.061   2.415  16.735  0.6698 -0.2771  0.0838
 2141TIP3    H127914   3.103   2.498  16.760 -1.5451  1.2852 -1.1745
 2141TIP3    H227915   3.126   2.370  16.681  1.4273  1.2303 -0.2786
 2142TIP3   OH227916   1.573   5.167  15.053 -0.6859  0.1679 -0.0706
 2142TIP3    H127917   1.498   5.109  15.068  0.0340 -0.5873  0.5826
 2142TIP3    H227918   1.639   5.111  15.013  0.3167  0.3464  1.3203
 2143TIP3   OH227919   1.665   6.078  14.620 -0.5386 -0.4377  0.1276
 2143TIP3    H127920   1.696   6.014  14.555 -3.1324  1.1054 -2.7914
 2143TIP3    H227921   1.701   6.161  14.591 -1.8417  0.2952  0.5712
 2144TIP3   OH227922   1.482   3.966   6.107  0.3590 -0.0132 -0.1955
 2144TIP3    H127923   1.550   3.913   6.148 -0.5914 -2.8389 -2.1813
 2144TIP3    H227924   1.420   3.983   6.178  2.7497  2.0780  1.4829
 2145TIP3   OH227925   5.887   3.176  15.959 -0.6699  0.2787 -0.0651
 2145TIP3    H127926   5.878   3.247  16.022  0.2092 -0.6778  1.1307
 2145TIP3    H227927   5.956   3.120  15.994  1.4589  0.9291 -2.9996
 2146TIP3   OH227928   1.546   5.792   3.307  0.0908 -0.4082 -0.4039
 2146TIP3    H127929   1.622   5.783   3.364  0.7874  0.5370 -1.1560
 2146TIP3    H227930   1.556   5.879   3.268 -3.1873  1.1637  2.0820
 2147TIP3   OH227931   6.038   5.201   6.224  0.3741  0.4053  0.2390
 2147TIP3    H127932   6.061   5.270   6.286  1.1540  1.6240 -1.3763
 2147TIP3    H227933   5.954   5.229   6.187 -0.2305 -0.4617  0.9324
 2148TIP3   OH227934   2.441   3.674  11.316 -0.1626  0.1789  0.0579
 2148TIP3    H127935   2.378   3.725  11.265  1.8482  1.5887 -1.1175
 2148TIP3    H227936   2.426   3.583  11.290 -1.2752  0.5605 -0.6619
 2149TIP3   OH227937   5.598   3.634   5.794  0.0521  0.7517  0.1933
 2149TIP3    H127938   5.503   3.638   5.807 -0.3106  0.9775 -2.2343
 2149TIP3    H227939   5.633   3.707   5.844 -0.9943  0.3347  1.5597
 2150TIP3   OH227940   4.034   4.144   5.096  0.1689 -0.1172  0.3565
 2150TIP3    H127941   4.059   4.073   5.037 -0.5051 -0.8219  0.9112
 2150TIP3    H227942   4.000   4.100   5.174 -0.0316  0.8156  0.8056
 2151TIP3   OH227943   6.719   1.519  13.157 -0.5051 -0.7447  0.2668
 2151TIP3    H127944   6.782   1.592  13.154 -1.4049 -0.0025 -1.2421
 2151TIP3    H227945   6.634   1.561  13.150 -1.0758 -1.8884  0.2356
 2152TIP3   OH227946   4.720   6.368  13.458  0.1637 -0.3462  0.1323
 2152TIP3    H127947   4.779   6.427  13.505 -3.4087  2.8032  0.8471
 2152TIP3    H227948   4.705   6.411  13.374  0.0574 -1.9036 -0.6697
 2153TIP3   OH227949   5.866   4.522  17.263  0.0315 -0.0978 -0.2174
 2153TIP3    H127950   5.877   4.617  17.267  2.5971 -0.4318  3.6378
 2153TIP3    H227951   5.779   4.506  17.298  0.1690  0.7675  0.5333
 2154TIP3   OH227952   5.608   6.066  11.240 -0.3611 -0.0663 -0.0220
 2154TIP3    H127953   5.632   6.052  11.149  0.2994 -0.8363  0.2681
 2154TIP3    H227954   5.584   6.159  11.244 -1.2020 -0.2169 -1.1519
 2155TIP3   OH227955   6.626   1.398  14.032  0.4160  0.0621  0.2768
 2155TIP3    H127956   6.603   1.488  14.007  1.5325  0.1196 -0.5831
 2155TIP3    H227957   6.554   1.370  14.089 -1.2533  0.5955 -1.5079
 2156TIP3   OH227958   1.183   6.755   2.983 -0.0302 -0.3703 -0.2949
 2156TIP3    H127959   1.088   6.742   2.986  0.2720 -2.7571  0.6340
 2156TIP3    H227960   1.217   6.674   2.943  1.8244 -0.9516  2.3318
 2157TIP3   OH227961   0.539   6.438  16.259 -0.0024  0.1834  0.6464
 2157TIP3    H127962   0.483   6.506  16.297  0.1809  1.4312 -1.2596
 2157TIP3    H227963   0.608   6.485  16.213 -1.0597 -1.1717 -2.5327
 2158TIP3   OH227964   3.368   3.064   5.731 -0.0660  0.2398 -0.4815
 2158TIP3    H127965   3.441   3.126   5.727  0.0524  0.2131  1.1465
 2158TIP3    H227966   3.410   2.979   5.744 -0.3755  0.2387  0.5659
 2159TIP3   OH227967   4.513   5.238  15.889  0.0298  0.2480 -0.0074
 2159TIP3    H127968   4.601   5.207  15.911  0.7825  0.6101 -2.3789
 2159TIP3    H227969   4.507   5.325  15.929  1.4901  1.0326 -1.4322
 2160TIP3   OH227970   4.686   4.756   1.508 -0.4126  0.3624  0.0049
 2160TIP3    H127971   4.645   4.721   1.587 -0.2971  0.0487 -0.0714
 2160TIP3    H227972   4.633   4.722   1.436 -0.6089  0.7727 -0.0471
 2161TIP3   OH227973   6.564   0.711  14.470 -0.2678  0.6009  0.1854
 2161TIP3    H127974   6.653   0.742  14.453  0.1716 -0.0582  1.2724
 2161TIP3    H227975   6.508   0.784  14.443  0.5454  0.6673 -1.3697
 2162TIP3   OH227976   6.035   5.042   5.008 -0.2171 -0.7104 -0.2014
 2162TIP3    H127977   5.972   5.079   4.946 -0.4791 -0.2213  0.3486
 2162TIP3    H227978   6.022   5.092   5.089  1.7249  0.2079 -0.4336
 2163TIP3   OH227979   0.090   3.583   1.726  0.5322 -0.0709 -0.4986
 2163TIP3    H127980   0.070   3.660   1.779  0.2133 -0.0690 -0.6218
 2163TIP3    H227981   0.006   3.538   1.715  0.6520 -0.2413 -0.7368
 2164TIP3   OH227982   3.409   1.283   1.142 -0.2511  0.0590  0.0815
 2164TIP3    H127983   3.327   1.248   1.107  0.7877 -1.4160 -0.9006
 2164TIP3    H227984   3.410   1.374   1.111 -2.8139  0.9661  2.4214
 2165TIP3   OH227985   0.033   5.002   1.251 -0.9273  0.1665  0.2633
 2165TIP3    H127986   0.056   4.909   1.254  0.0158  0.3721 -0.4099
 2165TIP3    H227987  -0.063   5.003   1.243 -1.1924 -0.7107  2.8442
 2166TIP3   OH227988   5.994   4.784  16.045 -0.1306  0.0421 -0.2003
 2166TIP3    H127989   5.967   4.775  16.136 -0.9407 -2.4072 -0.6334
 2166TIP3    H227990   6.089   4.779  16.047 -0.1434  0.1069  0.5268
 2167TIP3   OH227991   0.327   5.950  10.959  0.1660 -0.1579  0.0819
 2167TIP3    H127992   0.285   6.012  10.899  0.2028  0.0768  0.2947
 2167TIP3    H227993   0.408   5.924  10.914 -0.3359 -0.8192 -0.4489
 2168TIP3   OH227994   6.676   2.737   5.879  0.0950 -0.2391  0.2883
 2168TIP3    H127995   6.698   2.651   5.913  1.0402  1.1117  3.2240
 2168TIP3    H227996   6.727   2.798   5.931 -0.6243  2.1331 -1.6696
 2169TIP3   OH227997   1.248   6.326  13.024 -0.2007  0.3850  0.3847
 2169TIP3    H127998   1.167   6.366  13.057 -0.5631  0.9124 -1.1060
 2169TIP3    H227999   1.316   6.356  13.084 -1.1445 -0.3895  1.9098
 2170TIP3   OH228000   0.164   3.298   4.722  0.8053  0.2464 -0.2319
 2170TIP3    H128001   0.250   3.308   4.763  1.2537  0.7068 -1.2431
 2170TIP3    H228002   0.184   3.276   4.631 -0.1625 -1.7095  0.0022
 2171TIP3   OH228003   6.588   2.518   4.225 -0.0696  0.0929  0.2172
 2171TIP3    H128004   6.642   2.530   4.146 -0.7361 -0.1730 -0.2807
 2171TIP3    H228005   6.647   2.539   4.297  0.0222  2.1698 -0.4272
 2172TIP3   OH228006   5.698   6.611   4.439  0.0994  0.3750  0.2809
 2172TIP3    H128007   5.704   6.652   4.525  0.7620 -0.0643  0.4416
 2172TIP3    H228008   5.776   6.555   4.433  0.2746  0.7228 -0.7624
 2173TIP3   OH228009   0.458   0.419   5.376 -0.1220 -0.5188 -0.7847
 2173TIP3    H128010   0.426   0.330   5.361 -0.2275 -0.2348 -2.3041
 2173TIP3    H228011   0.414   0.447   5.457 -1.4651 -1.1878 -1.2730
 2174TIP3   OH228012   2.710   5.965   2.698 -0.5401 -0.3020  1.2412
 2174TIP3    H128013   2.740   5.879   2.727 -0.8908 -0.6504  0.5871
 2174TIP3    H228014   2.789   6.009   2.668 -0.5362 -0.8889  0.3479
 2175TIP3   OH228015   5.273   0.204   1.188  0.0563  0.7197  0.0321
 2175TIP3    H128016   5.293   0.192   1.281 -0.3478  1.1405  0.1750
 2175TIP3    H228017   5.253   0.116   1.156 -0.2185  0.6289  0.4468
 2176TIP3   OH228018   0.620   4.586   3.445 -0.2067 -0.0027  0.2955
 2176TIP3    H128019   0.667   4.521   3.394 -1.6019 -1.2928  0.6107
 2176TIP3    H228020   0.530   4.583   3.411 -0.2627  1.8199  0.2554
 2177TIP3   OH228021   0.120   4.163   5.029 -0.1093 -0.2876  0.1623
 2177TIP3    H128022   0.026   4.155   5.011  0.2150 -2.2711 -0.8106
 2177TIP3    H228023   0.151   4.222   4.960 -0.4736 -0.4637 -0.1609
 2178TIP3   OH228024   5.680   0.027  13.666 -0.7707 -0.1699  0.0697
 2178TIP3    H128025   5.642   0.072  13.741 -0.3851  1.3889 -0.6639
 2178TIP3    H228026   5.774   0.041  13.675 -0.8682  1.9989 -1.9415
 2179TIP3   OH228027   3.293   2.615   3.703  0.0830 -0.1871 -0.0200
 2179TIP3    H128028   3.372   2.573   3.737  1.5274  1.2030 -1.5531
 2179TIP3    H228029   3.278   2.572   3.619 -0.3031  0.1381 -0.1159
 2180TIP3   OH228030   6.641   1.077  13.776  0.4642  0.2476  0.4197
 2180TIP3    H128031   6.605   1.091  13.689  0.5920  0.7669  0.4462
 2180TIP3    H228032   6.736   1.080  13.764  0.4756  1.5206  0.7605
 2181TIP3   OH228033   5.782   4.468  14.529 -0.7556  0.5742  0.0570
 2181TIP3    H128034   5.750   4.403  14.467 -0.8711  0.2587  0.4448
 2181TIP3    H228035   5.875   4.448  14.539 -1.2683 -0.9683  1.9169
 2182TIP3   OH228036   3.230   6.341   2.025  0.5314 -0.4738  0.7083
 2182TIP3    H128037   3.178   6.418   2.002  0.7298  0.1177  2.1818
 2182TIP3    H228038   3.171   6.267   2.012 -0.4738  0.1326  1.7360
 2183TIP3   OH228039   1.977   4.203   6.287 -0.0978  0.3805 -0.5817
 2183TIP3    H128040   1.914   4.225   6.219  0.1068  0.2400 -0.8178
 2183TIP3    H228041   1.935   4.133   6.337 -0.0735  0.1927 -0.8215
 2184TIP3   OH228042   1.562   5.493  15.733  0.0384 -0.1184 -0.2278
 2184TIP3    H128043   1.477   5.450  15.738 -0.0283  0.1357  0.7893
 2184TIP3    H228044   1.591   5.476  15.643 -1.9966  1.5323 -1.2482
 2185TIP3   OH228045   6.466   2.660  14.358  0.2880  0.3314 -0.7076
 2185TIP3    H128046   6.502   2.738  14.401  1.0217 -0.7028  0.6304
 2185TIP3    H228047   6.480   2.675  14.265  1.6095  1.2471 -0.3834
 2186TIP3   OH228048   1.468   0.934  17.205  0.8064 -0.5466 -0.1561
 2186TIP3    H128049   1.435   1.014  17.163 -1.6270 -0.0906  2.4839
 2186TIP3    H228050   1.396   0.872  17.197  1.4692 -1.4268  0.6519
 2187TIP3   OH228051   2.669   3.812  15.350  0.2422 -0.0699  0.0270
 2187TIP3    H128052   2.744   3.771  15.391  0.3247  0.2183  0.1672
 2187TIP3    H228053   2.685   3.805  15.256 -0.1549 -1.1208  0.0313
 2188TIP3   OH228054   3.369   2.377   0.590 -0.0443  0.3540  0.2867
 2188TIP3    H128055   3.315   2.312   0.545 -0.1172  0.8186 -0.2991
 2188TIP3    H228056   3.364   2.352   0.682 -0.1905 -0.3864  0.0815
 2189TIP3   OH228057   4.297   3.865   4.091 -0.3285  0.2721  0.1169
 2189TIP3    H128058   4.230   3.906   4.036 -0.5053  0.0957  0.2041
 2189TIP3    H228059   4.282   3.771   4.082 -1.4826  0.2748  1.8869
 2190TIP3   OH228060   4.503   2.465  15.918  0.1220 -0.8144  0.5029
 2190TIP3    H128061   4.441   2.463  15.991  0.3237 -0.4325  0.6900
 2190TIP3    H228062   4.488   2.384  15.870 -0.1054 -1.0031  0.8971
 2191TIP3   OH228063   2.236   1.339   3.114  0.2388  0.6200 -0.2142
 2191TIP3    H128064   2.170   1.396   3.154  0.7355  0.7094  0.5076
 2191TIP3    H228065   2.296   1.318   3.187 -0.0240 -0.9433 -0.4399
 2192TIP3   OH228066   4.942   3.703   4.070 -0.4622 -0.0962 -0.1892
 2192TIP3    H128067   5.022   3.672   4.028 -0.4692  1.3300 -1.2602
 2192TIP3    H228068   4.944   3.663   4.157  1.5059  0.0661 -0.1397
 2193TIP3   OH228069   1.173   1.944  12.927 -0.5907  0.4244 -0.4444
 2193TIP3    H128070   1.106   1.895  12.974 -1.8166  1.1126 -1.4545
 2193TIP3    H228071   1.134   1.962  12.841  1.2682 -0.0520 -1.4235
 2194TIP3   OH228072   0.517   3.822   5.148 -0.3978  0.2908  0.0632
 2194TIP3    H128073   0.600   3.867   5.164 -0.5050  0.2868  0.6638
 2194TIP3    H228074   0.452   3.893   5.143 -0.4805  0.2428  0.4305
 2195TIP3   OH228075   5.736   6.789  14.264  0.6005  0.3716 -0.0865
 2195TIP3    H128076   5.747   6.700  14.297  3.0227  0.7107  0.1053
 2195TIP3    H228077   5.808   6.801  14.202 -1.4645  1.1869 -2.4059
 2196TIP3   OH228078   1.787   5.545   6.273  0.2123 -0.0193  0.2091
 2196TIP3    H128079   1.739   5.502   6.344 -0.9654 -0.4399 -0.8392
 2196TIP3    H228080   1.773   5.639   6.288 -0.5595 -0.1248  0.1794
 2197TIP3   OH228081   0.767   0.363   5.449  0.5963 -0.2045  0.0921
 2197TIP3    H128082   0.709   0.355   5.524 -0.5523 -0.0816 -0.7601
 2197TIP3    H228083   0.708   0.385   5.376  1.6330 -0.7447 -0.9167
 2198TIP3   OH228084   5.684   2.764  15.615 -0.3794  0.0307 -0.0934
 2198TIP3    H128085   5.761   2.768  15.558 -0.5102  0.7066 -0.2226
 2198TIP3    H228086   5.695   2.682  15.663 -0.6911 -0.9682 -1.6833
 2199TIP3   OH228087   3.083   1.152  16.911  0.4433  0.0435  0.7179
 2199TIP3    H128088   3.067   1.084  16.977 -2.5339 -0.5063 -0.4963
 2199TIP3    H228089   3.053   1.233  16.953 -1.1427 -0.2557  0.1932
 2200TIP3   OH228090   2.188   5.812  12.984  0.0575  0.2444  0.2711
 2200TIP3    H128091   2.114   5.857  12.942  0.4215 -0.4024 -1.0888
 2200TIP3    H228092   2.187   5.724  12.946  0.8928 -0.0986  1.0304
 2201TIP3   OH228093   1.718   2.382   0.241 -0.1983 -0.2360 -0.4659
 2201TIP3    H128094   1.759   2.399   0.157  1.4416 -0.4710  0.2589
 2201TIP3    H228095   1.713   2.467   0.283  2.6627 -0.6180  0.7904
 2202TIP3   OH228096   5.510   1.590   1.399  0.2427 -0.3142 -0.0132
 2202TIP3    H128097   5.554   1.508   1.423  1.2155  0.4955  1.0167
 2202TIP3    H228098   5.512   1.643   1.479 -1.7054  0.1475 -0.2382
 2203TIP3   OH228099   5.776   1.240  11.170 -0.1479 -0.0539 -0.0305
 2203TIP3    H128100   5.779   1.145  11.182 -0.5309 -0.4146 -2.5914
 2203TIP3    H228101   5.684   1.258  11.152  0.3897  0.3727 -2.5666
 2204TIP3   OH228102   5.287   1.122  12.942 -0.5020  0.2716  0.3259
 2204TIP3    H128103   5.354   1.150  12.879 -2.7475  0.4309 -2.0776
 2204TIP3    H228104   5.334   1.117  13.025  2.2335  1.5199 -1.0469
 2205TIP3   OH228105   5.238   3.691  14.898  0.7084  0.8444  0.8484
 2205TIP3    H128106   5.326   3.696  14.936  1.4660  2.9023 -1.0703
 2205TIP3    H228107   5.216   3.781  14.875 -1.3030  0.1652 -0.0511
 2206TIP3   OH228108   2.500   3.050  12.976  0.2035  0.3256  0.2904
 2206TIP3    H128109   2.422   3.001  13.003 -0.2664  1.1816  0.4884
 2206TIP3    H228110   2.531   3.003  12.898  0.4145 -0.9620  1.1251
 2207TIP3   OH228111   2.692   6.315  11.408 -0.3183 -0.1246 -0.0119
 2207TIP3    H128112   2.634   6.380  11.448 -0.7799  0.7640 -2.0770
 2207TIP3    H228113   2.665   6.232  11.447 -1.6835  0.5233  0.4629
 2208TIP3   OH228114   0.353   3.164   0.929 -0.0828  0.1657  0.5437
 2208TIP3    H128115   0.314   3.178   1.016  0.1114 -1.8486  0.9657
 2208TIP3    H228116   0.368   3.070   0.924  0.8886  0.4005 -1.2770
 2209TIP3   OH228117   3.063   1.394   2.001 -0.0012  0.6997 -0.0080
 2209TIP3    H128118   3.001   1.458   2.036 -0.9502 -1.1152  1.7763
 2209TIP3    H228119   3.143   1.406   2.053 -0.9543 -1.0658  1.9664
 2210TIP3   OH228120   0.317   4.590   3.964 -0.2307  0.7528 -0.0096
 2210TIP3    H128121   0.326   4.574   3.870  0.8681  2.7431 -0.2739
 2210TIP3    H228122   0.282   4.679   3.970 -1.8145  0.0553  1.4507
 2211TIP3   OH228123   5.181   5.039  11.464  0.3409  0.5185  0.3137
 2211TIP3    H128124   5.089   5.038  11.490  0.0229  1.8063 -0.7066
 2211TIP3    H228125   5.181   4.998  11.377  0.6083  1.2147 -0.0222
 2212TIP3   OH228126   5.352   1.606  10.772 -0.1010 -0.4594  0.2619
 2212TIP3    H128127   5.398   1.689  10.760  1.0243 -1.0662  0.3281
 2212TIP3    H228128   5.345   1.571  10.683 -0.8877 -0.1316  0.1935
 2213TIP3   OH228129   4.638   6.736   4.182 -0.0576  0.9398  0.5116
 2213TIP3    H128130   4.578   6.785   4.125  2.5354  2.4796 -1.0251
 2213TIP3    H228131   4.592   6.655   4.202 -1.1410  0.3868 -3.7367
 2214TIP3   OH228132   0.130   3.396  13.819  0.1943  0.3826  0.3079
 2214TIP3    H128133   0.176   3.338  13.878 -0.3473  1.3479  1.7076
 2214TIP3    H228134   0.052   3.423  13.867 -0.9999  0.0643 -1.3950
 2215TIP3   OH228135   5.821   0.654  16.958 -0.0364 -0.0935 -0.1553
 2215TIP3    H128136   5.803   0.576  16.906  0.1072 -0.6699  0.6518
 2215TIP3    H228137   5.737   0.674  17.000  0.0787 -0.1696  0.1110
 2216TIP3   OH228138   2.113   0.330   5.136  0.1479  0.0187  0.3603
 2216TIP3    H128139   2.174   0.261   5.110  1.0160  0.9724 -0.2097
 2216TIP3    H228140   2.033   0.285   5.159  1.4901 -1.3953  2.3840
 2217TIP3   OH228141   1.863   2.170  11.724  0.0504 -0.3418 -0.2356
 2217TIP3    H128142   1.789   2.178  11.663 -0.5833 -0.9002  0.4564
 2217TIP3    H228143   1.855   2.245  11.782  2.1024  1.6093 -2.3677
 2218TIP3   OH228144   5.321   0.664   3.388 -0.0005  0.3837 -0.1132
 2218TIP3    H128145   5.250   0.643   3.449  0.0238  0.2344 -0.1382
 2218TIP3    H228146   5.397   0.616   3.421 -0.4152 -1.0941 -1.2485
 2219TIP3   OH228147   1.223   6.147  13.341 -0.6737 -0.0194 -0.1509
 2219TIP3    H128148   1.158   6.090  13.383 -0.4331  0.2064  0.5402
 2219TIP3    H228149   1.212   6.232  13.385 -1.0576  0.4825 -1.2029
 2220TIP3   OH228150   4.216   4.781  13.494 -0.4140 -0.1802 -0.2696
 2220TIP3    H128151   4.266   4.707  13.462 -1.6407 -1.3241  0.3959
 2220TIP3    H228152   4.228   4.779  13.589 -0.5536  0.3961 -0.2347
 2221TIP3   OH228153   6.063   0.140   4.926 -0.2302  0.0036 -0.5602
 2221TIP3    H128154   6.094   0.200   4.858 -2.2596  1.9392  0.1417
 2221TIP3    H228155   6.046   0.197   5.002 -0.9201 -1.6578  0.5617
 2222TIP3   OH228156   3.273   5.978   3.203  0.1849  0.2618  0.3305
 2222TIP3    H128157   3.227   5.896   3.186  0.0422  0.3169  0.4445
 2222TIP3    H228158   3.204   6.040   3.222  0.2431  0.6546 -0.7472
 2223TIP3   OH228159   3.613   2.507   1.586  0.1993  0.0439 -0.4090
 2223TIP3    H128160   3.635   2.567   1.514  1.6096 -1.6111 -1.3735
 2223TIP3    H228161   3.554   2.559   1.642 -1.5059  1.1556 -3.0910
 2224TIP3   OH228162   2.075   2.367   3.048 -0.2395 -0.1324  0.0898
 2224TIP3    H128163   2.095   2.449   3.003  1.4669 -0.3443  0.4235
 2224TIP3    H228164   2.123   2.301   2.999 -1.7975 -0.9754 -0.3165
 2225TIP3   OH228165   3.802   4.349  11.366 -0.6289  0.4406  0.2803
 2225TIP3    H128166   3.843   4.401  11.296  0.0076 -0.4070  0.0217
 2225TIP3    H228167   3.752   4.282  11.320  0.4860 -0.6578  0.6216
 2226TIP3   OH228168   5.024   5.956   3.673  0.2492  0.0644  0.5258
 2226TIP3    H128169   5.085   5.952   3.747 -0.3171 -0.8185  0.9568
 2226TIP3    H228170   5.065   6.016   3.611  1.7876 -0.8573  0.6138
 2227TIP3   OH228171   1.794   3.395  11.153  0.3259 -0.1089 -0.6595
 2227TIP3    H128172   1.780   3.457  11.225  0.6477  0.3193 -0.9616
 2227TIP3    H228173   1.886   3.406  11.130  0.1451 -0.0176 -1.3419
 2228TIP3   OH228174   4.089   5.707  16.066 -0.0337  0.3015 -0.3671
 2228TIP3    H128175   4.067   5.740  15.979 -1.2602  1.3076  0.3136
 2228TIP3    H228176   4.172   5.749  16.087 -0.4879  1.2224 -0.4228
 2229TIP3   OH228177   5.431   5.474   2.960 -0.0806 -0.0905  0.0810
 2229TIP3    H128178   5.463   5.394   2.918 -0.5192 -0.3805  0.2984
 2229TIP3    H228179   5.337   5.475   2.940  0.1147  0.9254 -0.8353
 2230TIP3   OH228180   1.593   1.907  14.523  0.0712 -0.1929 -0.6344
 2230TIP3    H128181   1.680   1.867  14.514  0.3012  0.0914  0.2903
 2230TIP3    H228182   1.555   1.864  14.599 -0.4886 -0.1036 -0.8624
 2231TIP3   OH228183   2.882   5.737   5.414  0.0035 -0.0658 -0.3425
 2231TIP3    H128184   2.870   5.708   5.323 -0.9700 -2.0275  0.3859
 2231TIP3    H228185   2.938   5.670   5.453  0.7554  0.9902  0.4115
 2232TIP3   OH228186   5.071   0.612  12.118 -0.0481 -0.0410 -0.7934
 2232TIP3    H128187   5.165   0.600  12.103  0.4730  1.7626  0.7134
 2232TIP3    H228188   5.045   0.678  12.053 -0.3947 -0.9231 -1.5558
 2233TIP3   OH228189   6.770   2.387   3.388 -0.0063 -0.8379  0.4135
 2233TIP3    H128190   6.709   2.347   3.450  0.6923 -1.9425  0.3984
 2233TIP3    H228191   6.744   2.479   3.385 -0.5133 -0.9227  1.7865
 2234TIP3   OH228192   5.514   4.692  13.993 -0.0520 -0.6901 -0.1400
 2234TIP3    H128193   5.526   4.787  13.991 -2.3397 -0.3981 -1.6900
 2234TIP3    H228194   5.492   4.669  13.902 -0.3736 -2.5823  0.4025
 2235TIP3   OH228195   6.214   5.971   6.146  0.2003 -0.2768 -0.0701
 2235TIP3    H128196   6.172   5.987   6.231 -0.3373  0.0413 -0.3951
 2235TIP3    H228197   6.189   5.882   6.123 -0.3716 -0.0563 -0.3051
 2236TIP3   OH228198   1.193   1.398  11.232 -0.1115  0.4487 -0.2117
 2236TIP3    H128199   1.197   1.434  11.321 -0.7364  0.7127 -0.2886
 2236TIP3    H228200   1.277   1.354  11.220 -0.3683 -0.3531  0.8471
 2237TIP3   OH228201   0.667   0.750  13.823  0.4230  0.3725  0.6923
 2237TIP3    H128202   0.645   0.736  13.915  0.7035 -0.2090  0.6744
 2237TIP3    H228203   0.588   0.726  13.775  0.3454  0.4751  0.7690
 2238TIP3   OH228204   0.048   6.330   6.179 -0.2505  0.1786  0.3057
 2238TIP3    H128205   0.117   6.287   6.129 -0.5135  0.5090 -0.3483
 2238TIP3    H228206   0.091   6.356   6.261  0.4860  0.6582 -0.2225
 2239TIP3   OH228207   0.693   2.433   3.710  0.2978  0.1669  0.0177
 2239TIP3    H128208   0.774   2.401   3.671 -0.6306  0.2655 -2.0655
 2239TIP3    H228209   0.714   2.445   3.803  2.6695  0.2717 -0.4975
 2240TIP3   OH228210   6.192   3.506  13.681 -0.5260 -0.3256  0.0874
 2240TIP3    H128211   6.135   3.578  13.655  0.9794  1.1124  0.6760
 2240TIP3    H228212   6.219   3.465  13.599  0.3086  1.1414 -0.3928
 2241TIP3   OH228213   1.701   1.243   0.951 -0.0564  0.1897  0.7318
 2241TIP3    H128214   1.629   1.306   0.941  1.5804  2.0095  0.2821
 2241TIP3    H228215   1.697   1.219   1.044 -0.2394  1.5378  1.0958
 2242TIP3   OH228216   5.027   5.797   5.079 -0.2638  0.3226 -0.4135
 2242TIP3    H128217   5.032   5.852   5.002 -0.5436  0.0793 -0.6071
 2242TIP3    H228218   5.057   5.711   5.049  0.6068  0.4685 -0.0100
 2243TIP3   OH228219   6.768   5.299  11.168  0.0334  0.2051 -0.2915
 2243TIP3    H128220   6.809   5.367  11.113 -0.3911  0.6334 -0.0868
 2243TIP3    H228221   6.785   5.217  11.122  1.2233  0.3616 -0.1448
 2244TIP3   OH228222   5.022   3.538  13.174 -0.4908  0.0901 -0.4787
 2244TIP3    H128223   5.043   3.555  13.082  0.8903  2.8278  0.2775
 2244TIP3    H228224   4.962   3.609  13.198  0.9700  0.7520  1.3119
 2245TIP3   OH228225   0.157   4.953  15.259 -0.2476 -0.5418  0.3919
 2245TIP3    H128226   0.125   5.043  15.257  0.4490 -0.3117 -0.9296
 2245TIP3    H228227   0.089   4.902  15.215 -0.7169 -0.6979  1.2811
 2246TIP3   OH228228   4.130   3.897   3.230 -0.2779 -0.1142  0.7916
 2246TIP3    H128229   4.220   3.887   3.199 -0.1841  1.0772  0.6733
 2246TIP3    H228230   4.078   3.846   3.168 -0.1889  2.8799 -1.8653
 2247TIP3   OH228231   3.141   5.880  15.913 -0.7736  0.2929 -0.5835
 2247TIP3    H128232   3.215   5.828  15.881 -0.4641  1.7676 -2.3418
 2247TIP3    H228233   3.156   5.887  16.007 -0.1849 -1.7894 -0.5015
 2248TIP3   OH228234   1.340   6.668   6.120  0.0315  0.5266 -0.1718
 2248TIP3    H128235   1.357   6.615   6.042 -0.3449  0.2887 -0.0934
 2248TIP3    H228236   1.374   6.755   6.098 -0.8223  0.6839 -0.9202
 2249TIP3   OH228237   3.906   2.154   1.349 -0.8222 -0.8409 -0.8705
 2249TIP3    H128238   3.854   2.233   1.339 -0.9139 -0.6642  0.9198
 2249TIP3    H228239   3.968   2.156   1.276 -1.6535  0.2280 -1.5486
 2250TIP3   OH228240   4.616   4.280  12.136 -0.1235 -0.4645  0.1926
 2250TIP3    H128241   4.656   4.329  12.064 -0.8451  0.9181  0.7153
 2250TIP3    H228242   4.668   4.302  12.213  1.1319 -2.5572 -0.0226
 2251TIP3   OH228243   1.779   3.261   1.053  0.2545 -0.0221  0.2859
 2251TIP3    H128244   1.817   3.274   0.966  1.5736  0.7042  0.9507
 2251TIP3    H228245   1.747   3.348   1.078 -0.2193 -0.2542  0.4829
 2252TIP3   OH228246   3.167   4.083   1.156 -0.0174 -0.0718  0.0285
 2252TIP3    H128247   3.236   4.037   1.204  0.1318 -1.0799 -1.1244
 2252TIP3    H228248   3.214   4.145   1.101 -0.1510  0.5836  0.6413
 2253TIP3   OH228249   3.939   2.794  10.840  0.0567  0.5237  0.0538
 2253TIP3    H128250   3.920   2.854  10.768  0.8001 -1.2706 -1.6844
 2253TIP3    H228251   3.916   2.707  10.806  1.7638 -0.5174  1.4516
 2254TIP3   OH228252   5.601   6.679  17.227  0.6787 -0.5311  0.2876
 2254TIP3    H128253   5.630   6.654  17.315 -2.9837  1.7568  2.2693
 2254TIP3    H228254   5.607   6.774  17.226 -0.3667 -0.4655 -1.5994
 2255TIP3   OH228255   1.988   0.421   1.090 -0.3666 -0.8507 -0.1408
 2255TIP3    H128256   1.931   0.440   1.164 -1.4435 -2.5987 -0.4982
 2255TIP3    H228257   2.056   0.488   1.094 -1.8212  0.5847  0.9471
 2256TIP3   OH228258   0.231   1.130  14.018  0.0425  0.5894  0.2141
 2256TIP3    H128259   0.199   1.205  14.070  0.5419 -0.3969  1.9831
 2256TIP3    H228260   0.318   1.156  13.989 -0.0940  0.9965  0.1619
 2257TIP3   OH228261   0.464   4.801  11.078  0.1080  0.6006 -0.7023
 2257TIP3    H128262   0.507   4.845  11.004  1.4341  0.9683  0.2827
 2257TIP3    H228263   0.493   4.710  11.072 -1.3233  0.2026 -1.7662
 2258TIP3   OH228264   6.579   4.259  14.503  0.1269 -0.0720 -0.2466
 2258TIP3    H128265   6.626   4.179  14.479 -0.8472 -0.3919 -1.1170
 2258TIP3    H228266   6.577   4.258  14.599 -0.6323 -1.5504 -0.2687
 2259TIP3   OH228267   1.828   0.866  16.959  0.0488 -0.4993 -0.2445
 2259TIP3    H128268   1.746   0.913  16.944 -0.2957  0.3904  3.7175
 2259TIP3    H228269   1.800   0.780  16.990  0.5991 -0.3951  0.5552
 2260TIP3   OH228270   0.712   1.005  13.919  0.2595  0.3297  0.0635
 2260TIP3    H128271   0.742   0.966  14.001 -1.6647  0.4173  0.8251
 2260TIP3    H228272   0.704   0.930  13.859 -0.2209  0.0097  0.5297
 2261TIP3   OH228273   3.722   0.504   1.958  0.1771 -0.2761  0.0121
 2261TIP3    H128274   3.629   0.524   1.963 -0.2839 -1.9898 -1.0058
 2261TIP3    H228275   3.765   0.588   1.947 -1.4185  0.3738 -1.3903
 2262TIP3   OH228276   0.821   4.421  12.038 -0.5489  0.2262  0.3128
 2262TIP3    H128277   0.884   4.429  11.967  1.0858 -1.1387  1.5645
 2262TIP3    H228278   0.789   4.331  12.030  0.8118 -0.4596  2.2100
 2263TIP3   OH228279   3.863   5.681   1.775 -0.4694 -0.2357 -0.0588
 2263TIP3    H128280   3.900   5.698   1.861  0.8463 -0.0078 -0.6526
 2263TIP3    H228281   3.924   5.620   1.734 -1.0597 -0.3104 -0.8467
 2264TIP3   OH228282   1.972   0.925  12.186 -0.3202  0.1910 -0.2884
 2264TIP3    H128283   1.887   0.909  12.229  0.2302  0.8315  1.0765
 2264TIP3    H228284   2.035   0.924  12.258  0.7177  0.5980 -1.1912
 2265TIP3   OH228285   3.259   3.519   4.827 -0.1424 -0.1611 -0.0432
 2265TIP3    H128286   3.176   3.471   4.820 -0.2399 -0.3005  1.7642
 2265TIP3    H228287   3.249   3.572   4.906  1.0979  0.6233 -0.4080
 2266TIP3   OH228288   6.045   5.661  15.805  0.0102  0.0993 -0.0297
 2266TIP3    H128289   5.959   5.680  15.844 -0.3641 -2.6876  0.6056
 2266TIP3    H228290   6.025   5.618  15.723  0.8053 -0.9290  0.3115
 2267TIP3   OH228291   2.083   4.724   0.815 -0.3458  0.0246  0.3711
 2267TIP3    H128292   2.057   4.816   0.817 -0.2114  0.0640  0.2862
 2267TIP3    H228293   2.094   4.705   0.722  1.4686  0.4294  0.4963
 2268TIP3   OH228294   5.492   0.785  12.455 -0.3197  0.8212  0.2002
 2268TIP3    H128295   5.559   0.732  12.412 -1.6360  0.5444 -1.5892
 2268TIP3    H228296   5.436   0.721  12.499  0.0693  0.9914  0.9532
 2269TIP3   OH228297   4.462   0.652  10.849 -0.0227 -0.5068 -0.1510
 2269TIP3    H128298   4.423   0.739  10.859  0.0178 -0.4251 -0.7034
 2269TIP3    H228299   4.534   0.665  10.788  0.7218 -0.7054  0.6761
 2270TIP3   OH228300   2.556   0.238  14.099 -0.2552 -0.2392 -0.3426
 2270TIP3    H128301   2.484   0.294  14.128 -0.4687 -0.6508 -0.0574
 2270TIP3    H228302   2.513   0.170  14.047 -0.2414 -1.2523  0.9344
 2271TIP3   OH228303   1.498   3.043  14.822  0.1738  0.5731 -0.4049
 2271TIP3    H128304   1.432   3.020  14.887  1.9395 -2.4215  0.3809
 2271TIP3    H228305   1.557   3.102  14.868 -0.1222  0.6589 -0.1322
 2272TIP3   OH228306   5.312   1.109  13.307  0.2735 -0.4447 -0.3979
 2272TIP3    H128307   5.292   1.145  13.394  1.2187  0.0692 -0.3916
 2272TIP3    H228308   5.269   1.024  13.307 -2.1633  0.7538 -0.4901
 2273TIP3   OH228309   0.499   5.462   0.692  0.2116  0.4572 -0.0324
 2273TIP3    H128310   0.424   5.419   0.732  0.2453  0.6076  0.1943
 2273TIP3    H228311   0.535   5.517   0.762  1.0193 -0.2351  0.1064
 2274TIP3   OH228312   3.118   1.991   0.021  0.4739  0.5275 -0.1599
 2274TIP3    H128313   3.033   2.031   0.006 -0.5163 -0.7477  1.8269
 2274TIP3    H228314   3.126   1.923  -0.046  0.1675  0.9851 -0.6624
 2275TIP3   OH228315   4.051   6.402   1.743  0.4713  0.0011 -0.3215
 2275TIP3    H128316   4.002   6.464   1.689  1.2832  0.0303 -1.0223
 2275TIP3    H228317   3.995   6.389   1.821 -0.0195  1.0630 -0.4905
 2276TIP3   OH228318   2.429   4.852  15.603 -0.6552  0.1599 -0.2918
 2276TIP3    H128319   2.512   4.898  15.593  0.2462 -1.1635  0.9332
 2276TIP3    H228320   2.418   4.803  15.521  0.1146 -0.2128 -0.1734
 2277TIP3   OH228321   0.361   6.117   1.769  0.4491 -0.2900 -0.2021
 2277TIP3    H128322   0.386   6.150   1.683  0.3860  0.4273  0.0537
 2277TIP3    H228323   0.420   6.161   1.830  1.8168 -2.2761 -0.0490
 2278TIP3   OH228324   2.811   6.563  14.187  0.3431 -0.4371 -0.0569
 2278TIP3    H128325   2.747   6.509  14.140 -1.9619  0.7484  1.6663
 2278TIP3    H228326   2.852   6.616  14.118 -0.8380 -0.8573 -1.1052
 2279TIP3   OH228327   2.318   2.599   1.425 -0.0596 -0.3405 -0.4942
 2279TIP3    H128328   2.270   2.632   1.349  0.6919  0.3437 -0.6777
 2279TIP3    H228329   2.258   2.536   1.466  0.2026 -1.9710 -2.5888
 2280TIP3   OH228330   2.938   2.219  11.948 -0.2363 -0.0850  0.3248
 2280TIP3    H128331   2.980   2.204  12.033  0.0982  0.1542  0.2006
 2280TIP3    H228332   2.874   2.288  11.964  0.3501  0.4877  0.2166
 2281TIP3   OH228333   5.328   1.412  12.656 -0.4173 -0.5616  0.6087
 2281TIP3    H128334   5.350   1.344  12.593  0.5071  0.5938 -0.3365
 2281TIP3    H228335   5.232   1.413  12.658 -0.4491 -0.9650 -0.3738
 2282TIP3   OH228336   4.259   5.729   4.702  0.0116  0.1649  0.1140
 2282TIP3    H128337   4.201   5.748   4.775  0.8572 -1.0278  1.1012
 2282TIP3    H228338   4.330   5.677   4.739  0.4276 -0.5133 -1.5557
 2283TIP3   OH228339   6.181   4.066   1.331  0.3902 -0.5272  0.3730
 2283TIP3    H128340   6.090   4.064   1.358  0.7135 -0.2280  1.5195
 2283TIP3    H228341   6.182   4.125   1.255 -0.1564  0.5832  1.2146
 2284TIP3   OH228342   0.417   5.299  13.010  0.1278 -0.0563 -0.2627
 2284TIP3    H128343   0.377   5.279  12.925  2.6769 -1.1134 -1.2740
 2284TIP3    H228344   0.452   5.388  13.000 -0.8977  0.4022  0.2046
 2285TIP3   OH228345   1.385   5.940   4.324  0.0367 -0.0279  0.1450
 2285TIP3    H128346   1.372   5.872   4.258 -2.4407 -0.2406  0.7895
 2285TIP3    H228347   1.385   6.022   4.275  2.2846 -0.4112 -0.5499
 2286TIP3   OH228348   0.659   4.957   0.807  0.2988  0.5988  0.3149
 2286TIP3    H128349   0.613   5.015   0.867 -3.6067 -1.0359 -0.9201
 2286TIP3    H228350   0.721   5.013   0.761  1.2364  2.4415  3.6979
 2287TIP3   OH228351   3.565   1.911  13.882 -0.2151  0.4925  0.2607
 2287TIP3    H128352   3.647   1.904  13.931 -0.8308  0.2519  1.2832
 2287TIP3    H228353   3.573   1.845  13.813  0.0406 -0.2560  0.9886
 2288TIP3   OH228354   6.602   2.006  14.191 -0.3527 -0.3501  0.1970
 2288TIP3    H128355   6.577   1.987  14.100 -1.8022  2.2714 -0.0008
 2288TIP3    H228356   6.543   1.952  14.244 -0.6060 -0.6693 -0.4053
 2289TIP3   OH228357   6.454   1.359   5.295 -0.0409  0.8915 -0.1680
 2289TIP3    H128358   6.384   1.307   5.334  2.1512 -1.3881  0.9555
 2289TIP3    H228359   6.473   1.316   5.212  2.7710 -1.1095  1.4286
 2290TIP3   OH228360   0.977   6.291  12.676  0.4302  0.0526 -0.5475
 2290TIP3    H128361   1.048   6.246  12.722  0.8900  1.7442  0.4221
 2290TIP3    H228362   0.911   6.308  12.743  0.7429  1.7942 -0.6628
 2291TIP3   OH228363   2.304   2.699  14.318  0.0391  0.0766  0.0374
 2291TIP3    H128364   2.285   2.684  14.411 -1.1396  0.0988 -0.1970
 2291TIP3    H228365   2.220   2.724  14.280  0.0358 -2.1289 -1.5023
 2292TIP3   OH228366   1.942   5.260   4.857 -0.0754 -0.1304  0.1591
 2292TIP3    H128367   1.882   5.212   4.914  1.1995 -1.7148  0.1846
 2292TIP3    H228368   1.969   5.197   4.791  0.1930  1.0700 -0.9089
 2293TIP3   OH228369   0.755   3.141  14.193 -0.0210 -0.3552  0.6322
 2293TIP3    H128370   0.661   3.147  14.178 -0.5003 -1.2062  3.0862
 2293TIP3    H228371   0.781   3.229  14.220  0.1511  0.1967 -1.2353
 2294TIP3   OH228372   6.683   0.915  13.992 -0.3423  0.3408 -0.7101
 2294TIP3    H128373   6.751   0.866  13.944  0.7283  0.0707  1.0009
 2294TIP3    H228374   6.656   0.984  13.932  2.1446  1.0318 -1.0975
 2295TIP3   OH228375   4.981   3.918   2.619  0.2234 -0.2369  0.0523
 2295TIP3    H128376   5.062   3.886   2.580  1.4708  1.0930  1.4950
 2295TIP3    H228377   4.969   3.865   2.697  1.2966  1.5000  1.4313
 2296TIP3   OH228378   4.768   5.322   0.964  0.0273 -1.2975 -0.3607
 2296TIP3    H128379   4.763   5.386   0.892 -1.0987 -0.1901  0.6576
 2296TIP3    H228380   4.778   5.238   0.921  0.5943 -0.5260 -1.7770
 2297TIP3   OH228381   0.107   1.528   1.426 -0.0269  0.0245  0.1495
 2297TIP3    H128382   0.176   1.472   1.391  1.1084  0.7139  1.2507
 2297TIP3    H228383   0.030   1.472   1.429  0.9297 -1.2843  0.6015
 2298TIP3   OH228384   3.082   3.614   6.330  0.0210  0.1351 -0.0653
 2298TIP3    H128385   2.996   3.655   6.341 -0.1045 -0.1517  0.0448
 2298TIP3    H228386   3.096   3.566   6.412  1.5255  2.4072  1.0776
 2299TIP3   OH228387   4.397   4.334   2.533  0.2317 -0.4591 -0.5488
 2299TIP3    H128388   4.491   4.325   2.523  0.1918 -1.0096 -0.4604
 2299TIP3    H228389   4.384   4.358   2.625  0.4155  1.7265 -1.0815
 2300TIP3   OH228390   1.311   1.334   1.463 -0.0925  0.3451  0.2849
 2300TIP3    H128391   1.302   1.259   1.522  2.8540  0.6015  1.1378
 2300TIP3    H228392   1.345   1.404   1.519  3.1631  0.4783 -1.7649
 2301TIP3   OH228393   4.950   1.256  13.651  0.4570  0.4188  0.2743
 2301TIP3    H128394   4.904   1.297  13.578  1.2560 -0.6834 -0.8710
 2301TIP3    H228395   4.938   1.317  13.724 -0.2315  1.6052 -0.8051
 2302TIP3   OH228396   0.140   0.831  10.577  0.4310 -0.4291  0.3481
 2302TIP3    H128397   0.129   0.758  10.515  0.0338 -0.6707  0.6934
 2302TIP3    H228398   0.053   0.840  10.617  0.8827 -0.7949  1.4366
 2303TIP3   OH228399   1.854   4.222   6.660  0.2261 -0.2181  0.2662
 2303TIP3    H128400   1.802   4.166   6.718  1.8828 -1.1500  0.8920
 2303TIP3    H228401   1.861   4.173   6.578  0.6251 -0.3839  0.3954
 2304TIP3   OH228402   5.864   1.250  15.594  0.1577 -0.4258 -0.1105
 2304TIP3    H128403   5.891   1.184  15.658  1.3155 -0.4367 -0.5861
 2304TIP3    H228404   5.770   1.240  15.587  0.3115 -1.9842 -0.1281
 2305TIP3   OH228405   0.506   2.882  11.474  0.6833 -0.4258 -0.8930
 2305TIP3    H128406   0.591   2.864  11.433  1.1773  0.5692 -0.3133
 2305TIP3    H228407   0.515   2.848  11.563  0.9864  1.0055 -0.3691
 2306TIP3   OH228408   1.080   0.977   2.464  0.2156  0.0984 -0.3194
 2306TIP3    H128409   1.075   0.907   2.529 -1.5362  0.8146  0.3446
 2306TIP3    H228410   1.004   0.963   2.407  0.4837  0.7882 -0.8604
 2307TIP3   OH228411   4.085   1.194  16.951  0.1059 -0.5076  0.1573
 2307TIP3    H128412   4.174   1.158  16.948  0.3569  0.1403 -0.6996
 2307TIP3    H228413   4.060   1.202  16.858  1.1269  4.0400  0.1330
 2308TIP3   OH228414   5.517   6.723  11.884  1.0352  0.2988  0.0914
 2308TIP3    H128415   5.606   6.738  11.853  1.4839  1.7819  1.9913
 2308TIP3    H228416   5.461   6.767  11.820  1.6406 -0.8708 -1.2482
 2309TIP3   OH228417   0.696   0.884  16.856 -0.0419 -0.6452  0.8055
 2309TIP3    H128418   0.692   0.960  16.798  0.5746 -0.9409  0.3632
 2309TIP3    H228419   0.626   0.827  16.826  0.0979 -0.6714  0.5228
 2310TIP3   OH228420   3.483   4.371   1.629 -0.5685 -0.3460 -0.6096
 2310TIP3    H128421   3.454   4.336   1.713  0.3932  1.3324  0.4472
 2310TIP3    H228422   3.577   4.386   1.641 -0.6245  0.8854 -1.6368
 2311TIP3   OH228423   5.199   6.600  12.418  0.6709  0.3618 -0.2185
 2311TIP3    H128424   5.272   6.564  12.368  1.3813  0.6525  0.6031
 2311TIP3    H228425   5.148   6.650  12.354  0.0034 -1.5780 -1.2465
 2312TIP3   OH228426   4.673   0.372   0.570 -0.0811  0.3948  0.2477
 2312TIP3    H128427   4.616   0.400   0.498 -1.4626 -1.8055  0.4390
 2312TIP3    H228428   4.631   0.405   0.649 -2.1798 -2.7817  0.5471
 2313TIP3   OH228429   6.638   5.489   1.516  0.2876 -0.1302  0.2386
 2313TIP3    H128430   6.627   5.453   1.428 -1.3393 -0.7452  0.6790
 2313TIP3    H228431   6.681   5.419   1.565 -0.4338 -0.4702  0.3930
 2314TIP3   OH228432   0.623   2.183   5.191  0.0094  0.2112  0.4300
 2314TIP3    H128433   0.574   2.200   5.272  1.9677 -2.3127  2.2310
 2314TIP3    H228434   0.697   2.245   5.195 -1.1123  1.6500 -0.5912
 2315TIP3   OH228435   0.559   6.424  15.206 -0.0047  0.1141  0.1545
 2315TIP3    H128436   0.507   6.502  15.226 -0.4668  0.0365 -0.7333
 2315TIP3    H228437   0.563   6.376  15.289  0.1598  1.0109  0.6634
 2316TIP3   OH228438   6.643   2.951   2.017  0.5479  0.0151 -0.4950
 2316TIP3    H128439   6.734   2.952   2.045  1.1227 -0.0172 -2.2871
 2316TIP3    H228440   6.597   3.004   2.082  1.6575 -0.7834  0.9757
 2317TIP3   OH228441   3.767   2.076   2.960 -0.3539  0.2567  0.2862
 2317TIP3    H128442   3.722   1.992   2.950 -0.0949 -0.0407  1.5342
 2317TIP3    H228443   3.818   2.066   3.040  0.4416  1.2690 -0.0867
 2318TIP3   OH228444   0.150   6.317  12.726  0.1171  0.2565  0.3566
 2318TIP3    H128445   0.086   6.247  12.731  0.2263  0.0504 -0.9999
 2318TIP3    H228446   0.105   6.394  12.762 -0.3691 -0.2468  0.8100
 2319TIP3   OH228447   4.880   0.958  13.539  0.0077 -0.0269 -0.3862
 2319TIP3    H128448   4.794   0.961  13.581  0.0055  2.9604 -0.5422
 2319TIP3    H228449   4.942   0.956  13.612 -0.1117  0.3924 -0.2768
 2320TIP3   OH228450   0.804   3.236   4.794  0.8135 -0.1131  0.1623
 2320TIP3    H128451   0.890   3.278   4.793  0.8367 -0.1604 -0.9657
 2320TIP3    H228452   0.757   3.278   4.722 -0.2701  0.2526  1.0833
 2321TIP3   OH228453   1.578   6.092   4.487 -0.3767 -0.3516 -0.7325
 2321TIP3    H128454   1.534   6.019   4.443 -0.0317 -0.0418 -1.6102
 2321TIP3    H228455   1.508   6.140   4.532 -0.6709 -0.9362 -0.5642
 2322TIP3   OH228456   5.205   2.139   4.100 -0.3408  0.0986  0.3379
 2322TIP3    H128457   5.115   2.173   4.101 -0.8048 -1.1400  1.9114
 2322TIP3    H228458   5.198   2.055   4.055  0.2078  0.4264 -0.3703
 2323TIP3   OH228459   3.987   5.079  12.630  0.4706 -0.3512  0.2573
 2323TIP3    H128460   4.023   4.991  12.615  0.1286 -0.5128  0.3803
 2323TIP3    H228461   3.897   5.074  12.599  0.5842  0.0872 -0.1548
 2324TIP3   OH228462   0.715   4.270   1.648  0.0343 -0.4571 -0.3112
 2324TIP3    H128463   0.695   4.340   1.586  0.5224 -1.7981 -2.0003
 2324TIP3    H228464   0.804   4.288   1.678  0.2697 -0.5253 -0.9728
 2325TIP3   OH228465   3.202   4.785  12.469 -0.3956 -0.0648  0.2661
 2325TIP3    H128466   3.230   4.731  12.395  0.0921 -1.3110  1.3387
 2325TIP3    H228467   3.271   4.851  12.478  0.3949 -0.9528  0.6769
 2326TIP3   OH228468   5.039   4.224   2.618  0.0918  0.2029  0.1086
 2326TIP3    H128469   5.055   4.283   2.692  1.5848 -1.7798  1.4257
 2326TIP3    H228470   5.017   4.140   2.659 -1.7399 -0.2664 -1.7315
 2327TIP3   OH228471   0.568   1.586   3.232 -0.1839  0.0498  0.1152
 2327TIP3    H128472   0.566   1.558   3.324  0.8092 -1.7618 -0.3873
 2327TIP3    H228473   0.655   1.622   3.219 -1.1726  2.7297  0.5238
 2328TIP3   OH228474   2.462   2.498   1.734  0.0569  0.4920 -0.1214
 2328TIP3    H128475   2.541   2.464   1.692  0.1763  1.3143 -0.5725
 2328TIP3    H228476   2.459   2.590   1.708 -1.1530  0.4189 -0.2795
 2329TIP3   OH228477   0.122   2.575  12.474  0.3367  0.3286  0.4071
 2329TIP3    H128478   0.121   2.479  12.473 -1.1227  0.3335 -1.7961
 2329TIP3    H228479   0.209   2.599  12.441  1.1278 -0.2205  2.0609
 2330TIP3   OH228480   4.820   3.600   0.035  0.0635  0.7563  0.4077
 2330TIP3    H128481   4.809   3.653  -0.044  0.0348  0.7588  0.4134
 2330TIP3    H228482   4.731   3.586   0.067  0.0992  1.0410  0.6305
 2331TIP3   OH228483   2.149   6.295   0.302 -0.7219 -0.0161 -0.6274
 2331TIP3    H128484   2.064   6.253   0.315 -1.2393  1.1707 -0.0855
 2331TIP3    H228485   2.148   6.320   0.209 -1.5621  1.2480 -0.2952
 2332TIP3   OH228486   2.801   4.119  14.073  0.2411 -0.1885 -0.0462
 2332TIP3    H128487   2.780   4.027  14.089 -0.4134 -0.2241 -1.0654
 2332TIP3    H228488   2.719   4.166  14.088 -0.1372 -0.1061 -2.2139
 2333TIP3   OH228489   3.494   5.106   1.182  0.0429 -0.1003  0.4874
 2333TIP3    H128490   3.503   5.050   1.259  1.0533  0.6579  0.9233
 2333TIP3    H228491   3.536   5.056   1.111 -0.7422 -0.7244  0.4484
 2334TIP3   OH228492   3.880   4.685   1.522 -0.3467 -0.0184  0.1469
 2334TIP3    H128493   3.832   4.757   1.563 -1.8202 -0.6571 -0.4109
 2334TIP3    H228494   3.868   4.698   1.428  0.4784 -0.2555  0.0050
 2335TIP3   OH228495   3.500   0.145   6.038 -0.5390  0.8714 -0.2052
 2335TIP3    H128496   3.448   0.152   6.118 -0.4250  2.0614 -0.2268
 2335TIP3    H228497   3.498   0.232   6.000  0.9700  0.7936 -0.5154
 2336TIP3   OH228498   2.865   2.217  12.971 -0.0566 -0.3815  0.2013
 2336TIP3    H128499   2.807   2.259  13.034  1.8129 -0.0035  1.7326
 2336TIP3    H228500   2.836   2.249  12.885 -2.4561 -0.6951  0.8758
 2337TIP3   OH228501   4.221   6.527   3.798  0.3840  0.2536  0.0702
 2337TIP3    H128502   4.149   6.573   3.842  0.7701  0.4469  0.5050
 2337TIP3    H228503   4.243   6.455   3.858  1.2185  0.7888  0.4085
 2338TIP3   OH228504   0.793   3.401   6.111  0.6235  0.0972  0.5317
 2338TIP3    H128505   0.748   3.482   6.136  1.4626  0.8222 -0.2282
 2338TIP3    H228506   0.807   3.411   6.017  1.2542 -0.6782  0.5439
 2339TIP3   OH228507   5.168   6.424  17.047 -0.1084  0.0353 -0.3186
 2339TIP3    H128508   5.075   6.435  17.067  0.1782 -1.5685  2.1279
 2339TIP3    H228509   5.169   6.364  16.972 -1.0779  1.2867 -1.3484
 2340TIP3   OH228510   5.063   3.176  17.153 -0.3352  0.0140  0.0886
 2340TIP3    H128511   4.980   3.156  17.196 -0.5016 -0.1508 -0.3080
 2340TIP3    H228512   5.070   3.272  17.158 -1.7857  0.2894 -2.1196
 2341TIP3   OH228513   0.827   3.391   5.841 -0.0217 -0.7994 -0.0632
 2341TIP3    H128514   0.840   3.445   5.763 -0.1979 -1.0399 -0.2593
 2341TIP3    H228515   0.879   3.312   5.825  0.4011 -0.5935  0.3126
 2342TIP3   OH228516   4.832   1.245  17.142 -0.5643  0.1416 -0.1644
 2342TIP3    H128517   4.825   1.323  17.087 -2.2622  0.1239 -0.0178
 2342TIP3    H228518   4.894   1.189  17.096  0.9729  1.7316 -0.0744
 2343TIP3   OH228519   2.932   1.449   0.649 -0.4316 -0.3235  0.3098
 2343TIP3    H128520   2.968   1.473   0.564 -1.2044  3.6539  1.0135
 2343TIP3    H228521   2.841   1.427   0.631 -0.2734 -0.6935 -0.0540
 2344TIP3   OH228522   6.051   6.289   1.329 -0.0265  0.2402 -0.0810
 2344TIP3    H128523   6.088   6.276   1.241  1.5658  0.7148  0.5029
 2344TIP3    H228524   5.976   6.347   1.315 -0.7926 -1.0127 -1.3333
 2345TIP3   OH228525   0.849   0.031  11.660  0.3487  0.2409 -0.0848
 2345TIP3    H128526   0.790  -0.043  11.648  1.6064 -0.8401  0.3405
 2345TIP3    H228527   0.892   0.042  11.575  1.0525 -0.3077  0.1909
 2346TIP3   OH228528   2.959   1.544  13.951 -0.2178 -0.4658 -0.4954
 2346TIP3    H128529   2.986   1.512  13.865 -0.6523  3.0164 -1.9598
 2346TIP3    H228530   3.022   1.613  13.972 -1.1694 -0.0761  1.1906
 2347TIP3   OH228531   5.587   5.223   5.527 -0.1301 -0.0821  0.2145
 2347TIP3    H128532   5.508   5.269   5.500  0.3242  0.6238  0.0762
 2347TIP3    H228533   5.619   5.273   5.603  0.5063 -0.0039 -0.0963
 2348TIP3   OH228534   3.805   2.257  11.864 -0.3548 -0.0102  0.2339
 2348TIP3    H128535   3.775   2.293  11.780 -0.8095 -0.7908  0.0661
 2348TIP3    H228536   3.877   2.315  11.889 -0.7836  0.7609 -0.2620
 2349TIP3   OH228537   4.551   2.302  15.347 -0.1311  0.1842 -0.8368
 2349TIP3    H128538   4.582   2.377  15.398 -0.1495  0.0868 -0.6816
 2349TIP3    H228539   4.596   2.227  15.386 -1.0812 -0.0447 -0.1615
 2350TIP3   OH228540   1.491   0.386  12.388 -0.5737 -0.1335 -0.2775
 2350TIP3    H128541   1.440   0.467  12.379 -1.4020 -0.4641  1.2990
 2350TIP3    H228542   1.473   0.337  12.307  1.1004  1.8718 -1.9310
 2351TIP3   OH228543   2.525   1.235  15.280 -0.8149 -0.7833 -0.0302
 2351TIP3    H128544   2.614   1.229  15.245 -0.5405  0.1581  0.4779
 2351TIP3    H228545   2.469   1.214  15.205 -0.1539 -2.5929 -0.0508
 2352TIP3   OH228546   5.214   0.561  14.195  0.3626  0.5848 -0.1563
 2352TIP3    H128547   5.122   0.542  14.209  0.8204 -1.3743  0.2846
 2352TIP3    H228548   5.234   0.630  14.258 -0.0389 -1.2468  2.0359
 2353TIP3   OH228549   4.488   0.608  16.904 -0.4711  0.0926  0.1034
 2353TIP3    H128550   4.576   0.585  16.934 -0.1129  3.3599  1.7605
 2353TIP3    H228551   4.483   0.572  16.816  2.5070 -0.2418  0.0043
 2354TIP3   OH228552   3.684   5.189   4.008  0.5557 -0.0504  0.1603
 2354TIP3    H128553   3.654   5.278   3.992 -0.7591 -0.6782 -1.0254
 2354TIP3    H228554   3.620   5.153   4.070  0.0323 -0.7073 -0.7283
 2355TIP3   OH228555   2.841   4.781   1.940  0.2363 -0.2635  0.2619
 2355TIP3    H128556   2.841   4.763   1.846  0.3558  1.2991 -0.0549
 2355TIP3    H228557   2.924   4.827   1.956 -1.0400  1.9927  0.6026
 2356TIP3   OH228558   3.333   1.429  13.786  0.7410  0.1111  0.1945
 2356TIP3    H128559   3.393   1.385  13.725  0.2943  1.1479 -1.0235
 2356TIP3    H228560   3.251   1.438  13.736  0.1715  0.4124  1.1748
 2357TIP3   OH228561   2.897   4.467   3.814 -0.0489  0.2771 -0.3584
 2357TIP3    H128562   2.916   4.551   3.774 -2.2538  0.0224 -2.0193
 2357TIP3    H228563   2.921   4.402   3.747 -0.2409 -0.3262  0.1490
 2358TIP3   OH228564   1.510   3.589   3.598 -0.0557 -0.2322  0.4538
 2358TIP3    H128565   1.416   3.594   3.580  0.3927  1.1013 -1.8080
 2358TIP3    H228566   1.536   3.502   3.570 -0.3525 -0.0400 -0.4399
 2359TIP3   OH228567   1.520   6.610  17.228  0.4379  0.3603 -0.7165
 2359TIP3    H128568   1.532   6.537  17.168 -0.0341  0.9441 -1.5361
 2359TIP3    H228569   1.584   6.594  17.299  1.9255  0.3486 -2.0269
 2360TIP3   OH228570   5.826   5.277   4.582  0.0369  0.5010  0.2679
 2360TIP3    H128571   5.826   5.199   4.528  1.2125  0.0985  0.8170
 2360TIP3    H228572   5.755   5.331   4.548 -0.3034 -0.4807 -0.5834
 2361TIP3   OH228573   6.713   3.301   2.881 -0.3104  0.1495 -0.0926
 2361TIP3    H128574   6.774   3.245   2.928 -1.1464 -2.0444 -1.5470
 2361TIP3    H228575   6.706   3.379   2.935  0.8793 -1.1362  1.9889
 2362TIP3   OH228576   4.653   5.439   3.254  0.2458 -0.6142 -0.7188
 2362TIP3    H128577   4.678   5.382   3.182  1.3737 -0.4062 -0.4955
 2362TIP3    H228578   4.557   5.442   3.250  0.2783 -0.9977 -1.8952
 2363TIP3   OH228579   3.849   1.277   4.360 -0.7949  0.2825  0.2706
 2363TIP3    H128580   3.841   1.371   4.343 -2.1513 -0.0274 -0.9493
 2363TIP3    H228581   3.778   1.237   4.309  1.2484 -1.6206 -1.2481
 2364TIP3   OH228582   1.316   5.681   5.089  0.4011  0.2168  0.2019
 2364TIP3    H128583   1.401   5.662   5.129  0.5379 -1.7933 -0.9507
 2364TIP3    H228584   1.252   5.657   5.155  0.7193  0.3717  0.5654
 2365TIP3   OH228585   0.198   1.279   1.339 -0.1733  0.3851 -0.5623
 2365TIP3    H128586   0.150   1.284   1.421  0.2692 -1.2897 -0.1929
 2365TIP3    H228587   0.144   1.223   1.283  0.9217 -0.8613 -0.4092
 2366TIP3   OH228588   3.332   0.792   6.257  0.1807  0.7249 -0.1574
 2366TIP3    H128589   3.366   0.858   6.318 -0.5112  0.4069  0.5811
 2366TIP3    H228590   3.312   0.717   6.312 -2.8186  1.2924 -0.3915
 2367TIP3   OH228591   4.551   6.022   1.496 -0.7245  0.3596  0.0578
 2367TIP3    H128592   4.573   5.959   1.428 -0.5838 -0.2713  0.6862
 2367TIP3    H228593   4.632   6.033   1.546 -1.6052 -1.4814  1.9854
 2368TIP3   OH228594   1.057   0.621   3.542  0.2521 -0.0528  0.2310
 2368TIP3    H128595   0.995   0.692   3.555 -0.2429 -0.2543 -0.9775
 2368TIP3    H228596   1.004   0.541   3.545  0.7746 -0.3735  1.3798
 2369TIP3   OH228597   0.526   3.498   3.912 -0.5865 -0.0333 -0.0160
 2369TIP3    H128598   0.489   3.497   3.823 -1.1686 -0.0086  0.2287
 2369TIP3    H228599   0.486   3.424   3.956  0.3590 -0.5650 -0.0324
 2370TIP3   OH228600   2.914   3.372  11.471 -0.2344  0.3354  0.0774
 2370TIP3    H128601   2.985   3.406  11.417  0.2645 -0.2766  0.3416
 2370TIP3    H228602   2.957   3.343  11.552 -0.7693 -0.1244  0.1999
 2371TIP3   OH228603   1.281   5.164   0.176  0.0597 -0.0044 -0.5480
 2371TIP3    H128604   1.333   5.239   0.203 -0.7559 -0.8278  3.5898
 2371TIP3    H228605   1.195   5.179   0.215 -0.2924 -2.7645 -0.1483
 2372TIP3   OH228606   0.657   3.631  12.307  0.5527 -0.3008 -0.6824
 2372TIP3    H128607   0.745   3.647  12.273  0.2236 -1.6346 -2.1656
 2372TIP3    H228608   0.621   3.719  12.320  2.5411  0.2873  1.1578
 2373TIP3   OH228609   1.555   3.509  13.053  0.3508 -0.1218 -0.3600
 2373TIP3    H128610   1.538   3.422  13.090  0.0152  0.4323  0.8103
 2373TIP3    H228611   1.606   3.554  13.121  0.6455  0.5509 -1.0232
 2374TIP3   OH228612   6.179   2.622   0.798  0.3863  0.3823  0.3996
 2374TIP3    H128613   6.183   2.583   0.885 -0.3257  0.2545  0.3800
 2374TIP3    H228614   6.137   2.707   0.812 -1.1973 -0.3068 -0.0304
 2375TIP3   OH228615   3.569   2.811  14.373 -0.1976  0.0650 -0.1863
 2375TIP3    H128616   3.582   2.898  14.410 -5.3309  0.1901  1.6970
 2375TIP3    H228617   3.563   2.826  14.278  2.1501  1.2452 -0.1840
 2376TIP3   OH228618   2.161   4.645  12.416 -0.4334  0.4800 -0.5237
 2376TIP3    H128619   2.145   4.559  12.453  1.1845  0.4842  0.2350
 2376TIP3    H228620   2.078   4.691  12.425 -0.7197 -0.3017  0.9789
 2377TIP3   OH228621   2.589   4.565  12.519  0.3942  0.5870 -0.4980
 2377TIP3    H128622   2.679   4.544  12.544  0.4288  1.6077  0.2481
 2377TIP3    H228623   2.545   4.480  12.517  0.9348  0.2501  0.9188
 2378TIP3   OH228624   6.684   5.311   1.308 -0.3918  0.1784  0.1241
 2378TIP3    H128625   6.706   5.277   1.395  2.3324 -1.5959 -1.1885
 2378TIP3    H228626   6.634   5.241   1.268  1.6197 -0.6270 -1.0639
 2379TIP3   OH228627   5.137   1.110  12.331 -0.2073  0.1047  1.0104
 2379TIP3    H128628   5.054   1.094  12.286  1.1682 -1.0158 -1.2042
 2379TIP3    H228629   5.148   1.035  12.389 -0.3615 -0.1268  0.7386
 2380TIP3   OH228630   4.390   6.155   1.684  0.7315 -0.0910  0.0029
 2380TIP3    H128631   4.329   6.089   1.717  0.3650 -0.1252 -0.7320
 2380TIP3    H228632   4.457   6.104   1.639  2.0644 -0.1520  1.9586
 2381TIP3   OH228633   1.508   3.749  13.872 -0.7421 -0.0586 -0.6087
 2381TIP3    H128634   1.526   3.821  13.812  0.4758 -1.3196 -1.8109
 2381TIP3    H228635   1.579   3.752  13.936 -0.9680  0.1236 -0.3686
 2382TIP3   OH228636   1.921   2.665  14.848  0.1748 -0.7278  0.6233
 2382TIP3    H128637   1.973   2.743  14.868  0.2285 -1.0163  1.6571
 2382TIP3    H228638   1.841   2.700  14.807  1.4752 -0.3421 -1.6242
 2383TIP3   OH228639   1.041   0.539  15.069 -0.4708  0.1061  0.4501
 2383TIP3    H128640   1.093   0.556  15.148 -2.1638  0.9149  1.4187
 2383TIP3    H228641   1.031   0.624  15.028  0.9432 -0.4082 -1.0157
 2384TIP3   OH228642   3.110   1.014   6.826  0.3649 -0.2977  0.0761
 2384TIP3    H128643   3.071   0.928   6.808  0.0876 -0.0457 -0.5470
 2384TIP3    H228644   3.197   1.009   6.786 -0.3623  0.3659 -1.6489
 2385TIP3   OH228645   5.533   1.776  16.472 -0.4381  0.3445 -0.1945
 2385TIP3    H128646   5.563   1.817  16.391  0.0940 -1.0070 -0.6946
 2385TIP3    H228647   5.606   1.720  16.500 -1.3814 -0.7596  0.1230
 2386TIP3   OH228648   6.490   1.986   5.557  0.2912  0.4383  0.2802
 2386TIP3    H128649   6.533   2.067   5.583  1.2462  0.6076 -1.7209
 2386TIP3    H228650   6.402   2.013   5.530 -1.0188  0.1487  3.9382
 2387TIP3   OH228651   2.767   2.063   5.867  0.1030  0.1733  0.4642
 2387TIP3    H128652   2.702   2.027   5.927  0.0929 -0.4526  0.0806
 2387TIP3    H228653   2.790   1.990   5.810  2.7403 -0.2219  1.9614
 2388TIP3   OH228654   3.957   2.344  13.429 -0.1927  0.0523  0.2757
 2388TIP3    H128655   3.983   2.253  13.425  1.7217  0.5617  0.9134
 2388TIP3    H228656   4.023   2.391  13.378  0.5029  1.4166  2.3573
 2389TIP3   OH228657   5.734   1.754   3.004 -0.9027 -0.6273  0.0449
 2389TIP3    H128658   5.814   1.751   3.057 -1.2513 -0.9616  0.5533
 2389TIP3    H228659   5.748   1.828   2.945  0.3077 -1.4229 -0.7063
 2390TIP3   OH228660   4.134   6.244  16.676 -0.2699 -0.5435 -0.2156
 2390TIP3    H128661   4.102   6.279  16.592  1.5435  1.2614 -0.2122
 2390TIP3    H228662   4.055   6.215  16.722 -1.7685  2.4552 -0.7749
 2391TIP3   OH228663   2.259   3.585  13.936  0.1226 -0.5065 -0.0961
 2391TIP3    H128664   2.227   3.523  14.002  2.8098 -0.7944  1.0186
 2391TIP3    H228665   2.198   3.575  13.862 -0.7017 -2.9783  0.8500
 2392TIP3   OH228666   1.853   5.695  13.241  0.0718 -0.5325  0.9619
 2392TIP3    H128667   1.939   5.737  13.240  0.8602 -2.0303  3.4446
 2392TIP3    H228668   1.791   5.768  13.246  1.2421  0.4910  0.7303
 2393TIP3   OH228669   4.506   3.738   4.656 -0.4846  0.3363  0.1959
 2393TIP3    H128670   4.504   3.824   4.615 -1.0965  0.8785  1.3353
 2393TIP3    H228671   4.525   3.756   4.749  1.6499 -0.9080  0.0280
 2394TIP3   OH228672   1.436   0.323  11.473 -0.0058 -0.1763  0.4859
 2394TIP3    H128673   1.520   0.301  11.513  0.7065  1.8085  0.1808
 2394TIP3    H228674   1.376   0.330  11.546  0.8773  1.6213  1.0975
 2395TIP3   OH228675   0.011   3.250   5.017 -0.3243 -0.3107 -0.2726
 2395TIP3    H128676   0.091   3.202   4.994 -0.0516 -0.2180  0.4755
 2395TIP3    H228677   0.035   3.343   5.007 -0.5612 -0.3007 -0.7673
 2396TIP3   OH228678   5.619   0.435   5.324 -0.2036  0.1460 -0.5187
 2396TIP3    H128679   5.535   0.456   5.284 -0.0188  1.5081 -0.2087
 2396TIP3    H228680   5.600   0.420   5.416 -0.2260 -0.3980 -0.6072
 2397TIP3   OH228681   4.775   4.132   3.971 -0.0265 -0.0565  0.2393
 2397TIP3    H128682   4.838   4.181   4.023 -0.0752 -0.1425  0.3783
 2397TIP3    H228683   4.763   4.050   4.019  0.2421 -0.3084 -0.1176
 2398TIP3   OH228684   3.580   1.324   4.647 -0.5673 -0.1279 -0.8599
 2398TIP3    H128685   3.577   1.356   4.557 -1.5284  0.4166 -0.6406
 2398TIP3    H228686   3.492   1.290   4.664 -0.6577  0.5591  0.1438
 2399TIP3   OH228687   0.991   0.318   1.923  0.6810 -0.9351  0.2557
 2399TIP3    H128688   1.035   0.353   2.001  0.3082  1.9860 -0.7866
 2399TIP3    H228689   0.916   0.375   1.910 -0.0476 -2.2512 -1.4693
 2400TIP3   OH228690   0.064   4.715   5.289  0.0716 -0.1913 -0.1917
 2400TIP3    H128691   0.014   4.664   5.225  1.3587 -1.8572  0.0907
 2400TIP3    H228692  -0.003   4.751   5.348 -0.9800 -0.2735 -1.3067
 2401TIP3   OH228693   3.115   1.305   0.811 -0.2127  0.2714  0.5113
 2401TIP3    H128694   3.088   1.263   0.892 -2.6208 -2.2105 -1.5063
 2401TIP3    H228695   3.038   1.354   0.782  0.7649  1.5008 -0.0874
 2402TIP3   OH228696   2.723   5.002   2.068 -0.6780 -0.1629 -0.0558
 2402TIP3    H128697   2.717   4.910   2.040 -0.4658 -0.0827 -0.3627
 2402TIP3    H228698   2.646   5.015   2.124 -0.4688 -0.6613  0.3571
 2403TIP3   OH228699   4.436   5.843   0.112 -0.1831 -0.3634  0.1916
 2403TIP3    H128700   4.451   5.834   0.206  0.7982  0.6128  0.1366
 2403TIP3    H228701   4.487   5.920   0.086  0.6820 -1.4418 -1.3916
 2404TIP3   OH228702   3.021   1.606   6.239 -0.2833  0.3290 -0.0814
 2404TIP3    H128703   3.079   1.623   6.165 -0.4565 -2.8349 -1.0026
 2404TIP3    H228704   3.076   1.620   6.316  0.7392  0.7029 -0.8694
 2405TIP3   OH228705   4.717   0.323   5.786  0.1251 -0.5150  0.1515
 2405TIP3    H128706   4.692   0.360   5.871  0.0197 -1.5167  0.5706
 2405TIP3    H228707   4.646   0.349   5.727 -0.0761 -0.2617  0.4986
 2406TIP3   OH228708   2.370   2.891   4.419 -0.4277  0.2157  0.6483
 2406TIP3    H128709   2.382   2.895   4.514  0.5015  1.9271  0.4860
 2406TIP3    H228710   2.360   2.798   4.400 -0.9044 -0.1171  2.4563
 2407TIP3   OH228711   6.311   6.221   5.214 -0.4686 -0.7012 -0.4178
 2407TIP3    H128712   6.274   6.133   5.202 -0.5264 -0.4366 -2.1801
 2407TIP3    H228713   6.239   6.280   5.193 -0.1417 -0.2055 -0.1426
 2408TIP3   OH228714   2.315   3.968  15.830  0.0260  0.5203 -0.0296
 2408TIP3    H128715   2.327   3.881  15.866 -1.9923  0.1124 -0.2452
 2408TIP3    H228716   2.243   3.958  15.767 -0.6419  2.4570  0.3953
 2409TIP3   OH228717   0.043   6.552  17.225 -0.1555 -0.3005  0.1307
 2409TIP3    H128718   0.098   6.573  17.149 -0.2072 -0.3709  0.0738
 2409TIP3    H228719   0.089   6.481  17.269 -0.1333 -0.2707  0.1562
 2410TIP3   OH228720   2.776   1.130   2.534 -0.2091  0.6130 -0.0777
 2410TIP3    H128721   2.697   1.126   2.479 -2.5369  0.9523  3.1060
 2410TIP3    H228722   2.767   1.213   2.581  0.8312 -0.4575  2.0553
 2411TIP3   OH228723   6.678   3.680   5.886  0.0404 -0.4639 -0.0671
 2411TIP3    H128724   6.594   3.661   5.844 -0.3670  0.8965  0.1294
 2411TIP3    H228725   6.678   3.627   5.966  1.3139 -4.0161 -2.2781
 2412TIP3   OH228726   6.648   5.643   3.832  0.2424 -0.1230 -0.3395
 2412TIP3    H128727   6.715   5.672   3.771 -0.5916 -0.7308 -1.5643
 2412TIP3    H228728   6.617   5.560   3.796 -0.8098 -0.0891  0.4726
 2413TIP3   OH228729   2.042   3.209  13.436  0.1001 -0.0660 -0.7155
 2413TIP3    H128730   2.080   3.122  13.427  0.3783  0.2121 -2.4470
 2413TIP3    H228731   2.001   3.226  13.351  0.8655  1.8485 -0.7274
 2414TIP3   OH228732   1.806   4.797  11.081 -0.7805  0.1171  0.4973
 2414TIP3    H128733   1.774   4.873  11.129  1.1171 -0.1723  2.2911
 2414TIP3    H228734   1.778   4.811  10.991 -0.2897  3.0514  0.7723
 2415TIP3   OH228735   0.787   4.765   6.283  0.1490 -0.9920 -0.4549
 2415TIP3    H128736   0.720   4.744   6.218 -0.6664 -0.1753  0.1137
 2415TIP3    H228737   0.775   4.699   6.351 -4.0049  2.5105  2.5057
 2416TIP3   OH228738   2.320   6.257  15.836  0.0783  0.0538  0.2519
 2416TIP3    H128739   2.313   6.163  15.851 -0.6006  0.2567  1.2474
 2416TIP3    H228740   2.326   6.295  15.923 -1.8895  1.0975 -0.0359
 2417TIP3   OH228741   0.149   4.119  13.429  0.2598 -0.0026 -0.6512
 2417TIP3    H128742   0.239   4.135  13.457  0.2318  0.0957 -0.6155
 2417TIP3    H228743   0.145   4.025  13.413 -0.0372 -0.2466  0.7918
 2418TIP3   OH228744   5.402   6.485  12.951 -0.2368 -0.0315  0.1107
 2418TIP3    H128745   5.344   6.411  12.937  1.5619 -1.9635  2.4201
 2418TIP3    H228746   5.375   6.522  13.035  1.5202 -0.6622  0.9871
 2419TIP3   OH228747   0.031   4.452  14.491 -0.0734 -0.1563  0.9095
 2419TIP3    H128748   0.100   4.517  14.503 -0.4959  0.1739  1.6311
 2419TIP3    H228749   0.077   4.372  14.463  0.6810 -0.1529  2.0960
 2420TIP3   OH228750   6.760   1.991   3.474  0.0606  0.2109  0.0990
 2420TIP3    H128751   6.697   2.030   3.413  0.8260 -0.7413 -1.3395
 2420TIP3    H228752   6.845   2.027   3.447  0.4341 -0.4333  0.4109
 2421TIP3   OH228753   3.764   5.908  15.353  0.3169 -0.1459 -0.1023
 2421TIP3    H128754   3.723   5.931  15.269 -0.5118  2.7398  1.0428
 2421TIP3    H228755   3.826   5.978  15.369  2.1194 -1.8683  0.6512
 2422TIP3   OH228756   4.450   5.237   0.847 -0.0229 -0.2246 -0.3964
 2422TIP3    H128757   4.525   5.272   0.894 -0.5661  0.5475 -0.0946
 2422TIP3    H228758   4.431   5.154   0.892 -0.8629  0.7505  1.1040
 2423TIP3   OH228759   5.112   1.935   1.000 -0.5256  0.6524 -0.1807
 2423TIP3    H128760   5.066   1.960   1.079 -1.9337  1.4414 -1.2330
 2423TIP3    H228761   5.063   1.977   0.929 -0.7970 -2.1005 -1.6909
 2424TIP3   OH228762   1.201   2.709  13.951  0.0416  0.2845 -0.6017
 2424TIP3    H128763   1.179   2.616  13.961  0.2751  0.3711  0.8541
 2424TIP3    H228764   1.174   2.749  14.034 -1.4636  1.8033 -1.7989
 2425TIP3   OH228765   4.916   6.683  16.215 -0.1315  0.4746  0.4261
 2425TIP3    H128766   4.841   6.623  16.216  0.8657 -0.7627  1.1572
 2425TIP3    H228767   4.988   6.632  16.179  0.2595  1.7977 -0.6830
 2426TIP3   OH228768   5.426   2.263  13.077  0.6047  0.3056  0.3063
 2426TIP3    H128769   5.384   2.237  13.158  0.6953 -1.6141 -0.2424
 2426TIP3    H228770   5.470   2.184  13.046 -0.6259  0.5855 -2.3333
 2427TIP3   OH228771   3.316   5.600   2.617  0.4900 -0.0386  0.4091
 2427TIP3    H128772   3.222   5.607   2.632  0.4521  0.1924  0.0791
 2427TIP3    H228773   3.326   5.605   2.521  0.8565  0.2055  0.4579
 2428TIP3   OH228774   6.217   4.568   2.114 -0.2892  0.0819 -0.2072
 2428TIP3    H128775   6.282   4.562   2.044  0.1901  2.5568 -0.0275
 2428TIP3    H228776   6.148   4.624   2.077 -1.1396 -0.5042  0.4851
 2429TIP3   OH228777   2.879   2.949   4.811  0.1679  0.0425 -0.2198
 2429TIP3    H128778   2.862   3.040   4.832  3.4279  0.3862  1.2285
 2429TIP3    H228779   2.926   2.952   4.727  1.2438 -0.2056  0.3655
 2430TIP3   OH228780   5.776   5.592  13.762  0.6006 -0.0035 -0.1147
 2430TIP3    H128781   5.847   5.555  13.709 -0.2212 -0.1132 -1.1575
 2430TIP3    H228782   5.819   5.620  13.843  1.5921 -1.2862 -0.1822
 2431TIP3   OH228783   3.853   6.676   4.727  0.1542 -0.8661  0.4203
 2431TIP3    H128784   3.901   6.707   4.650  0.0160 -0.1524  0.6200
 2431TIP3    H228785   3.780   6.627   4.691 -0.8271  0.8260  0.0654
 2432TIP3   OH228786   0.014   4.140  15.238 -0.1581  0.5048 -0.3473
 2432TIP3    H128787  -0.073   4.177  15.253 -0.2913  0.4267 -0.9106
 2432TIP3    H228788   0.067   4.174  15.310 -0.8461 -0.0715  0.4452
 2433TIP3   OH228789   5.834   5.273   0.568 -0.6013  0.4004  0.8041
 2433TIP3    H128790   5.909   5.240   0.518 -2.1366  0.0808 -1.3467
 2433TIP3    H228791   5.839   5.368   0.558 -1.4998  0.2720 -0.8165
 2434TIP3   OH228792   4.901   1.591   0.867  0.6632 -0.2345  0.0357
 2434TIP3    H128793   4.887   1.659   0.933  2.7018 -0.3702  0.6430
 2434TIP3    H228794   4.879   1.510   0.912 -1.8904  0.0057 -0.7273
 2435TIP3   OH228795   3.990   2.196  11.063  0.8589 -1.0617 -0.0375
 2435TIP3    H128796   3.913   2.239  11.025  0.8742  0.5105  1.6518
 2435TIP3    H228797   4.011   2.126  11.001 -1.0643 -0.6105 -1.2492
 2436TIP3   OH228798   6.065   5.194  17.021 -0.7502  0.0454 -0.5515
 2436TIP3    H128799   6.073   5.240  16.937  0.9778 -0.5825 -0.7529
 2436TIP3    H228800   5.995   5.240  17.067 -1.7653  0.3624 -2.3598
 2437TIP3   OH228801   5.072   5.453  15.285  0.4735  0.5486 -0.7144
 2437TIP3    H128802   5.134   5.435  15.214 -1.3131  1.3255 -2.5314
 2437TIP3    H228803   5.074   5.548  15.296  0.8145  0.4247  0.3810
 2438TIP3   OH228804   0.561   1.833   2.001 -0.3645  0.3955 -0.4225
 2438TIP3    H128805   0.476   1.868   1.973  0.3085  0.9798 -1.8365
 2438TIP3    H228806   0.564   1.745   1.964  1.1360  1.6923 -3.6187
 2439TIP3   OH228807   3.354   6.785   0.513  0.0918 -0.0696 -0.0808
 2439TIP3    H128808   3.358   6.689   0.516 -1.1752 -0.1101  0.3026
 2439TIP3    H228809   3.308   6.804   0.431  1.8117  0.2677 -1.0104
 2440TIP3   OH228810   3.500   5.589   4.573 -0.1652 -0.3683 -0.1317
 2440TIP3    H128811   3.579   5.540   4.553  0.9433  0.7257  1.4456
 2440TIP3    H228812   3.444   5.577   4.496  0.9369 -2.3214 -0.6517
 2441TIP3   OH228813   4.748   0.563   2.062 -0.4676 -0.4849  0.3236
 2441TIP3    H128814   4.822   0.622   2.074 -1.2174  0.6781 -0.6170
 2441TIP3    H228815   4.786   0.485   2.020  0.1111  0.3710 -0.7554
 2442TIP3   OH228816   6.352   0.529  12.781  0.4558  0.2875  0.0420
 2442TIP3    H128817   6.358   0.518  12.876  1.5598 -0.1383 -0.0619
 2442TIP3    H228818   6.259   0.541  12.764  0.2307  0.2249  1.1657
 2443TIP3   OH228819   5.746   0.360   2.697  0.3656 -0.7038 -0.0574
 2443TIP3    H128820   5.652   0.358   2.714  0.4055 -1.0563  0.1254
 2443TIP3    H228821   5.781   0.424   2.758  0.6242 -2.5484  1.7882
 2444TIP3   OH228822   1.681   5.134   2.337 -0.4008 -0.5208 -0.3856
 2444TIP3    H128823   1.726   5.219   2.343 -1.3969 -0.1357  2.0963
 2444TIP3    H228824   1.734   5.076   2.393 -2.1014 -0.4386  1.3472
 2445TIP3   OH228825   5.306   3.207   1.678  0.0686 -0.2052 -0.2330
 2445TIP3    H128826   5.314   3.198   1.773  1.7179 -0.7002 -0.3931
 2445TIP3    H228827   5.223   3.253   1.664 -1.9578 -3.3360  1.2558
 2446TIP3   OH228828   3.748   1.441  12.247  0.5205 -0.6423  0.4500
 2446TIP3    H128829   3.711   1.462  12.161 -0.3695  0.4184  1.0798
 2446TIP3    H228830   3.790   1.522  12.275  0.8722 -1.0108  0.9797
 2447TIP3   OH228831   3.536   6.209  16.897 -0.1463 -0.0289 -0.0197
 2447TIP3    H128832   3.484   6.132  16.924 -0.4871  0.8614  1.9979
 2447TIP3    H228833   3.615   6.172  16.858  0.5535 -1.4696  2.6308
 2448TIP3   OH228834   1.899   2.048  12.251  0.1463  0.1095 -0.7980
 2448TIP3    H128835   1.941   1.975  12.297 -0.7937  0.2067  0.2305
 2448TIP3    H228836   1.953   2.061  12.173  1.8352  0.0178  0.3303
 2449TIP3   OH228837   2.710   0.654  14.940  0.5941 -0.0950  0.8102
 2449TIP3    H128838   2.770   0.580  14.939  0.3964 -0.2636  1.2797
 2449TIP3    H228839   2.723   0.697  14.856  0.1305 -1.1329  0.1971
 2450TIP3   OH228840   6.691   1.985  11.737 -0.4803 -0.0091 -0.0488
 2450TIP3    H128841   6.623   1.927  11.705  0.5597 -0.6225 -1.1743
 2450TIP3    H228842   6.674   2.069  11.695 -1.6202  0.3601  1.1075
 2451TIP3   OH228843   2.528   5.536  11.312 -0.4608 -0.7827 -0.1622
 2451TIP3    H128844   2.465   5.543  11.384 -0.1836 -0.7410  0.0833
 2451TIP3    H228845   2.510   5.611  11.256 -1.9321 -1.8635 -1.1596
 2452TIP3   OH228846   5.699   5.965   5.153 -0.0558  0.3915 -0.1159
 2452TIP3    H128847   5.608   5.978   5.180 -0.0335 -0.7126  0.5023
 2452TIP3    H228848   5.699   5.882   5.106  0.3786  1.0795 -1.3485
 2453TIP3   OH228849   3.172   5.013  14.102  0.1507 -0.2513  0.6692
 2453TIP3    H128850   3.145   4.922  14.089  2.1918 -0.4412 -2.7942
 2453TIP3    H228851   3.107   5.049  14.162 -2.0429 -3.3313  0.2473
 2454TIP3   OH228852   6.562   3.546  13.145 -0.1332 -0.7930  0.4798
 2454TIP3    H128853   6.515   3.616  13.189 -3.3417 -0.6927 -2.8176
 2454TIP3    H228854   6.493   3.487  13.114  2.0054 -1.6429 -2.9562
 2455TIP3   OH228855   0.156   4.025   0.926 -0.3226 -0.3913 -0.4784
 2455TIP3    H128856   0.076   4.060   0.885 -0.4707  1.3202  1.1952
 2455TIP3    H228857   0.227   4.072   0.882 -0.4843  1.4845  1.1541
 2456TIP3   OH228858   4.402   1.626  11.589  0.0402  0.0387 -0.1851
 2456TIP3    H128859   4.330   1.579  11.631  1.8802 -2.1816  0.6435
 2456TIP3    H228860   4.429   1.569  11.517 -0.1168  1.6665 -1.5761
 2457TIP3   OH228861   1.194   2.900  15.239 -0.2487  0.3988 -0.1675
 2457TIP3    H128862   1.238   2.871  15.319  1.5159  1.7372 -0.6219
 2457TIP3    H228863   1.134   2.968  15.269  0.8127  1.2917 -0.0297
 2458TIP3   OH228864   2.971   0.837  12.902  0.0484  0.4415  0.3030
 2458TIP3    H128865   2.990   0.756  12.855 -0.8469  0.6677 -0.4713
 2458TIP3    H228866   2.881   0.826  12.934  0.4766  0.4909  1.5457
 2459TIP3   OH228867   1.915   0.621  13.195  0.0975 -0.2506 -0.0866
 2459TIP3    H128868   1.952   0.537  13.170  3.1181  1.1522 -0.5594
 2459TIP3    H228869   1.955   0.641  13.280 -0.3268  0.8566 -0.1303
 2460TIP3   OH228870   2.355   2.275  15.715 -0.2396  0.6390 -0.2755
 2460TIP3    H128871   2.425   2.332  15.684 -0.5435  0.5930 -1.0549
 2460TIP3    H228872   2.308   2.327  15.780  0.8432  0.4758  0.6558
 2461TIP3   OH228873   2.494   4.183  15.865  0.4216  0.0833 -0.6666
 2461TIP3    H128874   2.449   4.100  15.851 -0.2705  0.3581 -0.1084
 2461TIP3    H228875   2.457   4.243  15.800 -0.2073  0.3768 -0.0453
 2462TIP3   OH228876   2.371   6.222  14.758  0.4539  0.4367  0.2778
 2462TIP3    H128877   2.405   6.172  14.832 -0.4682  0.1571  0.5208
 2462TIP3    H228878   2.339   6.156  14.697  0.4728  0.6882 -0.0069
 2463TIP3   OH228879   1.985   1.908   0.404 -0.1740  0.0868 -0.3400
 2463TIP3    H128880   2.008   1.991   0.362 -1.2756  1.4202  1.6384
 2463TIP3    H228881   1.913   1.873   0.351 -0.4871  0.9688 -0.5067
 2464TIP3   OH228882   5.807   4.778  14.019 -0.8076  0.1902  0.1011
 2464TIP3    H128883   5.775   4.717  14.086  0.5106 -0.1463  0.4523
 2464TIP3    H228884   5.759   4.859  14.034 -1.5842 -0.3477  0.5172
 2465TIP3   OH228885   0.209   4.049   3.972 -0.0549 -0.3904 -0.6235
 2465TIP3    H128886   0.140   4.115   3.964  1.2911  1.1758  0.3054
 2465TIP3    H228887   0.269   4.084   4.038  1.4769 -1.8334 -1.1934
 2466TIP3   OH228888   4.169   6.710   4.206 -0.3987 -0.4200  0.0773
 2466TIP3    H128889   4.144   6.646   4.274 -0.9798 -0.2618  0.0176
 2466TIP3    H228890   4.213   6.780   4.255  0.1690 -0.8255  0.1531
 2467TIP3   OH228891   4.468   3.256   0.716  0.2036  0.4571  0.5235
 2467TIP3    H128892   4.447   3.316   0.788  0.6599  0.6505  0.4920
 2467TIP3    H228893   4.386   3.209   0.700 -0.4650  1.8314 -0.1785
 2468TIP3   OH228894   0.945   2.247  12.044  0.0210  0.1384  0.7273
 2468TIP3    H128895   0.898   2.200  12.113  1.4625 -1.8199  0.4244
 2468TIP3    H228896   1.021   2.192  12.025 -0.8697  0.1023 -3.1560
 2469TIP3   OH228897   5.464   1.971   2.882 -0.1720  0.3660  0.5359
 2469TIP3    H128898   5.438   1.888   2.842 -2.4133  0.1444  2.3967
 2469TIP3    H228899   5.559   1.974   2.870  0.0864 -2.9406  1.3443
 2470TIP3   OH228900   5.679   0.661  11.585 -0.6263 -0.8137  0.1906
 2470TIP3    H128901   5.677   0.695  11.495  1.0912 -1.0513  0.0442
 2470TIP3    H228902   5.772   0.642  11.601 -0.9313 -0.8602  1.9844
 2471TIP3   OH228903   5.461   5.538  11.462 -0.5106  0.3619 -0.4422
 2471TIP3    H128904   5.372   5.511  11.483 -0.5333  1.3954  0.8295
 2471TIP3    H228905   5.473   5.621  11.508  0.2974  1.4652 -2.5661
 2472TIP3   OH228906   3.440   6.068  17.226 -0.2108  0.0153  0.3198
 2472TIP3    H128907   3.357   6.082  17.180  0.5165 -1.3209 -1.4739
 2472TIP3    H228908   3.433   5.980  17.261  1.3452 -1.0364 -1.8931
 2473TIP3   OH228909   0.420   2.491  13.334 -0.0891 -0.0076  0.2925
 2473TIP3    H128910   0.372   2.432  13.392 -0.0302  1.4844  1.8893
 2473TIP3    H228911   0.417   2.576  13.378  2.4281  0.5209 -0.4811
 2474TIP3   OH228912   2.072   2.215   4.888  0.3148  0.7769  0.1170
 2474TIP3    H128913   2.045   2.145   4.827 -1.0014  0.7736  0.6785
 2474TIP3    H228914   2.070   2.295   4.835  0.1796  0.6313 -0.0992
 2475TIP3   OH228915   1.842   1.494  16.713  0.4675 -0.3211 -0.0325
 2475TIP3    H128916   1.818   1.510  16.804 -0.2534 -1.0012 -0.0990
 2475TIP3    H228917   1.759   1.494  16.666  0.6137 -2.0943 -0.3451
 2476TIP3   OH228918   2.085   4.561  12.064 -0.0733 -0.0607 -0.5812
 2476TIP3    H128919   2.132   4.633  12.022  0.1932 -1.4711 -2.7579
 2476TIP3    H228920   2.145   4.529  12.132  0.7051  0.3593 -1.0656
 2477TIP3   OH228921   5.170   0.115  17.001  0.2067 -0.2154 -0.3175
 2477TIP3    H128922   5.140   0.063  16.927 -0.1816 -1.0670  0.4267
 2477TIP3    H228923   5.129   0.074  17.077  1.6865 -0.1762  0.5166
 2478TIP3   OH228924   4.198   6.351  14.281  0.1649  0.4737  0.2177
 2478TIP3    H128925   4.201   6.334  14.375  0.3248 -0.3573  0.0653
 2478TIP3    H228926   4.284   6.322  14.249 -0.6428 -1.1707 -0.4992
 2479TIP3   OH228927   1.227   0.732  14.598 -0.2032 -0.6672  0.6201
 2479TIP3    H128928   1.174   0.702  14.524 -1.1411 -0.0331  1.0223
 2479TIP3    H228929   1.184   0.813  14.627  0.9373 -0.1950  1.0079
 2480TIP3   OH228930   0.514   5.757   3.512 -0.3661  0.2149 -0.0019
 2480TIP3    H128931   0.441   5.818   3.503 -0.1254  0.9386  2.7324
 2480TIP3    H228932   0.572   5.796   3.577  0.5749 -2.1724  0.6816
 2481TIP3   OH228933   1.721   1.366  12.991 -0.5586  0.4213 -0.6117
 2481TIP3    H128934   1.679   1.441  13.033 -2.0979 -1.6208  1.6160
 2481TIP3    H228935   1.784   1.335  13.057 -2.2645 -2.2021 -0.1730
 2482TIP3   OH228936   5.350   5.733  14.003  0.3635 -0.0765 -0.7647
 2482TIP3    H128937   5.317   5.725  14.092  0.6807  0.9219 -0.5462
 2482TIP3    H228938   5.427   5.790  14.011  0.3208  0.1165 -1.6810
 2483TIP3   OH228939   4.189   2.687   0.244  0.1313  0.2950  0.5635
 2483TIP3    H128940   4.111   2.725   0.204  0.2229 -0.8499 -0.7135
 2483TIP3    H228941   4.260   2.708   0.183  0.0835 -2.4244 -0.4622
 2484TIP3   OH228942   3.656   0.335  12.980 -0.3769 -0.4697 -0.4873
 2484TIP3    H128943   3.697   0.406  13.031 -0.3270 -1.1242  0.4133
 2484TIP3    H228944   3.562   0.353  12.984 -0.4823 -1.1983  0.9401
 2485TIP3   OH228945   2.438   1.218   5.090  0.5798 -1.0040  0.2037
 2485TIP3    H128946   2.434   1.129   5.126 -1.1357 -1.1933 -0.3977
 2485TIP3    H228947   2.369   1.266   5.137  1.3073 -0.0620  0.3271
 2486TIP3   OH228948   4.107   5.815   0.168 -0.1390 -0.1716  0.2417
 2486TIP3    H128949   4.153   5.759   0.105  0.6870 -1.9628  2.3646
 2486TIP3    H228950   4.016   5.812   0.140  0.0802 -1.6669 -0.3683
 2487TIP3   OH228951   1.085   2.034   2.256  0.3143 -0.3924 -0.0793
 2487TIP3    H128952   1.047   2.053   2.171  3.9266 -0.6921 -1.8390
 2487TIP3    H228953   1.037   1.957   2.287 -1.3760  0.0271 -1.5862
 2488TIP3   OH228954   2.014   0.691   6.005  0.0356 -0.4253  0.4098
 2488TIP3    H128955   2.051   0.690   6.093  1.9689  0.1264 -0.3776
 2488TIP3    H228956   1.975   0.604   5.994  0.6715 -0.8482  1.4444
 2489TIP3   OH228957   4.965   5.804   3.133  0.3266  0.3266  0.6798
 2489TIP3    H128958   4.878   5.767   3.145  0.5099 -0.4496 -0.2760
 2489TIP3    H228959   5.001   5.811   3.221 -0.7130  0.6947  1.0873
 2490TIP3   OH228960   3.105   6.518  11.394  0.4784  0.5484 -0.4475
 2490TIP3    H128961   3.148   6.466  11.327  2.1932  0.8197  0.4254
 2490TIP3    H228962   3.170   6.584  11.419 -0.8031  1.6066  0.1670
 2491TIP3   OH228963   5.921   5.744   2.920 -0.4959  0.6637 -0.5675
 2491TIP3    H128964   5.917   5.820   2.862 -1.1841  1.0914  0.0268
 2491TIP3    H228965   5.913   5.669   2.861  0.5057  1.0290 -1.1941
 2492TIP3   OH228966   1.264   5.993   0.811 -0.4206 -0.4481  0.3898
 2492TIP3    H128967   1.221   6.075   0.835  0.9802 -0.1023  1.7822
 2492TIP3    H228968   1.205   5.953   0.747 -2.0401  0.7608  1.0919
 2493TIP3   OH228969   2.324   5.965  15.888  0.3640 -0.0280 -0.1786
 2493TIP3    H128970   2.243   5.916  15.903  0.9364 -0.4227  1.7868
 2493TIP3    H228971   2.383   5.902  15.847  0.4672 -0.4595  0.6135
 2494TIP3   OH228972   2.061   0.071  16.292 -0.7615  0.2900 -0.5812
 2494TIP3    H128973   2.089   0.010  16.223  0.3677 -0.5658  0.5904
 2494TIP3    H228974   2.093   0.156  16.262  1.9722 -0.4574  0.0503
 2495TIP3   OH228975   4.066   2.724   2.452  0.3097 -0.0230 -0.8539
 2495TIP3    H128976   4.019   2.778   2.388  0.1769 -0.9894 -1.5888
 2495TIP3    H228977   4.151   2.765   2.461  0.9705 -0.8459 -2.9739
 2496TIP3   OH228978   5.768   3.913  16.269 -0.3478  0.3976  0.9331
 2496TIP3    H128979   5.773   3.854  16.344 -0.6346 -0.3344  0.3871
 2496TIP3    H228980   5.719   3.989  16.301 -1.8200 -0.5854  1.0633
 2497TIP3   OH228981   2.664   1.226  13.137 -0.3296 -0.3462 -0.2145
 2497TIP3    H128982   2.693   1.306  13.180 -0.3022 -1.0867  1.2021
 2497TIP3    H228983   2.703   1.229  13.050 -0.8765  1.4942 -0.4178
 2498TIP3   OH228984   2.514   2.967  14.850  0.1282  0.6685  0.2261
 2498TIP3    H128985   2.475   3.053  14.867 -0.0282  0.4177  1.1532
 2498TIP3    H228986   2.485   2.912  14.923  0.6142 -0.0492 -0.1106
 2499TIP3   OH228987   5.852   0.416  11.345  0.0320 -0.0822 -0.0817
 2499TIP3    H128988   5.862   0.442  11.436  1.2375  0.7134 -0.4264
 2499TIP3    H228989   5.785   0.348  11.346  0.4374 -0.4678  1.4602
 2500TIP3   OH228990   3.831   1.665  12.046  0.2112  0.3471 -0.1598
 2500TIP3    H128991   3.862   1.580  12.015  1.9139  0.6740  0.5817
 2500TIP3    H228992   3.783   1.702  11.972  3.6531  0.8483 -2.2249
 2501TIP3   OH228993   0.825   0.255   4.516 -0.4979 -0.3205  0.0372
 2501TIP3    H128994   0.785   0.331   4.557 -1.0950 -0.4627 -0.2791
 2501TIP3    H228995   0.811   0.184   4.579 -2.1520 -0.7258 -0.7756
 2502TIP3   OH228996   0.137   3.981  16.096 -0.4956  0.0054 -0.4415
 2502TIP3    H128997   0.215   3.986  16.152 -1.1507  1.3877  0.3724
 2502TIP3    H228998   0.149   4.052  16.033  0.8902 -2.3959 -2.9336
 2503TIP3   OH228999   1.738   4.741   1.319  0.8218  0.0600 -0.0596
 2503TIP3    H129000   1.674   4.720   1.387 -0.6263  1.5733 -0.8999
 2503TIP3    H229001   1.784   4.818   1.351  2.3338 -1.1074  0.5999
 2504TIP3   OH229002   3.994   3.028  13.069 -0.1609  0.3355  0.4821
 2504TIP3    H129003   3.928   3.052  13.004 -0.8228  0.2213  1.1065
 2504TIP3    H229004   4.054   3.102  13.072 -0.4035  0.5431  0.0875
 2505TIP3   OH229005   5.815   5.175   1.889  0.0493  0.6471 -0.2177
 2505TIP3    H129006   5.849   5.183   1.978 -0.8777  2.2990  0.0112
 2505TIP3    H229007   5.730   5.133   1.899 -0.6040  1.9563 -0.1866
 2506TIP3   OH229008   3.817   6.597   3.119 -0.3005  0.1062  0.1874
 2506TIP3    H129009   3.728   6.606   3.085 -1.2778  0.1627  2.6651
 2506TIP3    H229010   3.833   6.503   3.121 -1.2243 -0.0363  1.9381
 2507TIP3   OH229011   3.849   0.896  17.284 -0.9201 -0.6291 -0.1610
 2507TIP3    H129012   3.823   0.840  17.211  0.3062 -2.9001  1.0736
 2507TIP3    H229013   3.925   0.945  17.251 -1.7928  0.0839 -1.1393
 2508TIP3   OH229014   0.871   0.844  15.654  0.0468  0.1868 -0.1040
 2508TIP3    H129015   0.913   0.837  15.568  0.6371 -0.0356  0.2010
 2508TIP3    H229016   0.923   0.909  15.702  1.2195 -1.4907  0.9457
 2509TIP3   OH229017   6.039   0.085  16.405  0.1795 -0.5721 -0.2944
 2509TIP3    H129018   5.974   0.016  16.391  0.4990 -1.0822  0.6921
 2509TIP3    H229019   6.116   0.039  16.438 -0.0773  0.4016  1.7499
 2510TIP3   OH229020   6.499   5.422   3.271  0.2095  0.0224  0.2159
 2510TIP3    H129021   6.571   5.486   3.276  0.9340 -0.8197  0.8908
 2510TIP3    H229022   6.493   5.387   3.360  0.2507 -1.3134 -0.2986
 2511TIP3   OH229023   2.317   1.689   3.453 -0.1368 -0.1252  0.2590
 2511TIP3    H129024   2.394   1.745   3.468 -0.1496  0.1489 -0.6351
 2511TIP3    H229025   2.251   1.721   3.513 -0.6860  1.9183 -1.3737
 2512TIP3   OH229026   6.272   6.611   0.736  0.4513 -0.2369  0.4424
 2512TIP3    H129027   6.270   6.683   0.800 -0.8788 -1.7984  2.2397
 2512TIP3    H229028   6.313   6.649   0.658  2.3767  1.6652  2.3050
 2513TIP3   OH229029   5.146   4.506  15.279 -0.0747 -0.0475  0.3916
 2513TIP3    H129030   5.227   4.511  15.230 -0.0997 -0.7114  0.2831
 2513TIP3    H229031   5.087   4.568  15.235  0.1383 -0.0941  0.0421
 2514TIP3   OH229032   2.583   1.271  12.468 -0.1913  0.6961  0.2217
 2514TIP3    H129033   2.527   1.294  12.542  2.5808  0.3994  2.5153
 2514TIP3    H229034   2.597   1.177  12.477  1.6792  0.9715  0.4799
 2515TIP3   OH229035   2.187   3.079   4.024  0.7779 -0.5357 -0.3379
 2515TIP3    H129036   2.277   3.112   4.026  1.1309 -1.5731  1.5979
 2515TIP3    H229037   2.138   3.138   4.082  0.2913 -0.2098 -1.0753
 2516TIP3   OH229038   2.331   1.417  14.107 -0.0210  0.3842  0.0984
 2516TIP3    H129039   2.251   1.396  14.154 -1.2752 -1.3537 -2.6222
 2516TIP3    H229040   2.308   1.491  14.051 -0.2867 -1.1377 -1.8837
 2517TIP3   OH229041   0.116   1.067  17.224 -0.0771  0.2022  0.1304
 2517TIP3    H129042   0.130   1.158  17.196 -0.0788 -0.2486 -1.3922
 2517TIP3    H229043   0.157   1.061  17.310  1.3033  1.2272 -0.4459
 2518TIP3   OH229044   2.170   5.829  16.465  0.2446  1.0299  0.2987
 2518TIP3    H129045   2.156   5.751  16.520 -0.9922  1.1661  0.2010
 2518TIP3    H229046   2.235   5.880  16.512 -0.8984  1.2047  1.7233
 2519TIP3   OH229047   5.291   6.745   1.893  0.0637 -0.3146  0.4879
 2519TIP3    H129048   5.361   6.689   1.861  1.3181  0.7515  1.3008
 2519TIP3    H229049   5.275   6.807   1.822  1.2070  0.5729  0.9966
 2520TIP3   OH229050   2.275   1.802   3.808 -0.0586 -0.0574  0.5419
 2520TIP3    H129051   2.331   1.737   3.850 -0.7141 -0.0314  1.4945
 2520TIP3    H229052   2.189   1.788   3.848 -0.4581  0.6574 -0.0575
 2521TIP3   OH229053   5.746   0.196  13.447  0.2047 -0.2796 -0.2690
 2521TIP3    H129054   5.717   0.111  13.480  0.2973  0.3711  1.5225
 2521TIP3    H229055   5.810   0.174  13.379  0.6400 -1.6609  0.5568
 2522TIP3   OH229056   2.789   0.747  16.944  0.1183  0.4614  0.4037
 2522TIP3    H129057   2.866   0.796  16.915  0.8427 -0.8843 -0.0267
 2522TIP3    H229058   2.817   0.703  17.025 -0.6883  1.1728  1.0794
 2523TIP3   OH229059   2.120   5.362  15.507  0.0772 -0.1204 -0.1744
 2523TIP3    H129060   2.101   5.455  15.518  1.7664 -0.0171  2.0810
 2523TIP3    H229061   2.079   5.340  15.423 -2.9891  1.9156  0.6877
 2524TIP3   OH229062   4.415   4.773   2.123 -0.0010 -0.1452 -0.5315
 2524TIP3    H129063   4.336   4.819   2.149  0.5139  2.5543 -3.5699
 2524TIP3    H229064   4.386   4.683   2.109 -1.9239  0.1796  1.0239
 2525TIP3   OH229065   1.617   3.835  17.003  0.3658 -0.1387  0.2164
 2525TIP3    H129066   1.693   3.779  17.018 -0.1625 -1.4419 -1.7209
 2525TIP3    H229067   1.652   3.924  17.002  1.4413 -0.5317  1.9461
 2526TIP3   OH229068   5.380   2.418   4.611 -0.2100 -0.0259 -0.0420
 2526TIP3    H129069   5.304   2.384   4.564 -0.5621 -0.0430  0.5349
 2526TIP3    H229070   5.428   2.340   4.638 -1.4036 -0.1259  1.9216
 2527TIP3   OH229071   2.567   0.479  13.586 -0.4528  0.1001  0.1584
 2527TIP3    H129072   2.541   0.535  13.660  1.4671  0.5072  0.5679
 2527TIP3    H229073   2.533   0.393  13.608 -0.3666  0.3414  1.2654
 2528TIP3   OH229074   3.967   1.451   5.971 -0.9169  0.3359 -0.1839
 2528TIP3    H129075   3.893   1.413   6.018  1.4191 -3.6363  0.4793
 2528TIP3    H229076   4.003   1.379   5.919  2.6388  2.0198 -0.2526
 2529TIP3   OH229077   4.090   5.603  14.483  0.1228  0.0753 -0.4738
 2529TIP3    H129078   4.141   5.539  14.533 -0.2463 -1.3505 -1.8654
 2529TIP3    H229079   4.142   5.683  14.485  1.4057 -0.7598 -0.0904
 2530TIP3   OH229080   1.678   1.927  11.229  0.3537 -0.6994  0.2629
 2530TIP3    H129081   1.755   1.878  11.201  0.4928 -0.0823 -0.4785
 2530TIP3    H229082   1.620   1.927  11.152  0.5133  0.5721  0.1210
 2531TIP3   OH229083   6.018   1.876   4.542  0.2656 -0.3251  0.0547
 2531TIP3    H129084   6.033   1.955   4.490 -0.2942 -1.6248 -2.1305
 2531TIP3    H229085   5.980   1.814   4.481  1.1354 -2.4573  1.6311
 2532TIP3   OH229086   4.585   5.985   0.324  0.0457  0.8020  0.3664
 2532TIP3    H129087   4.632   5.951   0.400 -0.0866  1.1377  0.5991
 2532TIP3    H229088   4.511   6.033   0.361  0.2626  1.3949  0.0518
 2533TIP3   OH229089   0.909   2.175  16.243 -0.1787  0.3376 -0.2258
 2533TIP3    H129090   0.929   2.082  16.235 -1.0426  0.1068  0.3050
 2533TIP3    H229091   0.948   2.201  16.327 -0.7250  0.2493  0.0546
 2534TIP3   OH229092   4.355   4.556  14.054  0.0642  0.2903  0.2173
 2534TIP3    H129093   4.323   4.473  14.088 -1.8220 -0.0310 -2.1896
 2534TIP3    H229094   4.448   4.541  14.038 -0.2275 -1.3408 -0.0490
 2535TIP3   OH229095   0.409   2.833  15.845  0.2142 -0.1772 -0.2186
 2535TIP3    H129096   0.326   2.798  15.812 -0.3652 -0.3332  1.4036
 2535TIP3    H229097   0.391   2.859  15.935  2.1304 -1.0059  0.4419
 2536TIP3   OH229098   4.637   3.212  15.621 -0.9135 -0.1914  0.5205
 2536TIP3    H129099   4.621   3.173  15.707  0.5755  2.0837  1.8800
 2536TIP3    H229100   4.732   3.213  15.612 -0.9158  2.7378  0.3899
 2537TIP3   OH229101   3.251   6.793   2.727  0.2294  0.3244 -0.6749
 2537TIP3    H129102   3.327   6.745   2.760 -0.9819 -0.5214  0.9275
 2537TIP3    H229103   3.289   6.871   2.686  1.8709  1.0196  2.0081
 2538TIP3   OH229104   2.047   5.514  12.349 -0.0465  0.2539 -0.0173
 2538TIP3    H129105   2.084   5.556  12.426 -0.6233  1.8358 -0.5893
 2538TIP3    H229106   2.004   5.585  12.300 -1.0139 -0.9773 -1.0080
 2539TIP3   OH229107   6.579   2.732  16.222  0.2503 -0.5140 -0.1494
 2539TIP3    H129108   6.524   2.810  16.217  2.5460  1.0428 -2.4638
 2539TIP3    H229109   6.662   2.763  16.260  0.7715 -2.0728  0.0258
 2540TIP3   OH229110   4.477   5.757   6.572 -0.1235 -0.3992 -0.1161
 2540TIP3    H129111   4.566   5.730   6.551  1.5015  2.3785  2.6571
 2540TIP3    H229112   4.445   5.690   6.633  1.2366  0.1060  1.2115
 2541TIP3   OH229113   5.246   3.860   0.941 -0.2646  0.5067 -0.0770
 2541TIP3    H129114   5.240   3.837   1.033 -1.6697 -2.4661 -0.8490
 2541TIP3    H229115   5.170   3.916   0.925 -0.7861 -0.1117  0.2453
 2542TIP3   OH229116   6.517   2.897  17.258  0.1549  0.5862  0.1367
 2542TIP3    H129117   6.503   2.984  17.221 -0.1809  0.9514  1.1078
 2542TIP3    H229118   6.531   2.840  17.182 -0.4452  1.3406 -0.5425
 2543TIP3   OH229119   0.134   6.561  14.611 -0.0319  0.1536 -0.2215
 2543TIP3    H129120   0.171   6.495  14.553  0.6609 -0.6146  1.0898
 2543TIP3    H229121   0.065   6.602  14.559  0.0761 -1.0368 -1.3192
 2544TIP3   OH229122   2.885   6.605   2.215 -0.4042 -0.0229  0.1669
 2544TIP3    H129123   2.838   6.565   2.142  1.7523 -0.2806 -1.1413
 2544TIP3    H229124   2.915   6.530   2.268 -1.2253  0.1236  0.8430
 2545TIP3   OH229125   1.977   3.330   0.035 -0.1728  0.0408  0.2625
 2545TIP3    H129126   2.039   3.391  -0.004 -0.3411  0.8613  1.2563
 2545TIP3    H229127   1.896   3.381   0.043 -0.8077 -0.8439 -0.4980
 2546TIP3   OH229128   6.120   2.570   0.291 -0.1997 -0.2038 -0.3967
 2546TIP3    H129129   6.188   2.552   0.355  0.4282 -0.3909 -1.1037
 2546TIP3    H229130   6.080   2.484   0.274 -1.4355  0.0952  0.9190
 2547TIP3   OH229131   4.611   2.331  16.679  0.0184 -0.2457  0.5464
 2547TIP3    H129132   4.551   2.265  16.644 -1.3021  1.1748  0.0623
 2547TIP3    H229133   4.680   2.281  16.722  1.3467 -2.0700 -3.4887
 2548TIP3   OH229134   4.953   5.065   3.433 -0.4299  0.2038 -0.5749
 2548TIP3    H129135   5.024   5.081   3.371 -0.8834  0.5768 -1.0020
 2548TIP3    H229136   4.945   5.147   3.483  0.8836 -0.5713  0.9647
 2549TIP3   OH229137   2.091   3.092  12.145 -0.2690  0.1691  0.4424
 2549TIP3    H129138   2.142   3.022  12.103 -2.6016 -1.2888 -0.0495
 2549TIP3    H229139   2.149   3.126  12.213  1.7088 -0.7971 -0.7108
 2550TIP3   OH229140   5.659   6.368  10.434 -0.2194 -0.1960  0.4266
 2550TIP3    H129141   5.624   6.292  10.480  0.3974 -1.0855 -0.5602
 2550TIP3    H229142   5.606   6.442  10.466 -3.1984 -1.5391 -1.2487
 2551TIP3   OH229143   4.257   0.680  14.842  0.0959  0.2793 -0.2361
 2551TIP3    H129144   4.191   0.721  14.898 -0.5622  0.4618 -1.1376
 2551TIP3    H229145   4.220   0.594  14.820  1.4471 -0.8014  1.6004
 2552TIP3   OH229146   3.977   3.082   0.729  0.1958 -0.1112 -0.5215
 2552TIP3    H129147   4.034   3.023   0.778 -0.9353 -2.2708 -1.7161
 2552TIP3    H229148   4.031   3.159   0.711  1.4396 -0.3963  1.7923
 2553TIP3   OH229149   6.579   1.942   4.510 -0.5162 -0.6482  0.4106
 2553TIP3    H129150   6.547   1.966   4.423 -0.1688  0.6641  0.6277
 2553TIP3    H229151   6.674   1.954   4.504 -0.5400 -0.0948  1.1036
 2554TIP3   OH229152   2.257   1.960  13.461 -0.1359  0.2401 -0.1214
 2554TIP3    H129153   2.166   1.946  13.434 -0.8381  0.2432  2.1983
 2554TIP3    H229154   2.300   1.876  13.442 -1.4396 -0.9471  2.0213
 2555TIP3   OH229155   3.327   4.409   1.392  0.2715 -0.0737 -0.5615
 2555TIP3    H129156   3.382   4.388   1.467 -0.0387 -0.0420 -0.3245
 2555TIP3    H229157   3.314   4.504   1.397 -1.6425 -0.3818  0.6499
 2556TIP3   OH229158   2.250   0.417  15.088  0.2294  0.1479  0.7377
 2556TIP3    H129159   2.338   0.455  15.083 -0.4470  1.6642  0.1657
 2556TIP3    H229160   2.227   0.420  15.181  0.1082  1.3308  0.6754
 2557TIP3   OH229161   6.167   2.006  15.296  0.2815  0.0818 -0.6405
 2557TIP3    H129162   6.194   2.077  15.355 -0.2317 -0.0332 -0.2612
 2557TIP3    H229163   6.076   2.027  15.274  0.2630 -0.2328 -0.8691
 2558TIP3   OH229164   4.216   1.928   4.582 -0.1898  0.3510 -0.1013
 2558TIP3    H129165   4.242   1.841   4.612 -0.9222 -0.2702 -1.2139
 2558TIP3    H229166   4.269   1.944   4.504  0.0459  0.9676  0.1800
 2559TIP3   OH229167   2.892   3.588   0.231 -0.4045 -0.8461 -0.5678
 2559TIP3    H129168   2.816   3.596   0.174 -0.2121 -1.6832 -0.9473
 2559TIP3    H229169   2.949   3.660   0.204 -0.8623 -0.4868 -0.5857
 2560TIP3   OH229170   3.073   3.488  14.206  0.4596 -0.6912 -0.0153
 2560TIP3    H129171   3.084   3.574  14.246 -1.7657 -0.2216 -0.3564
 2560TIP3    H229172   3.045   3.432  14.277  0.3960 -0.7786 -0.1106
 2561TIP3   OH229173   0.720   2.733   0.673 -0.2321 -0.7517  0.1139
 2561TIP3    H129174   0.801   2.728   0.623 -0.6528 -1.0501 -0.5418
 2561TIP3    H229175   0.654   2.692   0.617 -0.6306 -1.4423  1.0646
 2562TIP3   OH229176   2.572   0.608  15.476 -0.6043  0.1077 -0.2547
 2562TIP3    H129177   2.630   0.612  15.400 -1.2213 -1.5301 -0.8279
 2562TIP3    H229178   2.517   0.685  15.469 -0.4965  0.0908 -1.3323
 2563TIP3   OH229179   1.115   0.289   3.006 -0.0185 -0.7486  0.2464
 2563TIP3    H129180   1.176   0.242   3.063  0.3630 -0.6976 -0.1162
 2563TIP3    H229181   1.145   0.380   3.008  0.0598 -0.7660 -0.1217
 2564TIP3   OH229182   1.327   3.528  13.821  0.1174  0.2593 -0.0136
 2564TIP3    H129183   1.403   3.582  13.843  0.3607  0.3955 -1.1269
 2564TIP3    H229184   1.294   3.496  13.905  4.0782 -3.4637  0.3286
 2565TIP3   OH229185   1.721   0.131  15.414 -0.4249 -0.3330  0.1903
 2565TIP3    H129186   1.789   0.134  15.481  1.6091  1.8131 -1.8488
 2565TIP3    H229187   1.749   0.061  15.355 -0.9593 -0.6562  0.3196
 2566TIP3   OH229188   6.465   3.926  16.568 -0.1219  0.3159 -0.3575
 2566TIP3    H129189   6.478   3.831  16.574  0.1084  0.4970  3.2009
 2566TIP3    H229190   6.370   3.938  16.573 -0.1560  0.2892 -0.8842
 2567TIP3   OH229191   5.398   0.998   0.074 -0.4330  0.2002 -0.1305
 2567TIP3    H129192   5.455   0.989  -0.002 -0.9634  1.4247 -0.6798
 2567TIP3    H229193   5.457   0.999   0.149  0.2105  0.6109 -0.6393
 2568TIP3   OH229194   2.437   1.274   4.159  0.2782 -0.1565  0.3427
 2568TIP3    H129195   2.368   1.340   4.166  1.5721  1.0600  1.6373
 2568TIP3    H229196   2.409   1.205   4.220  0.6536  0.7399  1.5393
 2569TIP3   OH229197   1.852   2.178  15.192 -0.5186 -0.0073 -0.0680
 2569TIP3    H129198   1.805   2.121  15.252 -0.6644 -0.8234 -0.9497
 2569TIP3    H229199   1.790   2.194  15.120  0.5839 -1.2120 -1.3166
 2570TIP3   OH229200   2.857   4.058  14.639  0.4002  0.0530 -0.2316
 2570TIP3    H129201   2.951   4.074  14.645  0.3963 -0.3207  1.0719
 2570TIP3    H229202   2.835   4.079  14.548  2.1155 -1.8546 -1.1397
 2571TIP3   OH229203   4.721   3.744   3.122 -0.4217 -0.7146 -0.9857
 2571TIP3    H129204   4.762   3.729   3.207 -1.0256 -1.0177 -0.7463
 2571TIP3    H229205   4.689   3.658   3.094  0.1832 -0.7041 -1.7364
 2572TIP3   OH229206   0.088   6.807   4.204  0.3372 -0.4907  0.2069
 2572TIP3    H129207   0.061   6.737   4.264 -0.5896 -0.1733  0.1689
 2572TIP3    H229208   0.076   6.888   4.255  0.5492 -0.2992 -0.0487
 2573TIP3   OH229209   1.100   6.750   1.516  0.3504  0.2524 -0.2880
 2573TIP3    H129210   1.079   6.837   1.482  2.3269  1.4130  1.3540
 2573TIP3    H229211   1.026   6.729   1.574  0.4935  1.3930  0.3114
 2574TIP3   OH229212   3.544   5.059  14.800 -0.3246 -0.0534 -0.2313
 2574TIP3    H129213   3.607   5.116  14.756  0.7139 -0.7586  0.3125
 2574TIP3    H229214   3.598   4.993  14.844 -1.4462 -0.6722  0.2433
 2575TIP3   OH229215   4.241   4.350   1.968 -0.5679 -0.2815  0.6977
 2575TIP3    H129216   4.263   4.257   1.975 -0.4776 -0.2859  0.3562
 2575TIP3    H229217   4.301   4.384   1.901 -1.4371 -0.2439 -0.0605
 2576TIP3   OH229218   2.910   6.249   5.581  0.7072 -0.0426 -0.5048
 2576TIP3    H129219   2.938   6.158   5.571  0.0857 -0.4549  1.2184
 2576TIP3    H229220   2.864   6.250   5.665  3.0578  2.4676  0.8049
 2577TIP3   OH229221   6.302   3.368  11.167  0.1365 -0.0120 -0.4321
 2577TIP3    H129222   6.376   3.357  11.107  1.7696 -1.1340  1.7003
 2577TIP3    H229223   6.307   3.292  11.225 -2.9972 -0.3407 -0.5163
 2578TIP3   OH229224   4.696   2.845  10.328 -0.3045  0.2498 -0.1237
 2578TIP3    H129225   4.714   2.774  10.390  0.8890  0.6036 -0.0465
 2578TIP3    H229226   4.617   2.888  10.362 -0.5960 -0.5722  0.2416
 2579TIP3   OH229227   6.445   5.870   5.779 -0.0558 -0.1767 -0.2372
 2579TIP3    H129228   6.540   5.860   5.771  0.1060  1.7293 -1.1084
 2579TIP3    H229229   6.415   5.788   5.818  1.8494 -1.1078 -0.6739
 2580TIP3   OH229230   6.257   5.389   1.901 -0.5232 -0.0875  0.8457
 2580TIP3    H129231   6.335   5.438   1.874  0.0436 -0.3274  2.0335
 2580TIP3    H229232   6.259   5.309   1.848 -0.9145  0.7070 -0.3842
 2581TIP3   OH229233   0.847   6.392  16.768 -0.0002 -0.1593 -0.2276
 2581TIP3    H129234   0.927   6.364  16.723 -0.2040 -1.0183 -0.0456
 2581TIP3    H229235   0.819   6.469  16.718  0.3723 -0.4640 -0.9235
 2582TIP3   OH229236   3.863   6.061   2.559 -0.3006  0.3148  0.1220
 2582TIP3    H129237   3.934   5.996   2.562  0.6168  1.3031 -0.0536
 2582TIP3    H229238   3.895   6.129   2.500 -2.0540  0.0090 -1.2124
 2583TIP3   OH229239   4.924   4.722  15.965 -0.1330 -0.2474  0.3586
 2583TIP3    H129240   4.944   4.796  15.907  1.7234  0.9590  2.4600
 2583TIP3    H229241   4.898   4.652  15.905 -0.4918  1.6281 -1.7836
 2584TIP3   OH229242   2.093   2.235   1.966  0.3292  0.0524 -0.6786
 2584TIP3    H129243   2.109   2.161   2.024  1.4685  0.5672 -0.3110
 2584TIP3    H229244   2.008   2.270   1.994  1.0485  0.5322  0.9470
 2585TIP3   OH229245   0.456   4.045   4.809  0.2656 -0.3202  0.7365
 2585TIP3    H129246   0.386   4.110   4.815 -0.1725 -0.8414  1.3942
 2585TIP3    H229247   0.419   3.976   4.754  0.4273 -0.3970  0.7234
 2586TIP3   OH229248   2.362   1.033   4.317 -0.0696  0.0048  0.2738
 2586TIP3    H129249   2.450   1.001   4.300 -0.4847 -0.9082 -0.1522
 2586TIP3    H229250   2.307   0.955   4.314 -0.8987  0.5769  0.5142
 2587TIP3   OH229251   1.461   6.001  17.103  0.7995  0.0587 -0.0408
 2587TIP3    H129252   1.397   5.932  17.124  0.3748  0.8264  1.2164
 2587TIP3    H229253   1.442   6.023  17.012  1.0965 -1.6476 -0.5447
 2588TIP3   OH229254   1.685   0.085   0.888  0.3516  0.4184  0.1182
 2588TIP3    H129255   1.675   0.080   0.983  0.7943  1.5628  0.2310
 2588TIP3    H229256   1.747   0.016   0.866  0.2375  0.1439  0.6557
 2589TIP3   OH229257   6.027   5.816  12.431 -0.3296 -0.4005  0.6874
 2589TIP3    H129258   6.091   5.746  12.442  0.2986  0.1230  0.3677
 2589TIP3    H229259   6.077   5.896  12.442 -0.9531  0.0103  0.5367
 2590TIP3   OH229260   2.217   6.014   5.383  0.0691 -0.0369  0.1838
 2590TIP3    H129261   2.192   6.106   5.393  0.5248  0.3769 -2.0932
 2590TIP3    H229262   2.135   5.969   5.361  0.3814  0.4060 -1.9681
 2591TIP3   OH229263   0.762   0.123  15.747 -0.8919  0.3833  0.4078
 2591TIP3    H129264   0.745   0.212  15.780 -0.0123  0.3513  0.9470
 2591TIP3    H229265   0.804   0.137  15.662 -0.8631  0.4849  0.4382
 2592TIP3   OH229266   1.856   3.220  12.009  0.2468 -0.5479 -0.0426
 2592TIP3    H129267   1.814   3.254  12.088 -0.0979 -0.6191 -0.1929
 2592TIP3    H229268   1.945   3.198  12.036 -0.7017 -3.2161  1.0324
 2593TIP3   OH229269   4.675   4.215  12.974  0.0803  0.0831 -0.2961
 2593TIP3    H129270   4.583   4.231  12.993 -0.0003 -0.5072 -0.1892
 2593TIP3    H229271   4.686   4.121  12.983  0.7790  0.1910  0.0597
 2594TIP3   OH229272   3.841   1.497   2.547  0.1714 -0.0651  0.6583
 2594TIP3    H129273   3.875   1.550   2.475 -1.4431  1.4207  0.9549
 2594TIP3    H229274   3.771   1.550   2.585 -1.8628 -2.6186  0.6286
 2595TIP3   OH229275   3.353   0.617   2.206 -0.3809 -0.0061  0.8383
 2595TIP3    H129276   3.364   0.552   2.136  0.5887  0.2645  0.7342
 2595TIP3    H229277   3.437   0.663   2.209 -0.8477  0.8183  1.3399
 2596TIP3   OH229278   6.692   4.194  13.522  0.1610 -0.0596 -0.2192
 2596TIP3    H129279   6.776   4.216  13.481 -0.7231  0.4972 -1.7577
 2596TIP3    H229280   6.626   4.229  13.463 -1.1662  2.6027  2.6969
 2597TIP3   OH229281   2.387   5.728  15.771 -0.6391  0.9032  0.9641
 2597TIP3    H129282   2.471   5.703  15.733 -1.2480  0.5508 -0.1612
 2597TIP3    H229283   2.342   5.645  15.786 -0.9574  1.1177  1.2006
 2598TIP3   OH229284   4.193   3.998   2.845 -0.4607  0.4361 -0.0194
 2598TIP3    H129285   4.118   4.004   2.904 -0.4752 -0.2466  0.0351
 2598TIP3    H229286   4.154   4.007   2.757 -0.6355 -0.1479 -0.0029
 2599TIP3   OH229287   6.630   6.649   6.559 -0.1833 -0.3622  0.1946
 2599TIP3    H129288   6.585   6.663   6.476 -1.0939 -3.9445 -0.0272
 2599TIP3    H229289   6.722   6.640   6.535 -0.3584 -0.7009 -0.3722
 2600TIP3   OH229290   1.780   1.590  14.088  0.1331 -0.5396  0.1818
 2600TIP3    H129291   1.778   1.495  14.079  0.2787 -0.5087 -0.2176
 2600TIP3    H229292   1.872   1.614  14.070 -0.0361 -0.2714 -0.3555
 2601TIP3   OH229293   1.096   1.353  11.851  0.3322  0.2005 -0.1860
 2601TIP3    H129294   1.183   1.346  11.890 -0.3249 -1.2429  1.0756
 2601TIP3    H229295   1.036   1.343  11.925 -0.9205 -0.9744 -1.3382
 2602TIP3   OH229296   3.410   2.609  10.812  0.0900  0.3046 -0.1595
 2602TIP3    H129297   3.491   2.558  10.816 -0.3017 -0.2791  0.3882
 2602TIP3    H229298   3.340   2.545  10.822 -0.4209  0.9001  0.1441
 2603TIP3   OH229299   4.475   2.277   2.184 -0.1067 -0.1695 -0.3780
 2603TIP3    H129300   4.562   2.312   2.167 -0.3898  1.3290  1.0704
 2603TIP3    H229301   4.480   2.244   2.274 -1.0753  0.0955 -0.2203
 2604TIP3   OH229302   0.463   2.127   4.727  0.1705  0.0517 -0.0556
 2604TIP3    H129303   0.551   2.094   4.715  0.4797  0.1845  1.6533
 2604TIP3    H229304   0.468   2.219   4.703  0.3109 -0.1376 -0.7398
 2605TIP3   OH229305   0.576   3.901  12.896 -0.8436 -0.2373 -0.5086
 2605TIP3    H129306   0.663   3.932  12.872 -0.5137  1.0893  2.1705
 2605TIP3    H229307   0.589   3.854  12.979 -2.4063 -1.6071 -1.0069
 2606TIP3   OH229308   2.188   1.924   5.351  0.0552 -0.3628 -0.1551
 2606TIP3    H129309   2.182   1.995   5.287 -0.0125 -0.5951 -0.4028
 2606TIP3    H229310   2.176   1.968   5.436  0.2275 -0.0465 -0.2934
 2607TIP3   OH229311   2.604   1.019  16.084  0.3188  0.2901 -0.2693
 2607TIP3    H129312   2.695   0.991  16.084 -0.3476 -1.9201  0.3878
 2607TIP3    H229313   2.600   1.088  16.151  1.1928 -0.6736  0.7799
 2608TIP3   OH229314   2.115   0.476  16.090 -0.1125 -0.1128  0.0664
 2608TIP3    H129315   2.149   0.387  16.086  1.6943  0.5559  0.0113
 2608TIP3    H229316   2.100   0.492  16.183 -2.2135 -1.0853 -0.0624
 2609TIP3   OH229317   1.945   6.413  13.388 -0.1294 -0.0533 -0.7415
 2609TIP3    H129318   1.950   6.356  13.311  2.4468 -0.3400 -0.4322
 2609TIP3    H229319   2.012   6.480  13.372 -1.1902  1.2456  0.1850
 2610TIP3   OH229320   0.170   3.379   5.931  0.2517 -0.1727 -0.3950
 2610TIP3    H129321   0.077   3.385   5.949  0.2205  0.0224 -0.6142
 2610TIP3    H229322   0.210   3.360   6.016 -0.0619 -1.0641 -0.4389
 2611TIP3   OH229323   3.426   1.417  16.410  0.1335  0.7629 -0.6153
 2611TIP3    H129324   3.421   1.439  16.317  0.9604  1.2134 -0.5641
 2611TIP3    H229325   3.434   1.502  16.454  0.1857  0.5279 -0.1692
 2612TIP3   OH229326   5.523   5.629   4.780 -0.4617 -0.2602 -0.5472
 2612TIP3    H129327   5.474   5.632   4.862 -1.7577  0.1570 -1.3245
 2612TIP3    H229328   5.462   5.591   4.716  0.6118 -0.8100 -1.2679
 2613TIP3   OH229329   6.553   4.778   1.180  0.0532  0.1147 -0.2549
 2613TIP3    H129330   6.516   4.743   1.099  0.2464 -0.1982 -0.2094
 2613TIP3    H229331   6.530   4.871   1.179 -1.9195 -0.3514  0.4313
 2614TIP3   OH229332   1.023   4.911   2.491 -0.0872 -0.4285  0.1596
 2614TIP3    H129333   1.071   4.916   2.409  0.9294 -2.5949  0.5634
 2614TIP3    H229334   1.028   4.818   2.516 -0.8261  0.0877  2.3820
 2615TIP3   OH229335   4.743   5.021   0.439 -0.3414 -0.1552 -0.2810
 2615TIP3    H129336   4.693   4.940   0.446 -0.0446 -0.2874  0.4295
 2615TIP3    H229337   4.711   5.074   0.513  0.1565 -0.0186 -0.1617
 2616TIP3   OH229338   1.863   0.406  14.570 -0.6633 -0.7068 -0.6332
 2616TIP3    H129339   1.822   0.340  14.514  1.6027 -2.6759 -0.0080
 2616TIP3    H229340   1.954   0.379  14.577 -0.1829  1.3012  1.4004
 2617TIP3   OH229341   4.813   0.981   4.254 -0.0362 -0.1718 -0.3022
 2617TIP3    H129342   4.835   1.074   4.261 -0.0292 -0.2904  1.5786
 2617TIP3    H229343   4.882   0.944   4.198  0.3330  0.8233 -0.5169
 2618TIP3   OH229344   5.913   3.268  15.110 -0.4553 -0.0718  0.4840
 2618TIP3    H129345   5.890   3.185  15.069 -0.7997  0.0392  0.4472
 2618TIP3    H229346   5.868   3.266  15.195 -0.0037 -0.1643  0.7254
 2619TIP3   OH229347   5.688   3.447  15.599  0.0981  0.3538 -0.0743
 2619TIP3    H129348   5.773   3.423  15.636 -0.7454 -0.7952  1.1401
 2619TIP3    H229349   5.625   3.427  15.668 -1.1613  1.3070 -0.9245
 2620TIP3   OH229350   4.385   5.696  14.329  0.1980  0.0767  0.0502
 2620TIP3    H129351   4.414   5.607  14.347  0.7251  0.2007 -0.1879
 2620TIP3    H229352   4.408   5.711  14.238 -0.6339  0.1677 -0.1509
 2621TIP3   OH229353   4.195   0.905  14.094 -0.8375  0.6028 -0.3821
 2621TIP3    H129354   4.190   0.989  14.138  1.5702  0.6379 -0.0637
 2621TIP3    H229355   4.137   0.847  14.144  0.7242  1.0169  1.9908
 2622TIP3   OH229356   5.240   4.649   5.448 -0.6744  0.3138  0.0565
 2622TIP3    H129357   5.293   4.669   5.370 -2.0401 -1.2689 -1.2985
 2622TIP3    H229358   5.202   4.563   5.430 -2.8043  0.9222  1.4939
 2623TIP3   OH229359   3.688   2.662  13.668 -0.1582  0.2937 -0.1556
 2623TIP3    H129360   3.762   2.603  13.686 -0.1246  0.8125  1.4930
 2623TIP3    H229361   3.728   2.741  13.632 -0.1333 -0.3506 -1.5827
 2624TIP3   OH229362   2.756   0.287  11.352  0.1856  0.0901  0.6700
 2624TIP3    H129363   2.837   0.261  11.308 -0.3785 -1.1609  0.3507
 2624TIP3    H229364   2.698   0.313  11.280  0.3647  1.2144  0.9124
 2625TIP3   OH229365   6.149   4.552   0.999  0.1956  0.1699  1.0652
 2625TIP3    H129366   6.098   4.632   1.009  0.2696 -0.0955  3.7789
 2625TIP3    H229367   6.128   4.500   1.076  1.3222 -1.7816  0.0935
 2626TIP3   OH229368   2.456   1.828  15.655  0.5920  0.1175 -0.3302
 2626TIP3    H129369   2.397   1.893  15.617  1.5123  0.0779 -1.8626
 2626TIP3    H229370   2.474   1.862  15.743 -2.0394 -0.1120  0.3413
 2627TIP3   OH229371   2.006   3.877   1.596  0.1984  0.3881 -0.6520
 2627TIP3    H129372   1.959   3.955   1.564  2.0312  1.0550 -1.8387
 2627TIP3    H229373   2.070   3.912   1.658 -0.7082 -0.4893  0.7947
 2628TIP3   OH229374   4.163   0.904   0.606  0.6123  0.4576 -0.0828
 2628TIP3    H129375   4.133   0.899   0.516  0.8786  2.8392 -0.3413
 2628TIP3    H229376   4.093   0.948   0.653  0.2321 -1.2785  1.0070
 2629TIP3   OH229377   0.493   2.402  10.705  0.4532  0.5974 -0.2066
 2629TIP3    H129378   0.491   2.448  10.789  0.5711 -2.6500  1.6586
 2629TIP3    H229379   0.568   2.343  10.713 -2.3197 -3.1511 -0.6716
 2630TIP3   OH229380   3.229   3.362   2.844  0.1425 -0.4728  0.0278
 2630TIP3    H129381   3.319   3.392   2.858  0.0620  0.0210 -0.4704
 2630TIP3    H229382   3.175   3.425   2.891  0.0132 -0.2412 -0.4223
 2631TIP3   OH229383   3.953   6.408  14.554 -0.1173 -0.0637  0.2047
 2631TIP3    H129384   4.010   6.446  14.488  0.3221  0.6598  0.9966
 2631TIP3    H229385   3.972   6.314  14.552 -0.4661 -0.1070 -1.0367
 2632TIP3   OH229386   6.774   0.126  12.102 -0.3398 -0.3508 -0.1626
 2632TIP3    H129387   6.779   0.037  12.067  1.0085 -1.1748  1.9449
 2632TIP3    H229388   6.859   0.166  12.080  0.0098 -0.4425  0.9372
 2633TIP3   OH229389   6.429   4.896   2.130  0.1399 -0.5757 -0.1624
 2633TIP3    H129390   6.381   4.964   2.177 -1.2471 -0.4195 -1.7701
 2633TIP3    H229391   6.444   4.828   2.195 -0.0296  0.4838  1.0074
 2634TIP3   OH229392   3.646   2.782  17.198  0.2113 -0.1429 -0.4260
 2634TIP3    H129393   3.734   2.784  17.158 -0.1122  1.5681 -1.1193
 2634TIP3    H229394   3.656   2.832  17.279  0.1435 -0.9663  0.0923
 2635TIP3   OH229395   3.440   3.157  15.719 -0.4546  0.2577  0.1048
 2635TIP3    H129396   3.527   3.160  15.758 -0.8230 -1.4423  1.0817
 2635TIP3    H229397   3.388   3.217  15.773  0.1631  1.5659 -0.7074
 2636TIP3   OH229398   3.304   1.264  15.836  0.0286  0.5795  0.0021
 2636TIP3    H129399   3.363   1.190  15.853 -0.6808 -0.0867 -0.3800
 2636TIP3    H229400   3.270   1.288  15.922  1.1716  1.2381  0.2749
 2637TIP3   OH229401   0.916   6.236   4.822  0.3522 -0.2714  0.3922
 2637TIP3    H129402   0.972   6.235   4.745 -1.4305  0.2058 -0.9577
 2637TIP3    H229403   0.903   6.144   4.845 -0.5410 -0.4916 -0.9728
 2638TIP3   OH229404   4.644   2.486  13.840 -0.6893  0.2927  0.7541
 2638TIP3    H129405   4.678   2.414  13.786  1.8720  0.8299  1.5853
 2638TIP3    H229406   4.593   2.443  13.908  0.1584 -0.6989  0.7738
 2639TIP3   OH229407   0.252   3.334   2.532 -0.0614  0.4223 -0.0834
 2639TIP3    H129408   0.297   3.276   2.471  0.6078  0.6176  0.2169
 2639TIP3    H229409   0.175   3.285   2.560 -0.3225  0.2959 -1.0138
 2640TIP3   OH229410   1.357   5.915  12.043 -0.3796  0.2068  0.1059
 2640TIP3    H129411   1.299   5.943  12.114  0.6931  1.5773  0.4527
 2640TIP3    H229412   1.336   5.972  11.970 -0.3784 -0.1672 -0.1881
 2641TIP3   OH229413   4.723   0.864  11.091  0.5945  0.8302 -0.6420
 2641TIP3    H129414   4.767   0.784  11.061  0.2426  0.4244 -0.0985
 2641TIP3    H229415   4.638   0.863  11.046 -0.1560 -0.0595  0.7300
 2642TIP3   OH229416   3.828   4.613   1.264  0.0889  0.9175  0.1348
 2642TIP3    H129417   3.889   4.632   1.193  1.9832 -3.3532  0.4903
 2642TIP3    H229418   3.750   4.579   1.221  0.7212 -0.3758 -0.0167
 2643TIP3   OH229419   6.536   3.096   5.949 -0.5567  0.2365  0.0050
 2643TIP3    H129420   6.533   3.082   5.855 -0.5242  1.1211 -0.1268
 2643TIP3    H229421   6.458   3.052   5.982 -0.3107 -0.4952 -0.3752
 2644TIP3   OH229422   4.262   5.006   0.658 -0.6235  0.1718 -0.5125
 2644TIP3    H129423   4.259   4.918   0.694 -0.2573  0.5112  0.3895
 2644TIP3    H229424   4.351   5.037   0.679 -1.3000  1.3682  0.7078
 2645TIP3   OH229425   5.138   1.115   0.137 -0.1136  0.4709  0.3744
 2645TIP3    H129426   5.217   1.074   0.101 -0.3719  1.1769 -1.0393
 2645TIP3    H229427   5.165   1.203   0.160 -0.6630  0.9833 -0.8683
 2646TIP3   OH229428   4.451   2.444   1.568  0.4071 -0.2173  0.0020
 2646TIP3    H129429   4.384   2.498   1.610  1.3551  0.1937  1.0246
 2646TIP3    H229430   4.512   2.507   1.530  0.2588 -0.5870 -0.8685
 2647TIP3   OH229431   6.255   3.918  10.753  0.2021  0.0646  0.2589
 2647TIP3    H129432   6.217   3.922  10.665  0.4389  1.0702  0.2006
 2647TIP3    H229433   6.182   3.888  10.809  0.0474 -0.5525 -0.2629
 2648TIP3   OH229434   0.462   4.078   0.917 -0.0557 -0.0301  0.1599
 2648TIP3    H129435   0.547   4.034   0.920  0.0045  0.0916  0.2263
 2648TIP3    H229436   0.468   4.147   0.983  0.1059  0.5347 -0.4333
 2649TIP3   OH229437   1.408   0.899  11.855  0.2857  0.1363 -0.5803
 2649TIP3    H129438   1.321   0.940  11.849  1.1603  1.9684 -0.9449
 2649TIP3    H229439   1.394   0.821  11.908 -1.8927 -0.4326 -1.9157
 2650TIP3   OH229440   0.463   6.647   3.848  0.0802  0.0450  0.1581
 2650TIP3    H129441   0.390   6.629   3.788 -1.5032  0.7439  1.8287
 2650TIP3    H229442   0.432   6.616   3.933  1.4386  1.0587  1.0442
 2651TIP3   OH229443   0.989   5.445   5.369  0.2556  0.0652 -0.2139
 2651TIP3    H129444   1.010   5.353   5.384 -1.8663 -0.6420 -1.3485
 2651TIP3    H229445   0.898   5.453   5.396 -0.1375  1.3893 -1.8753
 2652TIP3   OH229446   0.240   2.452   0.660  0.2162 -0.4726  0.1828
 2652TIP3    H129447   0.213   2.387   0.724  0.2907  2.1919  3.0650
 2652TIP3    H229448   0.327   2.481   0.689  1.7097 -1.4518 -2.9904
 2653TIP3   OH229449   2.349   5.975   6.196 -0.4538  0.3025 -0.0974
 2653TIP3    H129450   2.364   5.882   6.179  1.6935  0.4265  0.8566
 2653TIP3    H229451   2.377   6.019   6.116 -0.5573  0.1728 -0.2029
 2654TIP3   OH229452   6.741   5.381  11.727 -0.1657  0.4528  0.0007
 2654TIP3    H129453   6.710   5.433  11.801 -1.9234 -1.2394  0.5045
 2654TIP3    H229454   6.669   5.385  11.663 -1.0282 -2.5817  0.7037
 2655TIP3   OH229455   3.403   3.581   3.143 -0.0488  0.3309 -0.2078
 2655TIP3    H129456   3.461   3.538   3.206  0.7133  0.5495 -0.7487
 2655TIP3    H229457   3.340   3.514   3.117 -2.0058  0.9288  2.7354
 2656TIP3   OH229458   6.288   1.752  15.310 -0.3124  0.2833  0.2912
 2656TIP3    H129459   6.233   1.827  15.287 -0.9932  0.1261  1.3944
 2656TIP3    H229460   6.373   1.773  15.272 -0.8355  1.0256 -0.5064
 2657TIP3   OH229461   3.605   2.888  13.481  0.2288  0.3278  0.1842
 2657TIP3    H129462   3.699   2.872  13.475  0.3053 -0.4882  2.7085
 2657TIP3    H229463   3.568   2.802  13.504 -1.0741  0.7333 -0.3645
 2658TIP3   OH229464   5.322   5.926   3.216  0.4888 -0.4204  0.3632
 2658TIP3    H129465   5.378   5.886   3.149 -1.6441 -0.9919 -1.1345
 2658TIP3    H229466   5.305   5.855   3.278 -0.9687 -1.1018 -0.7786
 2659TIP3   OH229467   0.531   2.950   5.345 -0.1633 -0.2838 -0.1354
 2659TIP3    H129468   0.495   3.031   5.310 -0.0823 -0.0647  0.2930
 2659TIP3    H229469   0.626   2.963   5.344 -0.1196 -0.6250 -0.6859
 2660TIP3   OH229470   4.550   1.941  10.084 -0.5891  0.2794 -1.0628
 2660TIP3    H129471   4.578   1.985  10.165 -0.7672  0.8399 -1.3057
 2660TIP3    H229472   4.566   1.849  10.101  2.3738  0.6537 -1.5366
 2661TIP3   OH229473   6.553   5.643   5.101  0.0061 -0.0204  0.1197
 2661TIP3    H129474   6.524   5.571   5.158  0.0815 -1.0035 -1.0760
 2661TIP3    H229475   6.611   5.695   5.157 -1.2214 -0.0397  1.4440
 2662TIP3   OH229476   5.330   3.984   4.674 -0.6985  0.4611  0.0772
 2662TIP3    H129477   5.253   4.039   4.686 -0.6655 -0.0306  2.7574
 2662TIP3    H229478   5.323   3.917   4.742  1.2880 -0.5520 -0.6627
 2663TIP3   OH229479   2.134   0.453   2.784 -0.3329 -0.6613  0.1833
 2663TIP3    H129480   2.161   0.543   2.764  0.0568 -0.9247 -0.4838
 2663TIP3    H229481   2.216   0.408   2.806 -0.0418 -1.7509 -2.8924
 2664TIP3   OH229482   1.336   5.322   5.254  0.0380 -0.3497  0.1739
 2664TIP3    H129483   1.272   5.262   5.215  0.3204 -1.1574  0.9122
 2664TIP3    H229484   1.364   5.379   5.183 -1.5787  0.0742 -0.1289
 2665TIP3   OH229485   2.513   4.202  14.138 -0.2604 -0.2256 -0.3616
 2665TIP3    H129486   2.527   4.239  14.050  2.1172  2.4340  1.0703
 2665TIP3    H229487   2.418   4.205  14.150 -0.5165  0.6473 -2.3074
 2666TIP3   OH229488   4.836   1.823  15.334 -0.5437 -0.2864  0.3947
 2666TIP3    H129489   4.869   1.775  15.410  0.1762  0.8940  0.8387
 2666TIP3    H229490   4.775   1.887  15.370 -0.4819  0.0325 -0.0552
 2667TIP3   OH229491   0.805   0.730   5.135  0.4879  0.2845 -0.8580
 2667TIP3    H129492   0.714   0.748   5.110  0.7437  1.9164 -0.6679
 2667TIP3    H229493   0.858   0.772   5.067  1.1058 -0.9166 -1.1312
 2668TIP3   OH229494   3.402   3.622  15.367 -0.5760  0.3443 -0.2030
 2668TIP3    H129495   3.407   3.544  15.422 -0.0775  0.8678  0.5077
 2668TIP3    H229496   3.492   3.635  15.335 -0.4403  1.2170  0.5203
 2669TIP3   OH229497   4.910   0.756   0.935 -0.0424  0.0345  0.0183
 2669TIP3    H129498   4.860   0.793   0.862 -0.5596  0.1597  0.4358
 2669TIP3    H229499   5.002   0.770   0.910 -0.2282  1.2822  0.0157
 2670TIP3   OH229500   4.422   6.632  15.314 -0.3752 -0.1382 -0.6885
 2670TIP3    H129501   4.451   6.697  15.250  1.6212 -0.4466 -0.1159
 2670TIP3    H229502   4.502   6.601  15.356 -1.6015 -0.4085  1.5382
 2671TIP3   OH229503   3.310   4.822   5.501  0.4834  0.2902  0.1521
 2671TIP3    H129504   3.381   4.774   5.458 -0.6592  0.1222 -1.6167
 2671TIP3    H229505   3.344   4.910   5.514  1.7628 -0.3624  1.2631
 2672TIP3   OH229506   3.554   4.892   2.610  0.8495  0.1950  0.0493
 2672TIP3    H129507   3.563   4.829   2.539  0.2824  0.1232  0.0403
 2672TIP3    H229508   3.460   4.912   2.613  0.9106  0.4072  0.5929
 2673TIP3   OH229509   3.118   3.357  14.930  0.2505 -0.4424  0.4765
 2673TIP3    H129510   3.163   3.326  15.009 -0.1548 -0.4259  0.7169
 2673TIP3    H229511   3.055   3.288  14.909 -1.2657  0.5676  1.5165
 2674TIP3   OH229512   4.508   0.192   4.255  0.1140 -0.1091 -0.2910
 2674TIP3    H129513   4.596   0.160   4.277  0.2661  0.4923 -0.0240
 2674TIP3    H229514   4.480   0.242   4.332 -1.2363 -1.8770  0.4028
 2675TIP3   OH229515   4.523   4.300  14.903 -0.4958  0.3978  0.5253
 2675TIP3    H129516   4.470   4.378  14.921 -0.4459  0.6909 -0.5558
 2675TIP3    H229517   4.613   4.327  14.924 -0.4815  0.6264  0.1713
 2676TIP3   OH229518   0.345   2.352  12.821  0.4107  0.0813  0.0471
 2676TIP3    H129519   0.366   2.259  12.830  0.5794 -0.0574 -1.7562
 2676TIP3    H229520   0.285   2.357  12.747 -1.0587  1.2174  1.2668
 2677TIP3   OH229521   5.241   5.967   6.422 -0.5111  0.1328 -0.2117
 2677TIP3    H129522   5.164   6.022   6.405 -0.5608 -0.0074 -0.4470
 2677TIP3    H229523   5.224   5.926   6.507  0.6720  2.4623  1.2045
 2678TIP3   OH229524   3.629   2.191  12.089 -0.0228  0.4852  0.4075
 2678TIP3    H129525   3.640   2.114  12.145 -2.6886 -1.1123 -1.1771
 2678TIP3    H229526   3.685   2.174  12.013  0.6923  0.9131  0.8327
 2679TIP3   OH229527   1.022   3.796   2.053  0.3560 -0.1814  0.3853
 2679TIP3    H129528   1.019   3.888   2.078  1.1310 -0.4390  1.4533
 2679TIP3    H229529   1.015   3.748   2.136 -0.9373 -1.1021 -0.2277
 2680TIP3   OH229530   4.357   0.767  14.379  0.5833  0.3179  0.3649
 2680TIP3    H129531   4.398   0.844  14.340  1.1216 -0.5458 -0.7991
 2680TIP3    H229532   4.340   0.792  14.470  1.6688  1.4500  0.2627
 2681TIP3   OH229533   6.519   1.099  11.784  0.3114  0.3519 -0.2177
 2681TIP3    H129534   6.530   1.042  11.861  1.7932  1.7053  0.6010
 2681TIP3    H229535   6.475   1.177  11.817 -2.2200 -0.5002 -1.4518
 2682TIP3   OH229536   6.247   1.434   3.057  0.1627  0.5515  0.2338
 2682TIP3    H129537   6.294   1.374   3.115 -0.1914 -0.6597 -0.7111
 2682TIP3    H229538   6.275   1.409   2.969  0.4992  2.2066 -0.1491
 2683TIP3   OH229539   6.652   1.571   5.190  0.5240  0.3511  0.2551
 2683TIP3    H129540   6.659   1.507   5.260  2.8006 -0.3773 -0.5800
 2683TIP3    H229541   6.559   1.575   5.169 -0.2137  0.6650  3.3501
 2684TIP3   OH229542   6.242   5.915  13.217  0.2943 -0.5832  0.2969
 2684TIP3    H129543   6.244   5.980  13.146 -3.6653 -0.4948  0.1483
 2684TIP3    H229544   6.256   5.966  13.297 -1.6403  0.3123  0.0836
 2685TIP3   OH229545   2.781   2.804  15.008  0.1145  0.6827 -0.1057
 2685TIP3    H129546   2.710   2.758  14.964  0.3277  1.2360 -1.0338
 2685TIP3    H229547   2.749   2.818  15.097 -0.5446  0.0722 -0.2450
 2686TIP3   OH229548   4.987   5.643  16.214 -0.6665 -0.0464  0.5483
 2686TIP3    H129549   5.032   5.663  16.132 -2.0406  0.3576 -0.1212
 2686TIP3    H229550   4.964   5.550  16.206  0.8519 -0.5068  1.2981
 2687TIP3   OH229551   3.884   4.051   2.367  0.7802  0.1550  0.4854
 2687TIP3    H129552   3.926   4.114   2.309 -0.5099  0.6214  0.0395
 2687TIP3    H229553   3.818   4.008   2.312  0.1344 -0.0103  1.3768
 2688TIP3   OH229554   5.201   2.092  12.897  0.1587 -0.5991 -0.1871
 2688TIP3    H129555   5.258   2.169  12.891 -1.1921  0.2156 -4.0693
 2688TIP3    H229556   5.246   2.033  12.956  0.9027  3.4460  3.5486
 2689TIP3   OH229557   0.225   4.972  16.684 -0.2498 -0.5666 -0.1329
 2689TIP3    H129558   0.188   4.884  16.689  0.3343 -0.8675 -0.8320
 2689TIP3    H229559   0.312   4.958  16.646 -1.4414  0.6338 -3.4716
 2690TIP3   OH229560   2.193   1.093  11.668 -0.2753  0.5390 -0.8272
 2690TIP3    H129561   2.173   1.022  11.729  0.2403  1.9208  0.9836
 2690TIP3    H229562   2.126   1.086  11.600 -1.6816 -0.1980  0.5981
 2691TIP3   OH229563   0.873   3.721  16.225  0.0864  0.1124  0.1301
 2691TIP3    H129564   0.910   3.633  16.235 -2.4611 -0.8588  1.2478
 2691TIP3    H229565   0.828   3.738  16.308  0.5752  2.5049 -0.0500
 2692TIP3   OH229566   2.332   4.334  14.608 -0.2540 -0.2368  0.0208
 2692TIP3    H129567   2.295   4.402  14.551 -1.5150 -0.0252  1.0696
 2692TIP3    H229568   2.326   4.254  14.556 -2.2960 -0.2164  0.1880
 2693TIP3   OH229569   6.479   4.967  13.492  0.3722 -0.6398 -0.1663
 2693TIP3    H129570   6.496   4.996  13.582  0.1536  0.6918 -0.5425
 2693TIP3    H229571   6.560   4.989  13.444 -0.4473  1.0029 -0.8376
 2694TIP3   OH229572   5.032   1.735   1.301 -0.5211  0.3116  0.5086
 2694TIP3    H129573   5.105   1.714   1.359 -2.7388 -0.0504  3.2512
 2694TIP3    H229574   5.030   1.830   1.298  0.5179  0.3178 -0.1996
 2695TIP3   OH229575   3.959   6.192   5.714  0.1292  0.1674 -1.1236
 2695TIP3    H129576   3.946   6.230   5.801 -2.2303 -1.5065 -0.7223
 2695TIP3    H229577   4.052   6.169   5.712  0.0644 -0.4346  1.2263
 2696TIP3   OH229578   4.390   1.230   1.633 -0.2316  0.3318 -0.0449
 2696TIP3    H129579   4.330   1.302   1.653  0.3100  0.3866  1.4681
 2696TIP3    H229580   4.333   1.153   1.627 -0.3586  0.1370  2.7885
 2697TIP3   OH229581   1.533   2.649  12.468 -0.4847 -0.4038 -0.1422
 2697TIP3    H129582   1.452   2.660  12.517 -1.4778  0.5132 -1.9503
 2697TIP3    H229583   1.600   2.689  12.524 -2.0503  3.3475 -0.7756
 2698TIP3   OH229584   0.465   4.594  17.169 -0.8454 -0.5502 -0.6241
 2698TIP3    H129585   0.542   4.616  17.221 -0.5243  1.1336 -1.7916
 2698TIP3    H229586   0.433   4.511  17.207 -1.0087  0.9353  2.6535
 2699TIP3   OH229587   2.448   3.617  13.330 -0.2265  0.3393  0.3710
 2699TIP3    H129588   2.460   3.691  13.389 -1.6294  1.3695 -0.5964
 2699TIP3    H229589   2.385   3.560  13.374  0.2327  0.1157  0.7463
 2700TIP3   OH229590   2.903   2.506  12.456 -0.6027 -0.3376  0.2090
 2700TIP3    H129591   2.881   2.441  12.389  0.1516 -0.2286 -0.1403
 2700TIP3    H229592   2.863   2.471  12.536 -2.1892 -0.0684 -0.4338
 2701TIP3   OH229593   4.803   3.670  12.693  0.1013  0.2058  0.0576
 2701TIP3    H129594   4.784   3.579  12.669  1.2924  0.1843 -0.8228
 2701TIP3    H229595   4.721   3.717  12.675 -0.1945 -0.4972 -0.4650
 2702TIP3   OH229596   5.483   1.679   3.250  0.4473  0.0662 -0.0604
 2702TIP3    H129597   5.537   1.752   3.281 -0.3579 -0.1985  2.0563
 2702TIP3    H229598   5.407   1.720   3.209  1.1912  0.4278 -1.0712
 2703TIP3   OH229599   1.964   5.132  14.316  0.0247 -0.4253 -0.4619
 2703TIP3    H129600   2.047   5.173  14.290 -0.4362  0.7859 -0.0542
 2703TIP3    H229601   1.960   5.051  14.264  0.6868  0.3136 -1.6942
 2704TIP3   OH229602   0.066   1.080  15.567 -0.1246  0.1033  0.1504
 2704TIP3    H129603   0.061   1.079  15.472 -0.7398 -0.5318  0.1868
 2704TIP3    H229604   0.135   1.144  15.587  1.1970 -1.0252 -0.7462
 2705TIP3   OH229605   1.152   4.375  16.726 -0.2435  0.8011 -0.3641
 2705TIP3    H129606   1.204   4.295  16.722 -0.9573  0.1551  2.2619
 2705TIP3    H229607   1.180   4.426  16.649  1.5866 -1.1036 -1.0153
 2706TIP3   OH229608   1.741   0.771  11.434 -0.2200 -0.1660 -0.1878
 2706TIP3    H129609   1.647   0.769  11.414 -0.0104 -0.5157 -1.2048
 2706TIP3    H229610   1.781   0.720  11.363  0.4341 -2.7499  1.9720
 2707TIP3   OH229611   0.072   1.139   2.356  0.0097  0.0264 -0.1820
 2707TIP3    H129612   0.043   1.072   2.417  0.5053  0.6469  0.7517
 2707TIP3    H229613   0.165   1.120   2.342  0.0072  0.1613 -0.3918
 2708TIP3   OH229614   4.214   1.871   0.218  0.7792 -0.5747 -0.0374
 2708TIP3    H129615   4.274   1.800   0.242 -1.5855 -2.2620  1.0921
 2708TIP3    H229616   4.227   1.937   0.286  1.5887 -0.7874  0.0188
 2709TIP3   OH229617   4.664   2.527   5.619 -0.4123  0.0468 -0.0753
 2709TIP3    H129618   4.660   2.612   5.663  3.0116  0.1630  0.1583
 2709TIP3    H229619   4.708   2.546   5.536 -0.6452 -1.3179 -0.5088
 2710TIP3   OH229620   1.499   5.401   5.039  0.0844  0.3770 -0.3473
 2710TIP3    H129621   1.547   5.446   4.970 -0.6489  2.4580  0.4768
 2710TIP3    H229622   1.567   5.372   5.101  0.6262 -0.3979 -1.2896
 2711TIP3   OH229623   5.715   3.830   2.293  0.2726  0.4873  0.3466
 2711TIP3    H129624   5.638   3.877   2.325 -0.3515 -0.6082  0.4561
 2711TIP3    H229625   5.785   3.896   2.295 -0.4335  1.2306  1.1533
 2712TIP3   OH229626   2.411   0.450  14.286 -0.8708 -0.4168 -0.1994
 2712TIP3    H129627   2.349   0.517  14.314  1.4811  1.5424  0.5190
 2712TIP3    H229628   2.445   0.414  14.368 -0.3066 -0.7397 -0.5754
 2713TIP3   OH229629   0.485   0.497   4.861  0.0003 -0.0131 -0.2312
 2713TIP3    H129630   0.473   0.449   4.943  0.9450 -2.0799 -1.2623
 2713TIP3    H229631   0.403   0.482   4.813 -0.4896  1.0662  0.2473
 2714TIP3   OH229632   2.700   3.605  12.296  0.1266  0.3269  0.2656
 2714TIP3    H129633   2.635   3.539  12.269  0.9747  0.1767 -1.5225
 2714TIP3    H229634   2.675   3.684  12.248  0.9032  0.4344  0.0251
 2715TIP3   OH229635   1.836   0.235   1.359 -0.6622 -0.3996  0.5153
 2715TIP3    H129636   1.769   0.178   1.397 -0.5779  0.7014  2.3547
 2715TIP3    H229637   1.837   0.312   1.415  1.1152  0.2428 -0.3670
 2716TIP3   OH229638   0.797   6.734  11.971 -0.1055 -0.2511 -0.0770
 2716TIP3    H129639   0.708   6.717  11.940 -0.0700 -1.3851  0.4430
 2716TIP3    H229640   0.788   6.745  12.066 -0.0150  1.9036 -0.2873
 2717TIP3   OH229641   3.776   4.268  12.684 -0.3416 -0.4823 -0.6698
 2717TIP3    H129642   3.699   4.212  12.682  0.6601 -1.8629 -2.1220
 2717TIP3    H229643   3.765   4.328  12.611 -0.4172 -0.1457 -0.3855
 2718TIP3   OH229644   5.373   6.351  16.287 -0.5777  0.3257  0.3274
 2718TIP3    H129645   5.349   6.267  16.247  1.0941 -0.6109  1.2187
 2718TIP3    H229646   5.429   6.393  16.222  2.0157 -1.1298  1.5523
 2719TIP3   OH229647   3.710   5.935   4.666 -0.3420 -0.1803  0.2347
 2719TIP3    H129648   3.787   5.922   4.610  0.0299 -1.0078  0.9330
 2719TIP3    H229649   3.730   5.888   4.746 -1.4025 -0.0431  0.5894
 2720TIP3   OH229650   3.805   0.460   1.136  0.7969  0.0112 -0.0576
 2720TIP3    H129651   3.840   0.408   1.208 -0.4102 -1.6275 -0.6247
 2720TIP3    H229652   3.874   0.460   1.070  1.4268  0.4981  0.5942
 2721TIP3   OH229653   6.718   5.636  17.079 -0.1082  0.0450  0.0963
 2721TIP3    H129654   6.723   5.730  17.093 -0.2098 -0.0336  0.6840
 2721TIP3    H229655   6.624   5.617  17.079 -0.2410  0.3632 -2.9709
 2722TIP3   OH229656   5.622   3.274  17.225 -0.1136  0.0690  0.1882
 2722TIP3    H129657   5.559   3.238  17.288 -1.5048  1.2314 -0.5076
 2722TIP3    H229658   5.706   3.267  17.270 -0.7281 -1.4559  1.1655
 2723TIP3   OH229659   0.483   6.109   1.286 -0.1613 -0.1600 -0.4278
 2723TIP3    H129660   0.420   6.115   1.214  0.1354 -1.3794 -0.8039
 2723TIP3    H229661   0.568   6.128   1.245 -0.4783  3.4372  0.4555
 2724TIP3   OH229662   1.292   0.993   4.388 -0.4454 -0.0406  0.1148
 2724TIP3    H129663   1.378   1.030   4.411  0.2524  0.3103 -2.8600
 2724TIP3    H229664   1.307   0.898   4.389  0.9770  0.0592 -3.7120
 2725TIP3   OH229665   3.381   0.382   5.318  0.0099  0.0397  0.2119
 2725TIP3    H129666   3.460   0.338   5.286  0.3781  0.0859  1.0394
 2725TIP3    H229667   3.413   0.449   5.378 -0.5484  1.4243 -0.9958
 2726TIP3   OH229668   5.009   4.435  11.312  0.5188  0.0785  0.4090
 2726TIP3    H129669   5.044   4.490  11.242  0.0956  0.3676  0.4217
 2726TIP3    H229670   5.029   4.346  11.285  2.3782  0.2974  1.0243
 2727TIP3   OH229671   5.428   4.688  12.064 -0.2512  0.5013 -0.0165
 2727TIP3    H129672   5.402   4.617  12.006  0.4534  0.4651 -0.2951
 2727TIP3    H229673   5.524   4.683  12.066 -0.2662  0.5469  1.0888
 2728TIP3   OH229674   3.698   2.660  12.730 -0.1562 -0.2851 -0.1440
 2728TIP3    H129675   3.681   2.747  12.693  1.7315 -0.5955 -1.8015
 2728TIP3    H229676   3.611   2.628  12.757 -0.5614  3.2927  3.3059
 2729TIP3   OH229677   5.153   1.288  13.124  0.5319  0.1174 -0.1588
 2729TIP3    H129678   5.072   1.238  13.118  1.7132 -1.8952  0.2481
 2729TIP3    H229679   5.211   1.248  13.060  2.0789 -0.1858  1.3734
 2730TIP3   OH229680   0.075   5.827   5.179 -0.4132 -0.6162 -0.6680
 2730TIP3    H129681   0.123   5.885   5.238 -0.1240 -2.3246  0.8341
 2730TIP3    H229682   0.031   5.886   5.118  0.5143  1.1336  0.3055
 2731TIP3   OH229683   5.442   3.710  15.093  0.3645  0.1645 -0.5448
 2731TIP3    H129684   5.441   3.744  15.182 -1.2082 -0.2761 -0.3745
 2731TIP3    H229685   5.531   3.727  15.061  0.8177  0.6672  0.9641
 2732TIP3   OH229686   2.228   0.484   0.780 -0.0436 -0.3502 -0.1441
 2732TIP3    H129687   2.237   0.510   0.689  2.1481  2.3903  0.7715
 2732TIP3    H229688   2.157   0.538   0.814  0.6273  0.2885  0.2864
 2733TIP3   OH229689   0.662   1.686  16.840  0.5311  0.4010 -0.4984
 2733TIP3    H129690   0.588   1.627  16.857  0.9682  0.2170  0.8415
 2733TIP3    H229691   0.622   1.768  16.812 -0.0785 -0.6929 -2.9297
 2734TIP3   OH229692   6.358   1.780   1.137 -0.0826 -0.7438  0.4803
 2734TIP3    H129693   6.425   1.768   1.205  0.8652  0.5897 -0.1885
 2734TIP3    H229694   6.405   1.765   1.055 -0.7063 -0.2183  0.0303
 2735TIP3   OH229695   4.060   3.011  12.775  0.0487 -0.8122 -0.2477
 2735TIP3    H129696   3.993   3.055  12.828  1.1867  0.6850  0.0021
 2735TIP3    H229697   4.142   3.054  12.801  1.1022 -2.6407 -0.5195
 2736TIP3   OH229698   3.140   4.426  11.643 -0.4569  0.1420  0.1689
 2736TIP3    H129699   3.047   4.437  11.664 -0.5020 -0.5858  0.3546
 2736TIP3    H229700   3.178   4.387  11.721  0.0533  0.6266  0.1681
 2737TIP3   OH229701   6.188   2.673  11.188  0.1354 -0.4358 -0.3075
 2737TIP3    H129702   6.128   2.729  11.139 -1.5784 -0.9581  1.1139
 2737TIP3    H229703   6.268   2.670  11.136 -0.2934  2.0877 -1.1518
 2738TIP3   OH229704   1.904   2.820   5.946 -0.1133  0.0191 -0.5082
 2738TIP3    H129705   1.992   2.783   5.959  0.5552  1.4454 -0.9381
 2738TIP3    H229706   1.872   2.836   6.035  0.4363  0.3787 -0.3747
 2739TIP3   OH229707   3.408   6.661  12.185 -0.6785  0.6628  0.1772
 2739TIP3    H129708   3.445   6.721  12.251  0.0581 -0.0995  0.4687
 2739TIP3    H229709   3.426   6.574  12.219 -2.2775  0.2635  0.0427
 2740TIP3   OH229710   0.687   4.813  12.698  0.0386 -0.2138  0.0731
 2740TIP3    H129711   0.706   4.829  12.790  0.4767  0.5485 -0.1442
 2740TIP3    H229712   0.713   4.721  12.683  0.8244 -0.0615  0.4871
 2741TIP3   OH229713   3.133   1.933  16.783 -0.1791 -0.1079 -0.2382
 2741TIP3    H129714   3.150   1.971  16.869 -1.5241  0.0721 -0.0374
 2741TIP3    H229715   3.128   1.838  16.800  1.1312 -0.2122 -0.3929
 2742TIP3   OH229716   3.305   0.899   3.919  0.1514 -0.4151  0.2546
 2742TIP3    H129717   3.332   0.869   3.832 -2.1300 -0.7610 -0.3557
 2742TIP3    H229718   3.289   0.993   3.908  2.1976  0.0366  0.9076
 2743TIP3   OH229719   4.880   1.769  13.839  0.0438  0.0131  0.2974
 2743TIP3    H129720   4.907   1.854  13.802 -1.1863  0.9082  1.4171
 2743TIP3    H229721   4.954   1.711  13.820  0.4860  1.0697 -1.3761
 2744TIP3   OH229722   1.239   5.812   2.926  0.0407 -0.2658 -0.1434
 2744TIP3    H129723   1.294   5.880   2.888 -0.1878 -0.6367 -1.1298
 2744TIP3    H229724   1.297   5.766   2.987  0.4729  0.1576 -0.2324
 2745TIP3   OH229725   6.631   3.667  12.077 -0.2485 -0.7360 -0.4879
 2745TIP3    H129726   6.660   3.622  12.156  1.2640  1.7085  0.4214
 2745TIP3    H229727   6.694   3.642  12.010 -0.5332 -1.4488 -0.4979
 2746TIP3   OH229728   0.470   0.089  12.656 -0.3039 -0.2350 -0.5961
 2746TIP3    H129729   0.535   0.020  12.671 -1.1699 -0.6953  1.1477
 2746TIP3    H229730   0.425   0.063  12.575 -1.1333 -2.1401  0.4529
 2747TIP3   OH229731   0.722   3.662   6.165  0.3730  0.2651  0.0678
 2747TIP3    H129732   0.649   3.709   6.125 -0.6441 -0.4841  1.0001
 2747TIP3    H229733   0.800   3.697   6.123 -0.4824  1.5827 -0.4317
 2748TIP3   OH229734   4.295   6.647  16.060  0.1150  0.1149 -0.1028
 2748TIP3    H129735   4.358   6.661  16.130 -0.1470  0.4412  0.0703
 2748TIP3    H229736   4.222   6.601  16.102 -0.2557  0.7454 -0.0509
 2749TIP3   OH229737   4.972   2.463  15.792 -0.0662 -0.1297  0.1677
 2749TIP3    H129738   4.917   2.533  15.829 -0.3178 -0.7781  1.0454
 2749TIP3    H229739   4.929   2.439  15.710  0.4437  1.2643 -0.5176
 2750TIP3   OH229740   2.037   3.554  15.490 -0.0655 -0.3585 -0.0232
 2750TIP3    H129741   2.069   3.509  15.412 -0.2931  0.3343 -0.5215
 2750TIP3    H229742   1.975   3.619  15.456  0.5559  0.5937  0.6582
 2751TIP3   OH229743   2.346   4.317  15.581  0.2938 -0.3698  0.0464
 2751TIP3    H129744   2.347   4.412  15.578 -1.2077 -0.3743 -0.7741
 2751TIP3    H229745   2.258   4.294  15.610 -0.0432 -1.5596 -1.8332
 2752TIP3   OH229746   0.625   5.821  10.927  0.4001  0.4080 -0.1108
 2752TIP3    H129747   0.676   5.784  10.855  1.2182 -0.9206  1.1066
 2752TIP3    H229748   0.630   5.915  10.915 -1.7432  0.1661 -3.3339
 2753TIP3   OH229749   6.673   1.854   0.741 -0.1422  0.4995 -0.4802
 2753TIP3    H129750   6.755   1.826   0.782 -0.0540 -1.4521 -1.8998
 2753TIP3    H229751   6.662   1.945   0.769  1.0336 -0.0838  2.0137
 2754TIP3   OH229752   4.591   4.603   2.803  0.0618  0.5354  0.3114
 2754TIP3    H129753   4.657   4.635   2.864 -0.2567 -1.6618  1.8729
 2754TIP3    H229754   4.510   4.648   2.829  0.3020  0.9461  0.3528
 2755TIP3   OH229755   2.309   3.519  14.832  0.1323 -0.1005 -0.6663
 2755TIP3    H129756   2.231   3.474  14.864 -1.4165  0.5183 -3.4225
 2755TIP3    H229757   2.359   3.452  14.786  0.9040 -0.3403  0.5010
 2756TIP3   OH229758   4.405   4.031   4.588 -0.4747 -0.0793  0.3445
 2756TIP3    H129759   4.446   4.106   4.544 -1.2251  0.4621  0.5489
 2756TIP3    H229760   4.317   4.062   4.609 -0.8846 -1.1147  0.1834
 2757TIP3   OH229761   6.439   0.974  15.566  0.4098  0.1598 -0.1069
 2757TIP3    H129762   6.378   0.951  15.636 -1.4155  2.1279 -0.9888
 2757TIP3    H229763   6.525   0.951  15.600 -0.7000 -1.5139  1.6570
 2758TIP3   OH229764   0.047   1.912  11.506  0.3234 -0.1426  0.2586
 2758TIP3    H129765  -0.004   1.845  11.462  0.1557 -0.3197  0.7180
 2758TIP3    H229766  -0.003   1.932  11.585 -0.4084  1.6169 -0.6277
 2759TIP3   OH229767   5.532   0.726   0.122  0.8272 -0.0452  0.1720
 2759TIP3    H129768   5.446   0.768   0.117  1.1709  0.4672 -1.9088
 2759TIP3    H229769   5.531   0.680   0.206 -2.1803 -1.6230 -0.6558
 2760TIP3   OH229770   1.908   4.764   2.246  0.2769  0.3139 -0.5143
 2760TIP3    H129771   1.947   4.710   2.177 -1.5448 -0.4288 -0.9980
 2760TIP3    H229772   1.884   4.846   2.202  0.8875  0.6062 -0.3110
 2761TIP3   OH229773   5.263   6.573  13.741 -0.3559  0.0459 -0.6101
 2761TIP3    H129774   5.186   6.527  13.708  0.3122 -2.1890  0.8099
 2761TIP3    H229775   5.302   6.613  13.663 -1.7890 -0.5782 -1.6722
 2762TIP3   OH229776   1.283   2.206  13.923 -0.0655 -0.5553  0.2084
 2762TIP3    H129777   1.199   2.170  13.949  0.8232 -0.3875  3.4770
 2762TIP3    H229778   1.262   2.292  13.887 -1.2920 -0.4847  1.0687
 2763TIP3   OH229779   6.433   2.718   1.682 -0.2234 -0.1465  0.5234
 2763TIP3    H129780   6.379   2.654   1.729 -0.1492  0.1552  1.0146
 2763TIP3    H229781   6.372   2.761   1.623 -0.2554 -0.7383  0.1167
 2764TIP3   OH229782   3.692   3.161   3.900 -0.5221 -0.4704  0.3469
 2764TIP3    H129783   3.777   3.203   3.888 -2.0813  1.8019 -3.8444
 2764TIP3    H229784   3.643   3.222   3.956 -1.7543  2.0477 -3.2708
 2765TIP3   OH229785   3.505   2.085   2.189 -0.6012 -0.1924 -0.8313
 2765TIP3    H129786   3.483   2.123   2.104 -2.0823 -0.9266 -0.7905
 2765TIP3    H229787   3.573   2.021   2.170 -2.2967 -1.7547 -1.7607
 2766TIP3   OH229788   6.067   6.655   4.357 -0.3746  0.1828  0.1108
 2766TIP3    H129789   6.025   6.649   4.443  1.1542 -0.2967  0.8399
 2766TIP3    H229790   6.041   6.574   4.313  0.8708 -0.7487  1.0646
 2767TIP3   OH229791   4.022   3.455   4.694 -0.5344 -0.1373  0.2634
 2767TIP3    H129792   4.116   3.452   4.710 -0.1268  1.2038 -1.5791
 2767TIP3    H229793   4.003   3.376   4.643  0.1797  1.0662 -1.9410
 2768TIP3   OH229794   6.716   5.960   1.765 -0.4442 -0.3977 -0.0959
 2768TIP3    H129795   6.782   6.030   1.770 -0.1698 -0.5406 -1.6474
 2768TIP3    H229796   6.729   5.909   1.845  0.3285  0.4675  0.3340
 2769TIP3   OH229797   6.812   6.772   1.538  0.1628 -0.0456  0.2552
 2769TIP3    H129798   6.855   6.825   1.471  1.7413 -0.5004  0.8916
 2769TIP3    H229799   6.745   6.723   1.490  0.4731  0.5151 -0.7772
 2770TIP3   OH229800   3.336   6.339   3.862  0.2035 -0.5780  0.0011
 2770TIP3    H129801   3.349   6.382   3.777  0.7734 -2.2853 -0.7969
 2770TIP3    H229802   3.311   6.410   3.921 -1.8334  0.3963 -1.9484
 2771TIP3   OH229803   1.897   2.059  14.798 -0.1196 -0.5978  0.4439
 2771TIP3    H129804   1.975   2.059  14.854  0.8817 -0.1729 -0.9195
 2771TIP3    H229805   1.836   2.119  14.841  1.6085  1.6889 -0.2086
 2772TIP3   OH229806   4.806   6.608  11.955  0.0143  0.4198  0.8757
 2772TIP3    H129807   4.733   6.547  11.966  0.2283  0.1942  1.0292
 2772TIP3    H229808   4.775   6.669  11.888  0.4376 -0.8498 -0.5093
 2773TIP3   OH229809   1.029   3.345   2.410 -0.0667 -0.5044 -0.4713
 2773TIP3    H129810   0.962   3.306   2.466  0.6389 -1.9973 -0.6272
 2773TIP3    H229811   0.979   3.384   2.337 -0.9738  1.4050  1.1269
 2774TIP3   OH229812   2.100   1.460  16.711  0.0702  0.2951  0.5109
 2774TIP3    H129813   2.009   1.479  16.691  0.4570  0.5234 -1.0809
 2774TIP3    H229814   2.101   1.446  16.806 -1.2516  2.3004  0.8472
 2775TIP3   OH229815   0.248   5.889   1.153 -0.2467  0.0753 -0.6588
 2775TIP3    H129816   0.233   5.796   1.140 -0.0032  0.0698 -0.9170
 2775TIP3    H229817   0.302   5.915   1.078  0.1838  0.2986 -0.2728
 2776TIP3   OH229818   2.329   1.838   2.748 -0.0011  0.5227  0.2105
 2776TIP3    H129819   2.283   1.799   2.674 -0.8981  2.5421 -0.3308
 2776TIP3    H229820   2.420   1.809   2.737 -0.2654  0.1876 -1.2662
 2777TIP3   OH229821   1.685   1.404   2.712  0.0549 -0.3099 -0.7967
 2777TIP3    H129822   1.676   1.422   2.618  1.3089  1.2214 -0.6548
 2777TIP3    H229823   1.685   1.491   2.752 -0.4370 -0.9604  0.6206
 2778TIP3   OH229824   4.146   0.085   2.744  0.0257  0.0149  0.2271
 2778TIP3    H129825   4.081   0.023   2.779 -3.5410  3.6662  0.5374
 2778TIP3    H229826   4.174   0.136   2.821  3.4681 -1.5996  0.1090
 2779TIP3   OH229827   4.005   5.912  14.534  0.1880  0.5153 -0.1728
 2779TIP3    H129828   3.996   5.906  14.439 -0.3491 -3.7539  0.0674
 2779TIP3    H229829   4.091   5.875  14.552  0.0470  0.7939  1.0752
 2780TIP3   OH229830   3.916   6.744  17.012  0.9146 -0.4769 -0.1017
 2780TIP3    H129831   3.978   6.722  16.942  0.8740 -1.6636  0.2315
 2780TIP3    H229832   3.927   6.838  17.025  2.4323 -0.6314 -0.2489
 2781TIP3   OH229833   5.810   2.390   5.454 -0.0086  0.1775 -0.1658
 2781TIP3    H129834   5.724   2.407   5.493  1.3589  0.6580  2.8033
 2781TIP3    H229835   5.844   2.314   5.501  0.9505 -0.3856 -1.7216
 2782TIP3   OH229836   5.688   3.597  11.491 -0.1823  0.2723  0.5043
 2782TIP3    H129837   5.730   3.670  11.535  0.5588  0.2828 -0.2239
 2782TIP3    H229838   5.601   3.630  11.468 -0.3894  0.4357  1.4817
 2783TIP3   OH229839   2.267   5.509  12.189  0.0062 -0.2887  0.0238
 2783TIP3    H129840   2.247   5.416  12.198  1.5558 -0.7119 -0.8312
 2783TIP3    H229841   2.188   5.554  12.221 -1.1528 -1.8861 -0.5638
 2784TIP3   OH229842   5.146   3.772  13.079 -0.0180  0.1076  0.1840
 2784TIP3    H129843   5.092   3.810  13.148 -0.5290 -0.0182 -0.1470
 2784TIP3    H229844   5.199   3.705  13.124 -2.1596 -1.7532  0.0256
 2785TIP3   OH229845   2.090   3.826   4.294 -0.1129  0.4237  0.0379
 2785TIP3    H129846   2.134   3.791   4.371 -0.9076 -2.2998 -0.6655
 2785TIP3    H229847   2.149   3.805   4.221 -0.9262 -0.1237 -0.4781
 2786TIP3   OH229848   0.428   0.156   3.796 -0.0941  0.2760 -0.2523
 2786TIP3    H129849   0.467   0.074   3.765 -2.5376 -1.4907  1.1440
 2786TIP3    H229850   0.478   0.178   3.875  0.8975  0.4272 -0.9141
 2787TIP3   OH229851   5.418   6.070   2.960 -0.4358 -0.5879  0.0027
 2787TIP3    H129852   5.351   6.099   3.022 -0.8116 -3.4717  0.9974
 2787TIP3    H229853   5.370   6.049   2.880 -0.6468 -1.8408  0.4432
 2788TIP3   OH229854   1.057   5.145   1.343 -0.1205  0.3700 -0.0869
 2788TIP3    H129855   1.012   5.171   1.262 -1.0526  0.9122  0.5925
 2788TIP3    H229856   1.033   5.053   1.355  0.9037 -0.0167 -1.0067
 2789TIP3   OH229857   4.115   1.342  17.239 -0.2589  0.1664  0.3297
 2789TIP3    H129858   4.112   1.364  17.332  2.2023 -0.9989  0.7211
 2789TIP3    H229859   4.182   1.400  17.202  0.2567 -0.8135 -0.2984
 2790TIP3   OH229860   5.176   4.314   1.053 -0.6688  0.2188 -0.3009
 2790TIP3    H129861   5.259   4.361   1.046 -1.0126  0.5304 -2.5634
 2790TIP3    H229862   5.110   4.382   1.061 -0.9240  0.0533 -0.9463
 2791TIP3   OH229863   4.348   4.592  15.083 -0.1645  0.3255 -0.3989
 2791TIP3    H129864   4.303   4.599  14.998  0.8195  3.4175 -0.7294
 2791TIP3    H229865   4.441   4.600  15.062  0.1708 -0.1912  0.8455
 2792TIP3   OH229866   5.984   6.197  16.619  0.3999  0.1387  0.0476
 2792TIP3    H129867   5.906   6.203  16.564  0.8941  1.4564 -0.5387
 2792TIP3    H229868   5.951   6.180  16.707 -0.6340  1.9744  0.0397
 2793TIP3   OH229869   5.167   6.199  12.601  0.0453 -0.0980 -0.7204
 2793TIP3    H129870   5.250   6.221  12.559  0.7073 -2.8993 -0.9520
 2793TIP3    H229871   5.186   6.203  12.695 -0.2677  1.7698 -0.7113
 2794TIP3   OH229872   1.222   6.739   1.840  0.4400  0.8765 -0.3066
 2794TIP3    H129873   1.233   6.832   1.818  0.0807  0.2473 -3.2935
 2794TIP3    H229874   1.289   6.694   1.790  0.6618 -0.5117  1.1882
 2795TIP3   OH229875   0.895   1.292   2.685  0.6495 -0.1094  0.1439
 2795TIP3    H129876   0.893   1.375   2.637  1.5084 -0.1027  0.1101
 2795TIP3    H229877   0.866   1.227   2.620 -0.6641  0.2449  0.3619
 2796TIP3   OH229878   5.578   1.281   5.019 -0.3834 -0.3801  0.3058
 2796TIP3    H129879   5.650   1.219   5.028 -0.8636 -0.9700  0.1771
 2796TIP3    H229880   5.527   1.270   5.099  0.3446  0.9209  0.9545
 2797TIP3   OH229881   0.360   1.847  15.392  0.2165 -0.2193 -0.8081
 2797TIP3    H129882   0.435   1.899  15.421 -1.4759  1.7978  0.1011
 2797TIP3    H229883   0.347   1.872  15.300  0.4869 -0.3339 -0.8751
 2798TIP3   OH229884   3.095   0.497  11.263  0.0190  0.7789  0.7566
 2798TIP3    H129885   3.021   0.529  11.315  0.0249  2.5604 -0.2906
 2798TIP3    H229886   3.077   0.404  11.251 -1.6211  1.0085  1.2505
 2799TIP3   OH229887   1.830   1.608  15.066 -0.9808 -0.1694 -0.0174
 2799TIP3    H129888   1.909   1.564  15.032 -1.0548 -0.6670  0.4412
 2799TIP3    H229889   1.757   1.560  15.026 -1.0621  0.7036 -0.9591
 2800TIP3   OH229890   5.548   5.623  14.647 -0.5267  0.1772 -0.2490
 2800TIP3    H129891   5.553   5.529  14.660 -1.8779  0.1267 -0.0371
 2800TIP3    H229892   5.575   5.636  14.556  1.0376 -0.2522  0.1267
 2801TIP3   OH229893   4.177   4.449   0.705  0.2162 -0.1174  0.0535
 2801TIP3    H129894   4.121   4.407   0.639 -1.2037  0.1930  1.0530
 2801TIP3    H229895   4.145   4.416   0.789 -0.1795  2.0701  0.7891
 2802TIP3   OH229896   0.165   0.841  15.738  0.5519  0.5499  0.7789
 2802TIP3    H129897   0.170   0.785  15.815 -1.7910 -0.0050  0.5638
 2802TIP3    H229898   0.174   0.782  15.663  2.8477  1.0892  0.5864
 2803TIP3   OH229899   2.991   3.532   0.988 -0.1408  0.3461 -0.1412
 2803TIP3    H129900   3.075   3.492   1.011 -1.1553 -1.9037 -0.2018
 2803TIP3    H229901   2.944   3.536   1.071 -1.6207 -2.4840 -0.7891
 2804TIP3   OH229902   2.435   3.019   1.937 -0.2125  0.0883 -0.4115
 2804TIP3    H129903   2.493   2.961   1.888 -0.8700  1.0417 -2.3747
 2804TIP3    H229904   2.490   3.093   1.961 -0.1944  0.2254 -0.8578
 2805TIP3   OH229905   6.425   0.579  16.519 -0.2474  0.2400 -0.0693
 2805TIP3    H129906   6.334   0.561  16.495 -0.0058  1.3317 -1.9000
 2805TIP3    H229907   6.423   0.587  16.614 -1.8382 -0.9730  0.0233
 2806TIP3   OH229908   3.644   3.828  15.001  0.1519 -0.1803  0.1684
 2806TIP3    H129909   3.663   3.735  14.996  1.0460  0.0027  0.0661
 2806TIP3    H229910   3.551   3.835  14.978  0.0215 -1.0610  0.4059
 2807TIP3   OH229911   3.541   3.903   4.036  0.5271 -0.0173  0.1674
 2807TIP3    H129912   3.459   3.924   4.080  0.3733  0.4945 -0.3521
 2807TIP3    H229913   3.523   3.919   3.943  0.7427 -1.4255 -0.1197
 2808TIP3   OH229914   6.040   3.584  12.299 -0.4682  0.1946  0.6069
 2808TIP3    H129915   6.069   3.624  12.381  0.3083  0.6550  0.1178
 2808TIP3    H229916   6.105   3.611  12.235 -0.3510 -1.2303  0.0982
 2809TIP3   OH229917   6.529   0.585   3.234  0.0633  0.5080  0.0889
 2809TIP3    H129918   6.440   0.551   3.245 -0.1398  0.5064 -1.4881
 2809TIP3    H229919   6.584   0.507   3.226 -0.0709  0.5199 -1.0008
 2810TIP3   OH229920   0.936   2.759  11.252 -0.0219  0.2829 -0.4068
 2810TIP3    H129921   0.987   2.767  11.332 -0.7931  1.6031 -0.0366
 2810TIP3    H229922   0.994   2.712  11.191  0.2143 -1.5760  1.2053
 2811TIP3   OH229923   6.044   0.792  12.731  0.0376 -0.2698  0.4985
 2811TIP3    H129924   6.038   0.757  12.642  0.4833  1.0500 -0.0455
 2811TIP3    H229925   6.057   0.714  12.786 -2.1982 -1.3073 -0.3577
 2812TIP3   OH229926   2.786   4.534  12.282 -0.0892 -0.2804 -0.5648
 2812TIP3    H129927   2.828   4.514  12.366  0.6581  0.6812 -0.7027
 2812TIP3    H229928   2.707   4.479  12.281  0.1772 -0.6968  0.5264
 2813TIP3   OH229929   1.448   4.054   1.574  0.0536  0.1694 -0.0998
 2813TIP3    H129930   1.445   4.116   1.501 -1.5507 -1.5501 -1.5296
 2813TIP3    H229931   1.388   4.090   1.639 -0.3351  0.4764 -0.6260
 2814TIP3   OH229932   5.093   1.514   5.961 -0.0770  0.2315  0.4389
 2814TIP3    H129933   5.036   1.495   5.887 -2.0256  1.0256  1.6923
 2814TIP3    H229934   5.120   1.605   5.948 -0.9989  0.6025  1.0540
 2815TIP3   OH229935   0.480   3.837   6.155  0.2303  0.7885 -0.3824
 2815TIP3    H129936   0.541   3.872   6.220  0.6021 -2.8210  1.3091
 2815TIP3    H229937   0.393   3.859   6.189  0.4245 -1.0013  1.3133
 2816TIP3   OH229938   3.972   3.008  14.266  0.1881  0.2763  0.5660
 2816TIP3    H129939   4.002   2.975  14.351  0.5132  0.1205  0.3926
 2816TIP3    H229940   3.998   2.940  14.203 -0.8731 -0.0466  0.4570
 2817TIP3   OH229941   5.032   6.089  11.520  0.0683  0.6607 -0.1486
 2817TIP3    H129942   5.085   6.027  11.571 -0.0503  0.8349  0.1843
 2817TIP3    H229943   5.076   6.173  11.532 -0.8393  0.9938  0.9354
 2818TIP3   OH229944   0.611   2.580   4.417  0.1231 -0.7134  0.5708
 2818TIP3    H129945   0.689   2.613   4.462 -2.2576 -0.1003  4.5061
 2818TIP3    H229946   0.598   2.492   4.453 -0.8402 -0.9172 -0.2657
 2819TIP3   OH229947   2.045   4.466  12.999 -0.0754 -0.0690 -0.0529
 2819TIP3    H129948   2.093   4.513  12.931  0.0702  0.5345  0.4688
 2819TIP3    H229949   2.031   4.378  12.962 -0.6471  0.4776 -1.1652
 2820TIP3   OH229950   1.762   1.228  11.700 -0.6228  0.2461  0.1986
 2820TIP3    H129951   1.708   1.155  11.730  0.8606 -0.7514  0.4709
 2820TIP3    H229952   1.840   1.224  11.755  0.2271  1.0110 -0.9402
 2821TIP3   OH229953   4.185   0.977   1.005  0.1322  0.2663 -0.5881
 2821TIP3    H129954   4.199   0.898   0.952 -1.5100 -0.2631 -0.2868
 2821TIP3    H229955   4.198   1.049   0.944  1.3815 -0.2396 -0.9350
 2822TIP3   OH229956   1.164   1.655   3.396 -0.5710 -0.0135  0.1734
 2822TIP3    H129957   1.253   1.620   3.404 -0.3120  0.5966 -0.0261
 2822TIP3    H229958   1.131   1.658   3.486  0.1810  1.2242  0.4282
 2823TIP3   OH229959   4.922   4.400  14.689  0.1119  0.4165  0.4522
 2823TIP3    H129960   4.948   4.347  14.613 -2.0826 -1.3949  0.9200
 2823TIP3    H229961   4.993   4.387  14.752  0.6458 -0.2121 -0.2662
 2824TIP3   OH229962   1.265   0.712  12.391  0.1377 -0.3631 -0.4048
 2824TIP3    H129963   1.299   0.797  12.363  0.7802 -0.3236  0.4835
 2824TIP3    H229964   1.185   0.733  12.439  2.0040  0.0259  2.6596
 2825TIP3   OH229965   6.375   2.980   5.456 -0.5801  0.2055 -0.5046
 2825TIP3    H129966   6.358   3.066   5.418 -0.0083  0.0162 -1.1857
 2825TIP3    H229967   6.307   2.970   5.524 -2.1986  0.1299 -2.1073
 2826TIP3   OH229968   5.289   4.955  12.738  0.3172  0.0919 -0.2233
 2826TIP3    H129969   5.345   4.897  12.789 -0.3707 -1.4748 -1.2296
 2826TIP3    H229970   5.264   5.024  12.799  1.3336 -0.5473  0.9239
 2827TIP3   OH229971   1.331   3.199   3.038  0.5799  0.2495  0.1501
 2827TIP3    H129972   1.340   3.256   3.114 -1.5429 -0.5463  1.0353
 2827TIP3    H229973   1.276   3.249   2.977  2.1385  0.8178 -0.8060
 2828TIP3   OH229974   4.819   0.749   0.058  0.6560 -0.3079 -0.5216
 2828TIP3    H129975   4.862   0.735   0.142  0.3213 -1.5749 -0.5539
 2828TIP3    H229976   4.888   0.781   0.000  1.5538 -2.2394 -0.5510
 2829TIP3   OH229977   3.715   6.764  16.112  0.2963  0.2245  0.0026
 2829TIP3    H129978   3.659   6.822  16.162  0.1864  0.8674 -0.8548
 2829TIP3    H229979   3.656   6.696  16.079  0.8633 -1.9376  3.2520
 2830TIP3   OH229980   3.554   5.381  12.841 -0.0417 -0.2544 -0.3580
 2830TIP3    H129981   3.480   5.337  12.799 -1.5127 -0.2608  2.1143
 2830TIP3    H229982   3.580   5.322  12.912  2.6494 -0.4579 -1.4723
 2831TIP3   OH229983   4.834   1.503   3.138 -0.2281 -0.4794 -0.0772
 2831TIP3    H129984   4.910   1.560   3.138  0.6027 -1.5737  0.8660
 2831TIP3    H229985   4.860   1.427   3.189 -1.0899 -2.0062 -1.8310
 2832TIP3   OH229986   0.866   1.977  14.501 -0.3741  0.2186  0.2246
 2832TIP3    H129987   0.784   1.984  14.452  0.4671  2.7810 -0.8977
 2832TIP3    H229988   0.922   1.923  14.446 -1.1736 -1.2817  0.8482
 2833TIP3   OH229989   1.665   0.525   0.945  0.2494 -0.8823 -0.5676
 2833TIP3    H129990   1.716   0.604   0.967  0.3995 -0.9744 -0.5881
 2833TIP3    H229991   1.728   0.453   0.951  0.7576 -0.6999 -3.1811
 2834TIP3   OH229992   1.166   6.266  15.072  0.6696  0.1366 -0.0903
 2834TIP3    H129993   1.160   6.199  15.004 -0.3796 -1.4063  1.4760
 2834TIP3    H229994   1.075   6.282  15.098  1.0002  1.3034  0.3713
 2835TIP3   OH229995   2.361   0.558   2.457  0.1831 -0.4612 -0.5241
 2835TIP3    H129996   2.414   0.480   2.477  0.6923  0.3325  1.2822
 2835TIP3    H229997   2.410   0.603   2.388  1.2107 -0.4334  0.1988
 2836TIP3   OH229998   4.245   6.233   3.957 -0.0389  0.6253  0.1532
 2836TIP3    H129999   4.272   6.209   3.868 -1.2683  2.0778 -0.6177
 2836TIP3    H230000   4.292   6.170   4.013 -0.4813 -1.3377 -1.6013
 2837TIP3   OH230001   4.729   5.130  17.084  0.8453 -0.3380 -0.1239
 2837TIP3    H130002   4.649   5.115  17.135  0.7411  1.3552  0.2383
 2837TIP3    H230003   4.758   5.217  17.110  2.6663 -0.8220 -0.4646
 2838TIP3   OH230004   2.326   5.579  15.394  0.1366  0.2029  0.4305
 2838TIP3    H130005   2.407   5.602  15.440 -0.1761 -0.3782  1.2884
 2838TIP3    H230006   2.256   5.612  15.451 -0.2366  0.5884 -0.2386
 2839TIP3   OH230007   4.872   4.221  12.730 -0.8293 -0.3818  0.2666
 2839TIP3    H130008   4.926   4.145  12.753 -0.8474 -0.8048 -1.0473
 2839TIP3    H230009   4.831   4.246  12.812  0.8161 -0.4917  1.1470
 2840TIP3   OH230010   0.339   4.991  15.707 -0.0819 -0.1784 -0.1652
 2840TIP3    H130011   0.321   5.081  15.679 -2.0962 -1.0279 -1.7723
 2840TIP3    H230012   0.434   4.986  15.712  0.1501  1.4720 -2.0277
 2841TIP3   OH230013   2.696   0.709   3.528  0.2338  0.2130 -0.1790
 2841TIP3    H130014   2.646   0.696   3.448  0.4697  1.3340 -0.5139
 2841TIP3    H230015   2.786   0.688   3.504 -0.1693 -2.6255  0.6375
 2842TIP3   OH230016   0.389   0.046   2.789  0.2081 -0.0395  0.2205
 2842TIP3    H130017   0.442  -0.025   2.825 -1.0735 -1.7778 -1.2365
 2842TIP3    H230018   0.429   0.067   2.705 -2.0613 -2.2333 -1.4834
 2843TIP3   OH230019   4.963   5.957   2.269 -0.2807  0.4462  0.2300
 2843TIP3    H130020   5.056   5.935   2.256 -0.1720  0.4061  1.0161
 2843TIP3    H230021   4.965   6.042   2.314 -0.6349  0.6297 -0.0986
 2844TIP3   OH230022   2.827   1.865   4.559 -0.1979  0.2968 -0.6590
 2844TIP3    H130023   2.902   1.812   4.531 -0.4479 -1.6594  2.1586
 2844TIP3    H230024   2.849   1.954   4.532  2.7137 -0.3836 -0.7112
 2845TIP3   OH230025   3.416   5.309  10.692 -0.2382 -0.3859  0.5409
 2845TIP3    H130026   3.503   5.337  10.663 -0.5563 -0.4767 -0.5506
 2845TIP3    H230027   3.366   5.302  10.611 -1.0345 -1.1094  1.0889
 2846TIP3   OH230028   2.781   1.503  17.158  0.5110 -0.3775 -0.4135
 2846TIP3    H130029   2.859   1.448  17.166  1.9540  1.5564 -0.8593
 2846TIP3    H230030   2.751   1.516  17.248  0.9129 -0.8226 -0.2170
 2847TIP3   OH230031   6.399   5.162   2.544 -0.7398 -0.0025  0.1959
 2847TIP3    H130032   6.465   5.094   2.559 -1.2333 -0.8952 -1.4745
 2847TIP3    H230033   6.341   5.156   2.619  1.7076  1.6022  2.3082
 2848TIP3   OH230034   1.542   5.511  14.475  0.5692  0.1384  0.9139
 2848TIP3    H130035   1.507   5.600  14.483  1.4178  0.4450  1.3272
 2848TIP3    H230036   1.471   5.461  14.435  0.1821  1.0608  0.4187
 2849TIP3   OH230037   3.795   2.769   5.907 -0.5810 -0.0878  0.2408
 2849TIP3    H130038   3.822   2.849   5.861  0.8960 -1.4746 -1.3766
 2849TIP3    H230039   3.858   2.760   5.978 -0.8885  0.3153  0.5646
 2850TIP3   OH230040   5.801   4.433   2.582  0.1472 -0.1242  0.6390
 2850TIP3    H130041   5.877   4.461   2.531 -1.1745 -0.2363 -1.5032
 2850TIP3    H230042   5.837   4.400   2.664  2.4385 -0.5560 -0.5035
 2851TIP3   OH230043   0.877   3.513  15.847  0.0451  0.0678  0.3507
 2851TIP3    H130044   0.801   3.554  15.887 -1.2176  0.7341 -2.6022
 2851TIP3    H230045   0.878   3.424  15.882 -1.9434  0.1312  0.6317
 2852TIP3   OH230046   1.509   0.644  15.799  0.0387 -0.6564 -0.2999
 2852TIP3    H130047   1.531   0.589  15.874  2.0213 -2.2077 -1.9710
 2852TIP3    H230048   1.476   0.583  15.733 -2.5408  0.7927 -0.4060
 2853TIP3   OH230049   0.789   2.099   1.437 -0.2632  0.0458  0.1390
 2853TIP3    H130050   0.766   2.192   1.435 -0.3164  0.0220 -0.4101
 2853TIP3    H230051   0.716   2.055   1.394  0.9059 -0.0086 -1.8371
 2854TIP3   OH230052   1.443   6.201  11.352 -0.1055  0.5151 -0.6625
 2854TIP3    H130053   1.375   6.215  11.285 -0.2961 -0.0880 -0.5951
 2854TIP3    H230054   1.523   6.233  11.311 -0.2860  0.4863 -1.0464
 2855TIP3   OH230055   6.769   4.087   3.813 -0.2890 -0.4482  0.1191
 2855TIP3    H130056   6.681   4.070   3.779 -0.6312 -0.4306  0.9705
 2855TIP3    H230057   6.790   4.008   3.864 -0.4794  0.2109  1.2500
 2856TIP3   OH230058   1.391   5.268  15.250 -0.6770 -0.4258  0.1569
 2856TIP3    H130059   1.432   5.187  15.280  1.9386  0.5796 -0.5888
 2856TIP3    H230060   1.428   5.283  15.163 -2.8501  0.4021 -0.6757
 2857TIP3   OH230061   3.744   0.170  12.772  0.0645 -0.1576 -0.0154
 2857TIP3    H130062   3.663   0.120  12.767  0.1405 -0.2035 -0.7675
 2857TIP3    H230063   3.730   0.232  12.844 -0.2976 -0.7656  0.4343
 2858TIP3   OH230064   2.798   0.375   0.510 -0.2261  0.1426 -0.1409
 2858TIP3    H130065   2.705   0.392   0.523 -0.5211 -0.7364 -1.0317
 2858TIP3    H230066   2.808   0.281   0.528  0.2759 -0.0039 -1.1517
 2859TIP3   OH230067   3.454   6.538   0.481  0.2807  0.7690 -0.5650
 2859TIP3    H130068   3.465   6.527   0.387  0.9927  0.3386 -0.4394
 2859TIP3    H230069   3.542   6.563   0.512  0.5008 -0.9210  0.2333
 2860TIP3   OH230070   4.356   5.075   2.764 -0.1985 -0.4606 -0.5137
 2860TIP3    H130071   4.266   5.047   2.781 -0.4239  0.2345 -0.5337
 2860TIP3    H230072   4.394   5.005   2.711 -0.5320 -1.0552  0.0197
 2861TIP3   OH230073   4.425   6.236  14.221  0.0819 -0.5291 -0.2826
 2861TIP3    H130074   4.416   6.141  14.228 -1.5158 -0.4943 -1.5671
 2861TIP3    H230075   4.497   6.249  14.160 -1.1123 -0.9688 -1.8426
 2862TIP3   OH230076   4.432   3.566   4.009  0.0626  0.1422 -0.0562
 2862TIP3    H130077   4.475   3.650   4.025 -1.2902  0.8670 -0.1528
 2862TIP3    H230078   4.430   3.558   3.914 -1.0462  0.6660 -0.0851
 2863TIP3   OH230079   4.111   6.640  15.001  0.2132 -0.5292  0.1538
 2863TIP3    H130080   4.061   6.619  14.923 -0.5095  1.7501 -0.0289
 2863TIP3    H230081   4.102   6.563  15.057 -1.7555 -0.9909 -0.7604
 2864TIP3   OH230082   2.148   0.860   1.884 -0.0906  0.4787 -0.1625
 2864TIP3    H130083   2.211   0.801   1.925  0.8130  0.0301 -2.1454
 2864TIP3    H230084   2.183   0.948   1.900  0.0845  0.3233  0.3050
 2865TIP3   OH230085   2.180   6.476   3.531 -0.2743  0.0553  0.4558
 2865TIP3    H130086   2.166   6.393   3.577  1.6444  0.0612  1.1190
 2865TIP3    H230087   2.214   6.535   3.598 -2.3915  1.6593  0.1734
 2866TIP3   OH230088   3.361   2.202  15.103 -0.0940 -0.1919 -0.6326
 2866TIP3    H130089   3.381   2.109  15.119  0.4510  0.1323  0.6907
 2866TIP3    H230090   3.416   2.226  15.029 -0.3979 -0.9795 -1.1259
 2867TIP3   OH230091   2.453   2.004   3.570 -0.5232  0.5414 -0.1943
 2867TIP3    H130092   2.528   2.011   3.511 -1.6368  3.1743 -1.3877
 2867TIP3    H230093   2.385   1.964   3.518 -0.0065 -1.8065  0.8783
 2868TIP3   OH230094   2.587   5.477  15.261  0.0240  0.7496  0.0711
 2868TIP3    H130095   2.590   5.555  15.206  1.1483  0.2973 -0.5250
 2868TIP3    H230096   2.633   5.502  15.341 -0.2468  0.9221  0.1723
 2869TIP3   OH230097   0.935   3.497  12.423 -0.5619 -0.1109  0.0488
 2869TIP3    H130098   0.949   3.497  12.328 -4.5527 -0.8451 -0.6053
 2869TIP3    H230099   0.841   3.504  12.434 -0.4410 -2.9037  3.9362
 2870TIP3   OH230100   4.481   0.555   5.239 -0.2245 -0.4330 -0.1220
 2870TIP3    H130101   4.469   0.635   5.289 -1.9855 -1.4597  1.1836
 2870TIP3    H230102   4.430   0.569   5.159  0.6289  0.2934 -0.5379
 2871TIP3   OH230103   0.566   5.643  13.284  0.0698  0.5036  0.4400
 2871TIP3    H130104   0.652   5.608  13.308  0.4847  0.8380 -0.5388
 2871TIP3    H230105   0.564   5.730  13.325  0.2724  0.5731  0.3028
 2872TIP3   OH230106   2.174   3.935  14.875  0.1258 -0.1061 -0.1222
 2872TIP3    H130107   2.124   4.009  14.911  0.3164  0.4818 -1.0653
 2872TIP3    H230108   2.262   3.971  14.860 -0.2939  0.0443 -2.4255
 2873TIP3   OH230109   5.148   2.351   5.882  0.0812  0.4452 -0.0683
 2873TIP3    H130110   5.146   2.284   5.813  2.8951  0.2440 -0.0315
 2873TIP3    H230111   5.190   2.307   5.956 -1.9827  0.9771  1.4467
 2874TIP3   OH230112   6.097   5.155  16.519  0.0402 -0.1351  0.5990
 2874TIP3    H130113   6.086   5.225  16.454  1.5991  0.2813  0.7581
 2874TIP3    H230114   6.012   5.148  16.561 -0.3689  1.1093  0.0097
 2875TIP3   OH230115   5.914   2.230   5.233 -0.1353 -0.1109 -0.3825
 2875TIP3    H130116   5.886   2.311   5.276 -1.5173 -0.9794  0.4063
 2875TIP3    H230117   5.832   2.189   5.205  0.4544 -1.8749  0.4234
 2876TIP3   OH230118   2.391   5.038  13.409 -0.4755  0.2732  0.2817
 2876TIP3    H130119   2.371   5.029  13.503 -0.6258 -2.5477  0.0034
 2876TIP3    H230120   2.487   5.041  13.406 -0.2792 -3.5049  0.2881
 2877TIP3   OH230121   6.400   0.244   0.727  0.2585  0.9479  1.0591
 2877TIP3    H130122   6.435   0.238   0.638  0.2764  1.8686  0.9898
 2877TIP3    H230123   6.466   0.203   0.783 -0.2662 -0.6454  0.5359
 2878TIP3   OH230124   4.380   1.958  15.021  0.4320  0.4572  0.1154
 2878TIP3    H130125   4.416   1.985  15.106  0.6678 -0.1488  0.2116
 2878TIP3    H230126   4.314   1.892  15.043 -2.1307  2.9046  0.0816
 2879TIP3   OH230127   0.398   4.015   3.091 -0.2962  0.1338  0.2725
 2879TIP3    H130128   0.403   3.974   3.177 -1.5493 -2.5917 -0.9006
 2879TIP3    H230129   0.372   4.105   3.109 -1.2786 -0.6003  2.6955
 2880TIP3   OH230130   2.482   4.604  13.925 -0.1963  1.0422 -0.1474
 2880TIP3    H130131   2.539   4.532  13.951  1.5465  2.7324  0.8768
 2880TIP3    H230132   2.532   4.652  13.859 -1.6852  0.8372 -1.4375
 2881TIP3   OH230133   4.637   5.755   0.918 -0.2700 -0.0021  0.1677
 2881TIP3    H130134   4.713   5.763   0.976 -0.6811  1.5676  0.5246
 2881TIP3    H230135   4.650   5.824   0.852 -0.0083 -1.5028 -1.3932
 2882TIP3   OH230136   2.887   6.449  15.220  0.9736 -0.5254 -0.0709
 2882TIP3    H130137   2.864   6.394  15.294 -0.9555 -1.1536 -1.1122
 2882TIP3    H230138   2.952   6.510  15.255 -0.6001 -0.1834  2.3980
 2883TIP3   OH230139   5.079   3.325   6.075  0.2696 -0.0924 -0.2917
 2883TIP3    H130140   5.076   3.402   6.132 -0.2410 -1.1700  1.1621
 2883TIP3    H230141   5.167   3.290   6.087 -0.0541 -0.6956  0.3502
 2884TIP3   OH230142   1.874   4.490   6.616  0.0332 -0.1072  0.1167
 2884TIP3    H130143   1.839   4.401   6.619  1.5148 -0.7503 -1.0752
 2884TIP3    H230144   1.808   4.540   6.568 -2.1515  0.1041  3.2450
 2885TIP3   OH230145   4.907   2.765  14.778  0.3010 -0.3341 -0.3550
 2885TIP3    H130146   4.988   2.815  14.789 -0.6782  1.3364 -0.5533
 2885TIP3    H230147   4.917   2.690  14.837  1.8913 -0.0297 -0.2117
 2886TIP3   OH230148   5.103   1.421   1.492  0.2078  0.1289  0.2200
 2886TIP3    H130149   5.108   1.354   1.559 -0.3726  0.0347  0.1695
 2886TIP3    H230150   5.049   1.383   1.423 -0.0437  0.6086  0.1495
 2887TIP3   OH230151   3.138   0.686   1.945  0.3200 -0.0245 -0.7086
 2887TIP3    H130152   3.080   0.637   1.887 -0.9248 -1.8635  1.9776
 2887TIP3    H230153   3.222   0.641   1.938  0.7681  1.0341 -2.5982
 2888TIP3   OH230154   2.292   5.295   3.491 -0.5345  0.6797  0.5232
 2888TIP3    H130155   2.345   5.230   3.445 -2.3036 -0.1131 -0.4456
 2888TIP3    H230156   2.331   5.379   3.467 -0.0187  0.1352 -0.5683
 2889TIP3   OH230157   0.521   1.451  12.685  0.2158  0.0994 -0.5102
 2889TIP3    H130158   0.499   1.453  12.778 -0.6882 -0.2121 -0.7159
 2889TIP3    H230159   0.558   1.364  12.671 -0.2360 -0.0848 -0.5713
 2890TIP3   OH230160   6.044   1.490  14.362  0.0441  0.3632 -0.0376
 2890TIP3    H130161   6.101   1.562  14.388 -0.0283  0.2305  0.4911
 2890TIP3    H230162   6.056   1.424  14.430  1.9091 -1.1119 -1.7273
 2891TIP3   OH230163   4.004   5.239   2.330 -0.1175 -0.1905 -0.4436
 2891TIP3    H130164   3.966   5.275   2.410 -0.3407 -1.4370  0.0168
 2891TIP3    H230165   4.007   5.314   2.270 -2.5389  0.1269 -0.2343
 2892TIP3   OH230166   3.857   5.895  13.372 -0.2193  0.6273  0.1066
 2892TIP3    H130167   3.883   5.978  13.332 -2.8452  0.3110 -2.4577
 2892TIP3    H230168   3.900   5.828  13.319 -0.8473  0.2929  0.0085
 2893TIP3   OH230169   1.382   3.677  11.352  0.0263  0.0564  0.0513
 2893TIP3    H130170   1.397   3.588  11.323  1.9427  0.7873 -1.3156
 2893TIP3    H230171   1.298   3.701  11.313 -0.7381 -1.2938  0.8345
 2894TIP3   OH230172   3.857   3.501   0.232 -0.6199  0.5376  1.0490
 2894TIP3    H130173   3.768   3.505   0.197 -0.2262  1.7267  0.1431
 2894TIP3    H230174   3.859   3.570   0.299 -0.8265 -0.5211  2.1699
 2895TIP3   OH230175   2.918   3.076   0.837 -0.3351 -0.0896  0.3011
 2895TIP3    H130176   2.861   3.104   0.908  1.1878  1.6118  0.8910
 2895TIP3    H230177   3.006   3.092   0.869  0.5027 -2.3800 -0.7244
 2896TIP3   OH230178   6.005   5.866   4.412 -0.4815  0.0280 -0.2704
 2896TIP3    H130179   6.004   5.878   4.317 -1.6085 -0.5315 -0.3343
 2896TIP3    H230180   5.934   5.804   4.430 -0.6599  0.5652  0.9959
 2897TIP3   OH230181   3.655   5.929  17.100  0.0640  0.2941 -0.3628
 2897TIP3    H130182   3.743   5.958  17.123  0.4967 -1.3546  0.1569
 2897TIP3    H230183   3.599   5.965  17.168  0.5622  0.1127  0.1497
 2898TIP3   OH230184   6.174   6.804  13.462  0.1377  0.3119 -0.0715
 2898TIP3    H130185   6.229   6.767  13.393 -0.4830  0.3841 -0.6158
 2898TIP3    H230186   6.230   6.808  13.539  0.5727 -0.6117 -0.3375
 2899TIP3   OH230187   2.040   2.429  12.182  0.1966 -0.0935  0.0329
 2899TIP3    H130188   2.051   2.522  12.160 -1.2898  0.6299  2.1643
 2899TIP3    H230189   2.054   2.425  12.276  1.7900 -2.3259 -0.2749
 2900TIP3   OH230190   5.501   2.127  14.074  0.0125  0.5370 -0.6796
 2900TIP3    H130191   5.515   2.207  14.124 -0.1152  0.2872 -0.2436
 2900TIP3    H230192   5.590   2.098  14.050  0.0839  0.5284 -0.4001
 2901TIP3   OH230193   2.341   5.849   1.721 -0.1027  0.2555  0.0433
 2901TIP3    H130194   2.392   5.858   1.802  1.3528 -0.2594 -0.8021
 2901TIP3    H230195   2.407   5.842   1.652 -1.3371  0.3725 -1.1571
 2902TIP3   OH230196   0.378   1.483   3.692  0.7489  0.1866  0.3288
 2902TIP3    H130197   0.383   1.576   3.712  0.7106  0.4315 -0.7762
 2902TIP3    H230198   0.338   1.479   3.606  2.0887 -0.7848 -0.2742
 2903TIP3   OH230199   0.296   2.962   6.195 -0.1483  0.3054 -0.0133
 2903TIP3    H130200   0.206   2.979   6.223  0.0290  0.8548  0.2234
 2903TIP3    H230201   0.345   2.954   6.277  0.9804  5.0596 -0.1132
 2904TIP3   OH230202   4.331   2.102   4.373 -0.1290  0.0229 -0.7151
 2904TIP3    H130203   4.257   2.084   4.315 -0.3367  2.1869 -1.1499
 2904TIP3    H230204   4.359   2.191   4.350  1.4399 -0.0846  0.7016
 2905TIP3   OH230205   0.449   2.268   3.976  0.0326  0.4870 -0.1001
 2905TIP3    H130206   0.528   2.279   4.030  0.4000  1.5260 -0.8396
 2905TIP3    H230207   0.429   2.356   3.945 -2.3801  0.4856  1.3930
 2906TIP3   OH230208   6.446   2.250  16.444 -0.4659 -0.2220  0.0627
 2906TIP3    H130209   6.500   2.325  16.421  0.4939 -0.9825 -0.2007
 2906TIP3    H230210   6.486   2.177  16.398 -1.1161 -0.9802  0.6851
 2907TIP3   OH230211   0.531   1.684  15.138 -0.2002 -0.4389 -0.2261
 2907TIP3    H130212   0.454   1.742  15.136 -0.5209 -0.8336  0.7471
 2907TIP3    H230213   0.585   1.716  15.066 -0.5347  0.8629  0.0730
 2908TIP3   OH230214   1.124   6.775   0.739 -0.3986 -0.4378  0.8651
 2908TIP3    H130215   1.108   6.825   0.660 -0.1850  0.0385  1.1228
 2908TIP3    H230216   1.097   6.832   0.810 -0.9206 -0.9967  1.1221
 2909TIP3   OH230217   2.414   3.513   4.311 -0.1665  0.2468 -0.0387
 2909TIP3    H130218   2.394   3.480   4.223 -1.1882  0.4716  0.1106
 2909TIP3    H230219   2.332   3.549   4.343  0.3233  0.6151  0.8226
 2910TIP3   OH230220   1.765   6.380  12.113 -0.4441  0.0585  0.2879
 2910TIP3    H130221   1.825   6.403  12.043 -0.7659  1.7720  0.5417
 2910TIP3    H230222   1.812   6.315  12.165  0.3623 -0.1449 -0.6861
 2911TIP3   OH230223   2.042   3.244   1.998 -0.3859  0.4159  0.0192
 2911TIP3    H130224   2.104   3.301   1.951  0.1493 -1.1759 -1.2352
 2911TIP3    H230225   1.956   3.267   1.962 -0.2432  0.8958 -0.0165
 2912TIP3   OH230226   1.065   1.437  15.479  0.4686 -1.8631 -0.1786
 2912TIP3    H130227   1.126   1.507  15.501 -0.3383 -0.7084 -1.5796
 2912TIP3    H230228   0.984   1.461  15.523  0.4516 -2.4059  0.0935
 2913TIP3   OH230229   2.742   0.412  16.433  0.0694  0.0570 -0.1707
 2913TIP3    H130230   2.662   0.397  16.382  0.3561  1.0986 -0.9405
 2913TIP3    H230231   2.813   0.399  16.369  0.5204 -0.7920  0.4939
 2914TIP3   OH230232   2.803   4.733  13.993  0.0411 -0.0538  0.3367
 2914TIP3    H130233   2.892   4.761  13.969  0.0602  0.3509  0.8688
 2914TIP3    H230234   2.808   4.716  14.087 -0.6223  0.6616  0.5059
 2915TIP3   OH230235   1.442   1.276   0.037  0.7460  0.5137  0.0303
 2915TIP3    H130236   1.493   1.276   0.118  0.3062  0.0610  0.3122
 2915TIP3    H230237   1.372   1.212   0.053  0.7900  0.2568 -0.7852
 2916TIP3   OH230238   2.265   1.175  16.138 -0.0467  0.0190 -0.0194
 2916TIP3    H130239   2.335   1.229  16.175 -1.4819  1.7627  0.2828
 2916TIP3    H230240   2.264   1.096  16.192  0.3522  0.8943  1.3115
 2917TIP3   OH230241   6.548   6.621   2.679  0.6475  0.0046 -0.1719
 2917TIP3    H130242   6.485   6.625   2.606  0.6683 -0.1724 -0.2002
 2917TIP3    H230243   6.515   6.550   2.735  1.7585 -1.2336 -1.0622
 2918TIP3   OH230244   5.402   1.393   3.947  0.0806  0.0674 -0.7693
 2918TIP3    H130245   5.371   1.385   3.856 -0.2004  0.3888 -0.7027
 2918TIP3    H230246   5.359   1.471   3.980 -0.3995 -0.4596 -0.1214
 2919TIP3   OH230247   5.185   1.101   3.358 -0.0779 -0.8609  0.5742
 2919TIP3    H130248   5.115   1.136   3.413 -0.2946 -1.5129  0.7160
 2919TIP3    H230249   5.169   1.141   3.272  0.9427  1.0560  1.2511
 2920TIP3   OH230250   4.083   5.043   1.439 -0.5430  0.6810  0.3824
 2920TIP3    H130251   4.000   5.003   1.412 -0.6412  0.6063  0.7904
 2920TIP3    H230252   4.075   5.134   1.413 -0.8681  0.7372  0.6720
 2921TIP3   OH230253   1.312   4.061  16.053  0.3639  1.1282 -0.3319
 2921TIP3    H130254   1.253   4.130  16.022 -2.4494 -1.2803 -0.5852
 2921TIP3    H230255   1.316   3.998  15.981 -0.8246 -1.1889  1.5606
 2922TIP3   OH230256   5.469   2.675   2.582 -0.2142  0.3403  0.2118
 2922TIP3    H130257   5.443   2.767   2.587  0.0416  0.3664  1.1243
 2922TIP3    H230258   5.448   2.640   2.668  1.1338 -0.0782  0.3706
 2923TIP3   OH230259   6.422   0.918   4.067 -0.1569 -0.1337 -0.3204
 2923TIP3    H130260   6.326   0.915   4.075 -0.1767  0.5288 -0.2627
 2923TIP3    H230261   6.452   0.838   4.110 -0.5858  0.6393  1.4679
 2924TIP3   OH230262   4.028   3.852   5.768  0.0782  0.3563  0.1548
 2924TIP3    H130263   4.088   3.786   5.734  0.4439  0.2797  0.9367
 2924TIP3    H230264   3.943   3.808   5.771  0.4939 -0.3525  1.5007
 2925TIP3   OH230265   1.177   0.492  16.978  0.0000  0.4203 -0.3430
 2925TIP3    H130266   1.189   0.512  16.885  1.2698 -0.2740 -0.3355
 2925TIP3    H230267   1.086   0.518  16.997 -0.2330  0.6524 -1.7482
 2926TIP3   OH230268   0.053   5.756   3.715  0.7179 -0.1931 -0.3952
 2926TIP3    H130269   0.085   5.745   3.804 -0.9130 -2.3193 -0.0523
 2926TIP3    H230270   0.107   5.827   3.680  0.3287  1.7558  2.7570
 2927TIP3   OH230271   5.466   3.138  16.124 -0.1966  0.5778  0.3740
 2927TIP3    H130272   5.462   3.106  16.215 -2.1759 -0.1585  0.0597
 2927TIP3    H230273   5.485   3.231  16.132 -0.4957  0.5436  1.5630
 2928TIP3   OH230274   0.719   6.438   4.586  0.2358 -1.0673 -0.2671
 2928TIP3    H130275   0.762   6.370   4.534  0.0799 -1.6116  0.3119
 2928TIP3    H230276   0.651   6.391   4.635  1.5788 -0.8952  1.8514
 2929TIP3   OH230277   2.914   1.134  14.669 -0.4506  0.7262 -0.5604
 2929TIP3    H130278   2.906   1.097  14.582 -1.4341  1.6533 -0.8754
 2929TIP3    H230279   2.830   1.116  14.711 -0.0540  0.4575  0.1192
 2930TIP3   OH230280   5.291   3.011   5.913 -0.3820 -0.0949  0.2220
 2930TIP3    H130281   5.342   3.079   5.869 -1.2989  1.0624  0.8915
 2930TIP3    H230282   5.281   3.044   6.003  0.1361 -1.6701  0.8705
 2931TIP3   OH230283   0.903   4.172  15.605  0.5061 -0.3787  0.0176
 2931TIP3    H130284   0.864   4.166  15.518 -1.2743 -1.1996  0.8390
 2931TIP3    H230285   0.931   4.082  15.625  1.3564 -0.0981  0.0844
 2932TIP3   OH230286   0.861   6.018   2.121 -0.1668 -0.2659 -0.4555
 2932TIP3    H130287   0.853   5.924   2.106 -0.9685 -0.4128  0.8432
 2932TIP3    H230288   0.799   6.057   2.059 -0.0480 -0.6071 -0.7908
 2933TIP3   OH230289   0.025   3.211   4.209  0.2482  0.6958 -0.5595
 2933TIP3    H130290   0.001   3.194   4.300  1.3947  1.4871 -0.1020
 2933TIP3    H230291  -0.059   3.222   4.164 -0.3300 -0.1349  0.3100
 2934TIP3   OH230292   5.833   5.609  15.271  0.2465 -0.0440 -0.3445
 2934TIP3    H130293   5.887   5.682  15.302  0.2862  0.4243 -1.4782
 2934TIP3    H230294   5.756   5.651  15.234 -0.8847 -0.7180  1.2155
 2935TIP3   OH230295   0.269   5.854  14.110 -0.8965  0.0654 -0.2800
 2935TIP3    H130296   0.330   5.901  14.167 -0.3215 -2.8207  1.6111
 2935TIP3    H230297   0.183   5.873  14.145 -0.6393 -0.6124  0.7285
 2936TIP3   OH230298   4.095   4.393   0.441  0.4320  0.2610  0.5656
 2936TIP3    H130299   4.004   4.384   0.467  0.3680  0.2711  0.3437
 2936TIP3    H230300   4.098   4.477   0.395  0.9812  1.3279  2.4597
 2937TIP3   OH230301   2.332   1.786   1.617 -0.0451 -0.3652  0.3393
 2937TIP3    H130302   2.293   1.872   1.633  0.2274 -0.5577  2.1405
 2937TIP3    H230303   2.270   1.724   1.654 -0.6778 -1.0241 -1.7684
 2938TIP3   OH230304   1.813   6.198   4.361  0.1581  0.1447 -0.1133
 2938TIP3    H130305   1.767   6.123   4.401 -0.4490 -0.1402 -1.3121
 2938TIP3    H230306   1.894   6.206   4.412  1.1013 -2.4863 -1.0878
 2939TIP3   OH230307   1.093   3.595  12.645  0.1283 -0.2778  0.1435
 2939TIP3    H130308   1.046   3.539  12.583  1.8831 -0.6121 -0.9042
 2939TIP3    H230309   1.024   3.645  12.688 -1.0526  1.0264 -3.0974
 2940TIP3   OH230310   3.385   6.680   0.004  0.9296  0.0673 -0.2799
 2940TIP3    H130311   3.315   6.618  -0.013 -0.3876  1.1895  0.8772
 2940TIP3    H230312   3.437   6.680  -0.076 -0.6501 -0.4697 -1.3377
 2941TIP3   OH230313   1.927   5.172   3.157  0.2292  0.0023 -0.4739
 2941TIP3    H130314   1.880   5.252   3.135  0.1263 -0.0922 -0.6002
 2941TIP3    H230315   2.017   5.190   3.129 -0.2839 -0.8119 -2.7633
 2942TIP3   OH230316   6.102   0.981  14.968  0.2121 -0.3770 -0.0218
 2942TIP3    H130317   6.026   1.033  14.995 -0.5879 -1.1059 -0.8541
 2942TIP3    H230318   6.081   0.892  14.997  0.2002 -0.8093 -1.3454
 2943TIP3   OH230319   1.570   1.699   2.249  0.2029 -0.2773 -0.2853
 2943TIP3    H130320   1.512   1.711   2.174  1.0571 -1.3343 -1.1290
 2943TIP3    H230321   1.628   1.627   2.224  0.8265 -0.3158  1.1902
 2944TIP3   OH230322   2.044   1.348  13.926 -0.0742 -0.0083 -0.0839
 2944TIP3    H130323   2.034   1.443  13.921 -1.1114  0.0010  1.6351
 2944TIP3    H230324   1.955   1.314  13.918 -0.0183 -0.6736  1.7578
 2945TIP3   OH230325   4.933   2.659  11.253  0.8375  0.3619  0.4675
 2945TIP3    H130326   4.944   2.754  11.250 -1.8487  0.6682 -1.5089
 2945TIP3    H230327   5.022   2.625  11.256  1.9973  2.9026 -2.1368
 2946TIP3   OH230328   4.127   0.302   3.956  0.2914 -0.5302  0.2780
 2946TIP3    H130329   4.092   0.372   3.902  1.4227  0.1515  0.4024
 2946TIP3    H230330   4.126   0.338   4.045  0.4460 -0.8368  0.4048
 2947TIP3   OH230331   6.506   0.038   3.643  0.3191  0.2852  0.2867
 2947TIP3    H130332   6.591   0.002   3.617 -0.0667 -0.3758 -0.0563
 2947TIP3    H230333   6.459  -0.036   3.682 -0.1936  0.5963  0.2634
 2948TIP3   OH230334   3.888   3.113  13.913 -0.1263  0.1649  0.5191
 2948TIP3    H130335   3.940   3.141  13.989 -0.7530  0.4304  0.8492
 2948TIP3    H230336   3.803   3.090  13.949 -0.4506  0.3598 -0.1156
 2949TIP3   OH230337   1.391   1.172  14.386  0.3962 -0.2275 -0.2160
 2949TIP3    H130338   1.395   1.220  14.303 -0.4843  0.3037  0.0490
 2949TIP3    H230339   1.476   1.188  14.427  0.3835  0.4953 -0.4646
 2950TIP3   OH230340   3.805   3.662  11.369 -0.2088  0.1167  0.4751
 2950TIP3    H130341   3.801   3.639  11.462 -3.1150  0.0739  0.3688
 2950TIP3    H230342   3.810   3.578  11.324 -2.4446 -0.0313  0.4588
 2951TIP3   OH230343   0.171   2.309  12.480  0.3573 -0.3000 -0.4567
 2951TIP3    H130344   0.118   2.289  12.558  1.1444  0.7516  0.3538
 2951TIP3    H230345   0.219   2.228  12.463 -1.0689 -1.0869 -0.8652
 2952TIP3   OH230346   6.593   6.300  14.115  0.4231 -0.3205  0.0615
 2952TIP3    H130347   6.521   6.312  14.053  0.5825  0.5920  0.0387
 2952TIP3    H230348   6.565   6.229  14.172 -0.9876  0.7462  0.7294
 2953TIP3   OH230349   5.589   2.121   2.216 -0.1435  0.1515 -0.2232
 2953TIP3    H130350   5.643   2.145   2.292 -0.4479  1.8894 -0.5280
 2953TIP3    H230351   5.652   2.103   2.147  0.1453 -1.6845  0.4866
 2954TIP3   OH230352   3.433   6.690   5.704  0.7141  0.6489  0.3696
 2954TIP3    H130353   3.498   6.629   5.669 -1.1233 -1.1283 -0.0386
 2954TIP3    H230354   3.401   6.738   5.627 -0.0931 -0.1134  0.2133
 2955TIP3   OH230355   4.192   4.846  15.199  0.0576 -0.2833  0.1152
 2955TIP3    H130356   4.226   4.757  15.193  1.0745  0.1582 -0.8366
 2955TIP3    H230357   4.159   4.853  15.289  0.8231 -1.3163  0.4912
 2956TIP3   OH230358   4.838   5.153  14.130  0.1087 -0.0666  0.1954
 2956TIP3    H130359   4.793   5.212  14.069  0.2807 -0.1651 -0.0280
 2956TIP3    H230360   4.930   5.176  14.121 -0.0817  1.6296  2.2337
 2957TIP3   OH230361   1.547   0.699   2.288  0.1383 -0.4112  0.8388
 2957TIP3    H130362   1.473   0.681   2.347  0.4524 -0.1679  1.3112
 2957TIP3    H230363   1.569   0.613   2.251  1.8997 -1.1245  3.4154
 2958TIP3   OH230364   2.360   4.237   2.715 -0.7528 -0.2797  0.1468
 2958TIP3    H130365   2.427   4.195   2.660 -1.2833 -2.7290  1.2957
 2958TIP3    H230366   2.283   4.182   2.705 -1.7149  0.8827  1.1054
 2959TIP3   OH230367   0.081   2.270  16.491  0.2196 -0.0921  0.5842
 2959TIP3    H130368   0.053   2.335  16.427  1.2470 -0.2109  0.0104
 2959TIP3    H230369   0.174   2.288  16.505  0.5068 -1.4190  0.4363
 2960TIP3   OH230370   4.151   2.493   3.175 -0.7324 -0.4007  0.1544
 2960TIP3    H130371   4.061   2.486   3.142 -0.2714  0.0798 -1.2287
 2960TIP3    H230372   4.175   2.584   3.159 -0.3896 -0.2338  1.5711
 2961TIP3   OH230373   2.602   0.989  11.371  0.3444  0.2297  0.8701
 2961TIP3    H130374   2.664   0.926  11.408  0.4233 -0.6451 -0.6750
 2961TIP3    H230375   2.618   0.984  11.276 -2.5632 -0.5593  0.3814
 2962TIP3   OH230376   4.087   2.697  16.237  0.2709  0.6330 -0.2922
 2962TIP3    H130377   4.169   2.666  16.276  0.6223  1.4998 -0.3039
 2962TIP3    H230378   4.019   2.670  16.299 -0.0412 -4.3396 -2.5907
 2963TIP3   OH230379   6.401   5.034  12.265  0.0932  0.0470  0.1689
 2963TIP3    H130380   6.415   5.001  12.354  0.5099 -0.6098 -0.1371
 2963TIP3    H230381   6.322   4.988  12.235  1.0835 -1.2450 -0.5236
 2964TIP3   OH230382   1.288   0.561  16.317  0.8116  0.4354 -0.0316
 2964TIP3    H130383   1.338   0.587  16.394 -1.3044  2.4477  0.7374
 2964TIP3    H230384   1.335   0.598  16.243  2.9090 -1.5841  0.2463
 2965TIP3   OH230385   6.295   5.949  17.117  0.2891 -0.8525 -0.1521
 2965TIP3    H130386   6.301   5.881  17.184  1.2012 -0.5995  0.0342
 2965TIP3    H230387   6.250   5.907  17.043  0.0565 -1.3872  0.2949
 2966TIP3   OH230388   2.126   2.278   5.886 -0.5755 -0.1990 -0.0796
 2966TIP3    H130389   2.173   2.196   5.872 -2.0823 -1.1731  0.3702
 2966TIP3    H230390   2.184   2.331   5.940 -0.3752 -1.7516  1.2494
 2967TIP3   OH230391   2.623   6.716  15.783 -0.3432 -0.3730  0.1279
 2967TIP3    H130392   2.559   6.723  15.854  0.7110 -0.7971  1.1441
 2967TIP3    H230393   2.623   6.623  15.760 -0.1892 -0.3522  0.0448
 2968TIP3   OH230394   0.211   2.252  17.104  0.1025  0.3004  0.1184
 2968TIP3    H130395   0.153   2.327  17.120  0.4994  0.5199  0.5255
 2968TIP3    H230396   0.275   2.284  17.041 -0.6014 -0.1395 -0.8468
 2969TIP3   OH230397   5.564   4.339   2.665  0.5148  0.3221  0.0643
 2969TIP3    H130398   5.494   4.397   2.636  0.3770 -0.3053 -0.8693
 2969TIP3    H230399   5.644   4.389   2.651  0.3454  0.5465 -0.0964
 2970TIP3   OH230400   4.505   0.116   4.818 -0.0345  0.2382 -0.7576
 2970TIP3    H130401   4.506   0.192   4.759 -0.0163  0.0593 -0.9878
 2970TIP3    H230402   4.595   0.107   4.848 -0.4066  1.5776  0.9078
 2971TIP3   OH230403   1.716   5.918   4.192  0.6502  0.1104 -0.1386
 2971TIP3    H130404   1.760   5.907   4.108  0.8737 -2.3036  0.2703
 2971TIP3    H230405   1.644   5.856   4.190 -1.6660  2.6874 -0.0269
 2972TIP3   OH230406   0.981   3.764   6.037  0.1272 -0.2436 -0.2160
 2972TIP3    H130407   1.025   3.685   6.006  1.0756  0.2455 -0.1612
 2972TIP3    H230408   1.023   3.835   5.988 -0.5602  0.2406 -0.1045
 2973TIP3   OH230409   5.293   1.268  12.139 -0.2952  0.1671 -0.2433
 2973TIP3    H130410   5.384   1.242  12.130  0.1753  1.6112  0.1923
 2973TIP3    H230411   5.255   1.201  12.196  0.1835 -1.0866 -1.3618
 2974TIP3   OH230412   1.483   2.454  11.529 -0.3206 -0.8183  0.2990
 2974TIP3    H130413   1.409   2.513  11.519  0.8918  0.4326 -1.9953
 2974TIP3    H230414   1.500   2.451  11.623  0.6138  3.9048  0.4100
 2975TIP3   OH230415   4.460   5.961  14.389  0.1137  0.7040  0.3030
 2975TIP3    H130416   4.410   5.882  14.369  0.8966  0.2295  0.2044
 2975TIP3    H230417   4.542   5.928  14.428 -0.3042  1.5071  1.9234
 2976TIP3   OH230418   6.547   1.844   2.000  0.6868 -0.2209 -0.2848
 2976TIP3    H130419   6.523   1.777   2.063 -0.0121 -0.4163 -0.7469
 2976TIP3    H230420   6.637   1.823   1.976  0.9453 -0.1661  0.6122
 2977TIP3   OH230421   3.210   0.515  14.710  0.3835 -0.1034 -0.2993
 2977TIP3    H130422   3.145   0.583  14.726  0.3774 -0.2404  0.2929
 2977TIP3    H230423   3.294   0.561  14.707  0.4279 -0.1196  0.5510
 2978TIP3   OH230424   6.055   3.076   1.240  0.7027 -0.5182 -0.6181
 2978TIP3    H130425   6.129   3.116   1.285  0.8300 -0.7189 -0.6506
 2978TIP3    H230426   5.988   3.067   1.308  1.2322 -1.7039 -0.2429
 2979TIP3   OH230427   5.708   4.668  12.067  0.0768 -0.0472  0.2877
 2979TIP3    H130428   5.725   4.645  12.158 -1.6200 -0.5615  0.4848
 2979TIP3    H230429   5.768   4.614  12.017  1.7316  0.9503  1.1240
 2980TIP3   OH230430   3.973   6.359   3.957 -0.6276 -0.7987 -0.0016
 2980TIP3    H130431   4.055   6.316   3.978 -0.4012 -2.1288 -3.3051
 2980TIP3    H230432   3.997   6.449   3.936 -0.5617 -0.1249  2.7962
 2981TIP3   OH230433   5.380   6.131  15.894 -0.5943  0.1150  0.3052
 2981TIP3    H130434   5.345   6.218  15.914  0.0283  0.1620  1.2035
 2981TIP3    H230435   5.388   6.130  15.798 -1.7517  0.5967  0.2027
 2982TIP3   OH230436   2.385   0.739   1.165 -0.2700 -0.2959  0.0256
 2982TIP3    H130437   2.414   0.699   1.083  3.2443 -0.6638  1.3685
 2982TIP3    H230438   2.328   0.811   1.137 -1.3025 -2.0691 -2.6299
 2983TIP3   OH230439   2.669   0.259   0.283 -0.0271  0.2067  0.0502
 2983TIP3    H130440   2.620   0.323   0.232  2.4612  1.7007 -0.5888
 2983TIP3    H230441   2.757   0.296   0.290  1.4096 -2.9833 -0.0392
 2984TIP3   OH230442   4.782   5.244   3.804  0.5959  0.6680 -0.2831
 2984TIP3    H130443   4.785   5.236   3.900  0.5533 -0.6569 -0.3890
 2984TIP3    H230444   4.767   5.155   3.773  2.6538  0.7563 -1.6154
 2985TIP3   OH230445   3.251   4.259   3.540  0.5163 -0.1044  0.1940
 2985TIP3    H130446   3.264   4.236   3.448  1.3921  0.4370  0.1710
 2985TIP3    H230447   3.318   4.209   3.587  1.3540  1.0965  0.3167
 2986TIP3   OH230448   4.025   5.323   1.049  0.3666 -0.3045 -0.1085
 2986TIP3    H130449   4.039   5.314   0.955  0.2679  0.4697 -0.1978
 2986TIP3    H230450   4.076   5.400   1.074  0.0713 -0.2713  0.4028
 2987TIP3   OH230451   2.369   4.589  13.565 -0.0038  0.2029  0.7756
 2987TIP3    H130452   2.295   4.577  13.506  1.3167 -2.5402 -0.3960
 2987TIP3    H230453   2.329   4.602  13.651 -1.8569 -0.3272  0.0085
 2988TIP3   OH230454   3.003   1.367  14.163  0.0997 -0.1122  0.0657
 2988TIP3    H130455   3.058   1.297  14.126 -1.3960 -1.3385  0.0970
 2988TIP3    H230456   2.978   1.420  14.087 -0.7639 -1.0625 -0.3340
 2989TIP3   OH230457   4.711   2.837   1.540 -0.3106  0.4182 -0.0321
 2989TIP3    H130458   4.653   2.785   1.596  0.4551 -0.1044  0.2944
 2989TIP3    H230459   4.788   2.781   1.528  0.8039  1.7395  0.8703
 2990TIP3   OH230460   1.046   1.993   4.946  0.1893 -0.2593 -0.5029
 2990TIP3    H130461   1.053   2.019   5.038 -0.2975 -1.3362 -0.1623
 2990TIP3    H230462   0.954   1.971   4.934  0.0639  0.7764 -1.4971
 2991TIP3   OH230463   2.761   1.495   6.218  1.1659 -0.0982  0.2356
 2991TIP3    H130464   2.776   1.431   6.288  1.1181 -1.1918 -0.7346
 2991TIP3    H230465   2.839   1.550   6.219  0.8006  0.4038  1.6787
 2992TIP3   OH230466   1.459   3.425   5.359  0.1293  0.3826 -0.5811
 2992TIP3    H130467   1.475   3.355   5.295  0.3930 -0.2135  0.1325
 2992TIP3    H230468   1.379   3.397   5.404 -0.7213  1.3866 -1.4426
 2993TIP3   OH230469   3.789   5.251  14.119 -0.7643  0.4249  0.4329
 2993TIP3    H130470   3.727   5.287  14.183  0.0479  1.1764  0.8094
 2993TIP3    H230471   3.752   5.274  14.034 -3.5200 -3.3065  0.4852
 2994TIP3   OH230472   0.370   3.391  15.607 -0.3883  0.0819 -0.2185
 2994TIP3    H130473   0.400   3.315  15.557 -2.4037 -0.1767 -1.1032
 2994TIP3    H230474   0.326   3.446  15.542  1.3077  2.1656  0.3583
 2995TIP3   OH230475   4.634   1.523   6.214  0.4672  0.6560  0.2740
 2995TIP3    H130476   4.638   1.542   6.307 -2.4568  0.5664  0.4616
 2995TIP3    H230477   4.578   1.591   6.178 -2.8261 -2.3350 -0.5026
 2996TIP3   OH230478   3.962   0.714   4.043 -0.0935  0.5789 -0.0677
 2996TIP3    H130479   3.899   0.781   4.068  0.1303  0.9487 -0.4917
 2996TIP3    H230480   4.033   0.724   4.106 -1.6488 -1.6233  2.1316
 2997TIP3   OH230481   2.241   3.322   1.650 -0.2817  0.3597  0.4109
 2997TIP3    H130482   2.312   3.337   1.713 -0.0906 -0.7502  0.4695
 2997TIP3    H230483   2.272   3.360   1.568  0.8156 -1.0114  0.1779
 2998TIP3   OH230484   2.961   0.239   0.261  0.3290  0.2177 -0.7366
 2998TIP3    H130485   2.956   0.146   0.237  0.0869 -0.0256  0.2376
 2998TIP3    H230486   3.028   0.243   0.329 -1.3436  0.3692  0.9541
 2999TIP3   OH230487   6.247   3.432  13.407 -0.8230  0.4852  0.5446
 2999TIP3    H130488   6.180   3.378  13.365 -0.1102 -0.1149  0.1792
 2999TIP3    H230489   6.330   3.389  13.386 -0.3249  1.1753  1.0717
 3000TIP3   OH230490   6.688   3.654   6.192 -0.1074  0.1197 -0.3468
 3000TIP3    H130491   6.767   3.600   6.190 -1.4752 -2.0035  0.7896
 3000TIP3    H230492   6.720   3.743   6.203  2.1421 -0.6540 -0.3651
 3001TIP3   OH230493   1.088   3.390  11.233 -0.3957  0.2632 -0.6028
 3001TIP3    H130494   1.173   3.399  11.277 -2.3819 -0.2359  3.6454
 3001TIP3    H230495   1.080   3.296  11.215 -1.0183 -0.0905  1.3112
 3002TIP3   OH230496   2.334   5.043   4.874  0.4587  0.0470 -0.2386
 3002TIP3    H130497   2.383   5.058   4.954  0.1202  2.1394 -0.4127
 3002TIP3    H230498   2.333   5.128   4.830 -1.8346 -0.3898 -1.0664
 3003TIP3   OH230499   2.435   0.516   3.611 -0.5393  0.1980  0.3136
 3003TIP3    H130500   2.395   0.540   3.527 -0.5756  0.1667  0.3216
 3003TIP3    H230501   2.480   0.434   3.593 -1.2622 -0.2500  0.5339
 3004TIP3   OH230502   0.231   1.708  16.786  0.0934 -0.4884  0.4499
 3004TIP3    H130503   0.193   1.701  16.874 -0.7560 -3.2176 -0.0803
 3004TIP3    H230504   0.240   1.617  16.757  1.3085  0.3533 -1.8939
 3005TIP3   OH230505   0.190   1.039  10.175 -0.0329 -0.4376  0.1190
 3005TIP3    H130506   0.151   0.989  10.103  0.2514  0.5251 -0.7107
 3005TIP3    H230507   0.160   1.128  10.162  0.2333 -0.2046  1.0544
 3006TIP3   OH230508   3.995   0.469   0.947  0.5030 -0.2301  0.3104
 3006TIP3    H130509   4.091   0.464   0.953  0.7551  0.4836 -2.5664
 3006TIP3    H230510   3.970   0.388   0.903 -0.1191  0.0964  0.0633
 3007TIP3   OH230511   3.225   6.369  13.371  0.0214  0.2640 -0.0638
 3007TIP3    H130512   3.303   6.379  13.426 -0.3936 -1.6560  0.9468
 3007TIP3    H230513   3.209   6.456  13.336  1.2910  1.1917  1.5527
 3008TIP3   OH230514   5.731   2.010  11.660 -0.1502  0.1598  0.1069
 3008TIP3    H130515   5.656   1.962  11.695 -0.2935 -0.5665 -1.1544
 3008TIP3    H230516   5.797   2.007  11.730 -1.6419  1.6932  1.6214
 3009TIP3   OH230517   3.555   2.855  16.349  0.1478 -0.1861  0.0964
 3009TIP3    H130518   3.511   2.912  16.286  0.4409 -2.4923 -2.2733
 3009TIP3    H230519   3.503   2.775  16.350 -0.2831  0.0667  3.4118
 3010TIP3   OH230520   2.457   4.844  10.436  0.7366  0.2636  0.4276
 3010TIP3    H130521   2.373   4.807  10.409 -0.2608  1.3022  1.9837
 3010TIP3    H230522   2.503   4.772  10.478  0.1211 -0.0130  0.6358
 3011TIP3   OH230523   4.214   1.492  11.744 -0.0865  0.0469  0.1395
 3011TIP3    H130524   4.143   1.452  11.795 -1.5699  3.9036  1.2853
 3011TIP3    H230525   4.291   1.439  11.765 -2.0935 -2.6553  0.9210
 3012TIP3   OH230526   6.754   0.691   1.027 -0.1481  0.6667 -0.2408
 3012TIP3    H130527   6.683   0.673   0.966  0.1997 -0.6586 -0.2749
 3012TIP3    H230528   6.832   0.695   0.972  0.3104 -1.5314  0.2081
 3013TIP3   OH230529   0.133   5.816  13.161 -0.8918 -0.2206  0.5515
 3013TIP3    H130530   0.137   5.737  13.215  1.4090  0.7618  1.8902
 3013TIP3    H230531   0.109   5.886  13.222 -0.9373  0.4541 -0.2212
 3014TIP3   OH230532   1.214   6.513  12.830 -0.9419 -0.0283  0.2852
 3014TIP3    H130533   1.219   6.430  12.877 -0.6818 -0.0082  0.2967
 3014TIP3    H230534   1.223   6.580  12.897 -1.3616  0.0142  0.3050
 3015TIP3   OH230535   0.519   6.634  11.275 -0.3961 -0.3671  0.8012
 3015TIP3    H130536   0.558   6.649  11.362 -0.5021  1.1593  0.6015
 3015TIP3    H230537   0.428   6.612  11.293 -0.3555 -0.2960  1.1034
 3016TIP3   OH230538   2.168   2.701   6.681  0.1230 -0.3245  0.5466
 3016TIP3    H130539   2.113   2.679   6.757  0.7327 -2.3185  0.4438
 3016TIP3    H230540   2.238   2.755   6.717  0.3213 -1.1319  1.3958
 3017TIP3   OH230541   4.640   2.842  14.942  0.4915  0.0744 -0.0850
 3017TIP3    H130542   4.616   2.930  14.913 -1.4897 -0.5241 -0.3415
 3017TIP3    H230543   4.686   2.804  14.867  2.7221  1.3940  0.5674
 3018TIP3   OH230544   0.472   2.298  11.579 -0.5078 -0.4921 -0.0035
 3018TIP3    H130545   0.463   2.362  11.650 -0.8494 -0.3928 -0.1324
 3018TIP3    H230546   0.525   2.343  11.513 -1.7833  0.1197 -0.6259
 3019TIP3   OH230547   4.423   4.129   3.468 -0.0991 -0.6945 -0.0850
 3019TIP3    H130548   4.493   4.141   3.532  0.9230 -0.4544 -1.2419
 3019TIP3    H230549   4.465   4.142   3.383 -1.7238  0.3018 -0.7610
 3020TIP3   OH230550   2.374   4.735  15.346  0.1775  0.0179 -0.5708
 3020TIP3    H130551   2.379   4.828  15.326  0.4709  0.0865 -0.1765
 3020TIP3    H230552   2.371   4.692  15.261 -0.5401  0.4225 -0.7549
 3021TIP3   OH230553   1.666   5.985   3.702 -0.0288  0.0757 -0.2914
 3021TIP3    H130554   1.735   6.021   3.759  0.4057  0.6259 -1.1586
 3021TIP3    H230555   1.586   6.028   3.732 -0.1813 -1.3258  1.4036
 3022TIP3   OH230556   0.826   4.529   2.385  0.2611 -0.0417  0.0074
 3022TIP3    H130557   0.750   4.586   2.386 -0.4906 -1.0468  0.5569
 3022TIP3    H230558   0.850   4.518   2.477  0.2624 -0.7925 -0.0763
 3023TIP3   OH230559   3.546   4.003  15.746  0.4483 -0.0047 -0.2634
 3023TIP3    H130560   3.513   3.938  15.684  0.1125 -2.9287  2.8688
 3023TIP3    H230561   3.641   4.001  15.735  0.5376 -1.9518  0.6214
 3024TIP3   OH230562   6.168   1.366  16.795 -0.0404  0.2972  0.5580
 3024TIP3    H130563   6.077   1.385  16.771 -0.2126 -0.1213  0.8663
 3024TIP3    H230564   6.174   1.271  16.792  1.4448  0.4313 -3.3027
 3025TIP3   OH230565   1.455   5.642   3.842 -0.6382 -0.3903 -0.1228
 3025TIP3    H130566   1.423   5.715   3.789 -1.2431 -0.1976  0.5081
 3025TIP3    H230567   1.495   5.582   3.778  0.5822  0.8682 -0.5476
 3026TIP3   OH230568   5.197   2.684  11.551 -0.6363  0.4051  0.4453
 3026TIP3    H130569   5.193   2.772  11.587  1.1399  0.4943  0.4875
 3026TIP3    H230570   5.289   2.659  11.560 -0.3193  0.0448 -3.0966
 3027TIP3   OH230571   0.507   2.754  16.272 -0.2443 -0.6021 -0.5720
 3027TIP3    H130572   0.540   2.666  16.290  0.3696  0.1991  2.6495
 3027TIP3    H230573   0.582   2.800  16.234  0.8946 -0.2246  2.0117
 3028TIP3   OH230574   1.225   1.490   0.533 -0.4193 -0.1339 -0.3045
 3028TIP3    H130575   1.170   1.487   0.612  0.3399 -1.4159  0.2007
 3028TIP3    H230576   1.294   1.553   0.554 -0.3510 -0.2993 -0.0285
 3029TIP3   OH230577   1.152   0.299  17.245 -0.2764 -0.1893 -0.0872
 3029TIP3    H130578   1.133   0.377  17.192  0.0670 -0.9182 -1.3148
 3029TIP3    H230579   1.234   0.321  17.290 -1.4445  1.0908  1.4895
 3030TIP3   OH230580   2.726   6.714  13.130  0.3111  0.4874 -0.0083
 3030TIP3    H130581   2.771   6.795  13.104  0.5310 -0.3216 -2.2029
 3030TIP3    H230582   2.634   6.731  13.110  0.4997 -0.1884 -1.5154
 3031TIP3   OH230583   0.040   1.492   4.382 -0.6434 -0.2620 -0.1854
 3031TIP3    H130584  -0.027   1.484   4.314 -0.5832 -1.2113 -0.1443
 3031TIP3    H230585   0.102   1.557   4.349 -0.6733 -0.6417 -0.9819
 3032TIP3   OH230586   4.075   5.948  11.452  0.0919  0.3023  0.1563
 3032TIP3    H130587   4.051   6.006  11.525  0.3033  0.6201 -0.0230
 3032TIP3    H230588   3.995   5.901  11.431 -0.0624  0.4759  0.3543
 3033TIP3   OH230589   6.383   0.088   3.151  0.3212  0.4116  0.1958
 3033TIP3    H130590   6.413   0.127   3.069  1.4456 -0.0543  0.3802
 3033TIP3    H230591   6.436   0.008   3.160 -0.4096  0.0124  0.9339
 3034TIP3   OH230592   0.258   1.090  16.080 -0.0177  0.1104 -0.0822
 3034TIP3    H130593   0.301   1.088  15.995 -0.2135 -2.1855 -0.1675
 3034TIP3    H230594   0.180   1.035  16.069 -0.8216  0.9478  1.1864
 3035TIP3   OH230595   1.083   3.660  13.000 -0.5720  0.2517  0.0918
 3035TIP3    H130596   1.171   3.671  12.964 -1.2448  2.6727 -0.9049
 3035TIP3    H230597   1.025   3.677  12.926 -1.8895 -2.8673  0.3511
 3036TIP3   OH230598   2.016   6.339   2.254 -0.1147 -0.3727 -0.2621
 3036TIP3    H130599   2.028   6.403   2.325 -0.0654 -0.7595  0.0762
 3036TIP3    H230600   1.983   6.391   2.181  0.0515  0.0676 -0.0263
 3037TIP3   OH230601   0.009   4.659   1.987  0.3480 -0.2451  0.3145
 3037TIP3    H130602  -0.006   4.642   2.080 -0.3671  2.1963  0.6959
 3037TIP3    H230603   0.035   4.751   1.984  1.5623 -0.6276 -1.7946
 3038TIP3   OH230604   1.679   4.096   1.274  0.4915 -0.2548  0.3039
 3038TIP3    H130605   1.641   4.023   1.225  1.0429  0.2256 -0.8743
 3038TIP3    H230606   1.768   4.067   1.294  0.7843  0.1658 -0.3581
 3039TIP3   OH230607   1.371   4.120   2.830  0.5262 -0.3568 -0.0878
 3039TIP3    H130608   1.424   4.135   2.908  1.7690 -1.5299 -0.6803
 3039TIP3    H230609   1.428   4.148   2.758 -0.6891  0.9195 -0.5727
 3040TIP3   OH230610   0.882   5.914   3.613  0.9407 -0.1963  0.0690
 3040TIP3    H130611   0.830   5.863   3.675  0.8609  1.1353  1.1382
 3040TIP3    H230612   0.870   5.870   3.529  0.2779 -1.4761  0.8208
 3041TIP3   OH230613   1.023   1.614  14.371 -0.1607  0.4079 -0.0081
 3041TIP3    H130614   1.046   1.530  14.331 -0.2477  0.8515 -1.0159
 3041TIP3    H230615   1.056   1.608  14.460  1.4233 -0.0280 -0.6071
 3042TIP3   OH230616   5.591   3.232  10.888  0.4163 -0.3142 -0.3901
 3042TIP3    H130617   5.592   3.142  10.920 -0.2696 -0.0883  0.2874
 3042TIP3    H230618   5.564   3.225  10.796  1.7342 -0.9091 -0.7367
 3043TIP3   OH230619   3.037   1.129   2.970 -0.2227 -0.2767 -0.4894
 3043TIP3    H130620   2.964   1.179   3.006 -0.6935 -0.2160 -1.5149
 3043TIP3    H230621   2.997   1.071   2.905  0.6443 -0.1923 -1.1074
 3044TIP3   OH230622   4.484   5.791  14.069  0.3960 -0.4265  0.2716
 3044TIP3    H130623   4.513   5.789  13.978 -1.2673 -0.2439 -0.2595
 3044TIP3    H230624   4.566   5.790  14.119  1.3606  1.0599 -1.2188
 3045TIP3   OH230625   0.214   5.979   4.202  0.1867 -0.2454 -0.4780
 3045TIP3    H130626   0.198   5.937   4.286  0.5942  0.1577 -0.1976
 3045TIP3    H230627   0.215   6.072   4.221  0.8011 -0.1746 -0.8415
 3046TIP3   OH230628   0.918   4.970  17.062 -0.0277 -0.1927 -0.1022
 3046TIP3    H130629   0.925   4.877  17.085  0.9686 -0.2267 -0.5231
 3046TIP3    H230630   0.871   5.009  17.135 -1.1383 -1.1590 -0.2671
 3047TIP3   OH230631   2.638   6.385   6.777 -0.3863  0.2531  0.2304
 3047TIP3    H130632   2.571   6.429   6.829  1.8785 -0.0633  3.6009
 3047TIP3    H230633   2.621   6.292   6.788 -2.6953  0.1124 -3.5529
 3048TIP3   OH230634   4.868   2.568  10.465 -0.3259  0.3146  0.2397
 3048TIP3    H130635   4.838   2.478  10.459 -2.1771  0.8963  0.4282
 3048TIP3    H230636   4.906   2.575  10.553 -1.2561  0.0143  0.6760
 3049TIP3   OH230637   5.158   2.073  11.715  0.4108  0.4548 -0.6856
 3049TIP3    H130638   5.135   1.984  11.689  2.3688 -0.4749  0.6352
 3049TIP3    H230639   5.127   2.080  11.805 -1.0306  1.6310 -1.2480
 3050TIP3   OH230640   1.836   3.648   3.658 -0.6063  0.1921 -0.0847
 3050TIP3    H130641   1.827   3.576   3.721 -2.2123  1.0208  0.6623
 3050TIP3    H230642   1.829   3.605   3.573 -2.7274 -0.4122  0.3700
 3051TIP3   OH230643   3.503   5.752  14.952 -0.9757 -0.1265  0.6853
 3051TIP3    H130644   3.457   5.804  15.018 -0.5848  0.5124  0.4669
 3051TIP3    H230645   3.550   5.686  15.002 -0.7389  0.3105  1.0486
 3052TIP3   OH230646   4.138   0.448  14.800 -0.1760  0.2798 -0.1344
 3052TIP3    H130647   4.147   0.414  14.711 -0.4290  0.4988 -0.2426
 3052TIP3    H230648   4.155   0.373  14.856 -0.5751  0.0116 -0.3726
 3053TIP3   OH230649   0.375   6.068  15.725 -0.0382 -0.5018 -0.0112
 3053TIP3    H130650   0.407   5.982  15.755  5.8376  0.8487 -1.6804
 3053TIP3    H230651   0.377   6.061  15.629 -0.4769  1.2010 -0.1509
 3054TIP3   OH230652   6.616   5.864  12.720  0.1458 -0.0004 -0.3951
 3054TIP3    H130653   6.522   5.879  12.726  0.2853  1.1810 -0.9671
 3054TIP3    H230654   6.644   5.853  12.811 -0.1197  2.5194  0.0334
 3055TIP3   OH230655   5.145   1.465   5.056  0.3630 -0.6295 -0.3547
 3055TIP3    H130656   5.090   1.542   5.073  1.0807 -0.4552  1.2522
 3055TIP3    H230657   5.187   1.484   4.972 -0.3379  0.2297 -0.5202
 3056TIP3   OH230658   0.490   4.802   1.963 -0.4807  0.5996 -0.6205
 3056TIP3    H130659   0.516   4.803   1.871  0.5287  0.5641 -0.3352
 3056TIP3    H230660   0.432   4.726   1.970 -1.0089  0.9263 -1.3428
 3057TIP3   OH230661   2.094   4.367   3.555  0.0660  0.3579  0.0661
 3057TIP3    H130662   2.027   4.397   3.494 -0.2788  0.5956  0.5528
 3057TIP3    H230663   2.172   4.354   3.501  0.0402  1.5184 -0.2603
 3058TIP3   OH230664   4.198   6.077  12.983 -0.3695 -0.6186 -0.3001
 3058TIP3    H130665   4.264   6.011  12.968  0.1360  0.2433 -1.9611
 3058TIP3    H230666   4.196   6.129  12.903 -0.0611  1.9849  1.3158
 3059TIP3   OH230667   1.209   5.422   2.867  0.0637 -0.2401  0.3485
 3059TIP3    H130668   1.210   5.433   2.962  1.1017 -2.9010  0.6810
 3059TIP3    H230669   1.141   5.357   2.850  0.2194 -0.1430 -0.6970
 3060TIP3   OH230670   3.790   6.083   1.334 -0.0642 -0.3589  0.0255
 3060TIP3    H130671   3.783   6.005   1.389 -1.9078 -0.8495 -0.8791
 3060TIP3    H230672   3.810   6.049   1.247  0.9990  0.3079  0.0027
 3061TIP3   OH230673   1.568   6.801  11.476  0.0355  0.3063  0.1274
 3061TIP3    H130674   1.610   6.886  11.487 -0.1094  0.1964  1.5945
 3061TIP3    H230675   1.623   6.755  11.413  0.2758  1.3684 -0.4512
 3062TIP3   OH230676   0.552   4.122  10.612  0.0962 -0.3707 -0.9885
 3062TIP3    H130677   0.487   4.052  10.624  0.5824 -0.8723 -1.2320
 3062TIP3    H230678   0.502   4.203  10.623 -0.0904 -0.7662  1.1927
 3063TIP3   OH230679   2.569   4.358   5.612  0.0874 -0.0938  0.8191
 3063TIP3    H130680   2.482   4.335   5.582 -0.0228  0.8876  0.3946
 3063TIP3    H230681   2.555   4.417   5.686  0.3962  0.9076  0.0866
 3064TIP3   OH230682   3.787   4.415   1.620 -0.3859 -0.5293 -0.0967
 3064TIP3    H130683   3.827   4.500   1.598 -0.5273 -0.5537 -0.4551
 3064TIP3    H230684   3.832   4.388   1.700 -1.0706  0.3723  0.5957
 3065TIP3   OH230685   5.093   1.716   5.186  0.0129 -0.4653  0.5199
 3065TIP3    H130686   5.036   1.756   5.251 -0.2984 -0.6537  0.3647
 3065TIP3    H230687   5.049   1.731   5.102  0.7200  0.3278  0.2775
 3066TIP3   OH230688   2.482   6.276  14.034 -0.2967  0.1642 -0.4926
 3066TIP3    H130689   2.510   6.185  14.018 -0.9129  0.0269 -0.7928
 3066TIP3    H230690   2.503   6.291  14.127  0.5484 -0.0143 -0.6486
 3067TIP3   OH230691   2.886   4.149   2.809 -0.0633  0.1713 -0.0321
 3067TIP3    H130692   2.793   4.165   2.820 -0.1141 -0.5605  0.5897
 3067TIP3    H230693   2.926   4.236   2.814 -0.6424  0.4172  0.3386
 3068TIP3   OH230694   1.023   4.399  12.502  0.1232  0.6269 -0.3522
 3068TIP3    H130695   0.943   4.451  12.504  0.0976  0.5841 -0.2918
 3068TIP3    H230696   1.093   4.464  12.495  0.1217  0.6919  0.2549
 3069TIP3   OH230697   6.293   0.642  14.125  0.4737  0.4466 -0.0529
 3069TIP3    H130698   6.374   0.668  14.168 -0.3987  0.0399  1.8655
 3069TIP3    H230699   6.236   0.718  14.132 -0.8711 -0.7522  2.5580
 3070TIP3   OH230700   1.988   4.353   1.611 -0.3641 -0.3410 -0.4355
 3070TIP3    H130701   1.998   4.448   1.601 -0.7564 -0.4204 -1.6515
 3070TIP3    H230702   1.897   4.341   1.636 -0.7505 -0.4894 -1.8385
 3071TIP3   OH230703   6.421   4.376   2.692 -0.2272  0.7006 -0.1525
 3071TIP3    H130704   6.461   4.296   2.729 -2.6690  0.0271  1.1312
 3071TIP3    H230705   6.491   4.441   2.696  0.8636 -0.5326  1.7172
 3072TIP3   OH230706   0.001   0.477   2.044 -0.4118  0.2110 -0.7808
 3072TIP3    H130707   0.090   0.447   2.063 -1.8939 -2.9242  1.5419
 3072TIP3    H230708  -0.004   0.478   1.949  1.7960 -0.4983 -0.9248
 3073TIP3   OH230709   4.253   4.746  13.758 -0.7509  0.0060  0.0575
 3073TIP3    H130710   4.199   4.818  13.789  0.4861  0.3661  1.4476
 3073TIP3    H230711   4.334   4.754  13.808 -0.8472 -2.7610  0.7335
 3074TIP3   OH230712   5.528   4.036  17.227 -0.4240  0.1174  0.3771
 3074TIP3    H130713   5.442   4.074  17.244 -0.0162  0.4104  1.9235
 3074TIP3    H230714   5.530   3.959  17.285  0.4401  0.2539  0.5238
 3075TIP3   OH230715   4.421   4.249   6.432  0.7905  0.2433 -0.2667
 3075TIP3    H130716   4.350   4.309   6.408  1.9918  1.2337 -1.4382
 3075TIP3    H230717   4.441   4.202   6.351  0.5147 -1.0449  0.4095
 3076TIP3   OH230718   6.113   3.701  12.532 -0.1605  0.4882 -0.1867
 3076TIP3    H130719   6.094   3.631  12.594 -0.6910  1.5236  0.8302
 3076TIP3    H230720   6.128   3.779  12.586  1.9945  0.8317 -1.2007
 3077TIP3   OH230721   5.051   0.540   5.869 -0.4461 -0.7972  0.1858
 3077TIP3    H130722   5.137   0.503   5.845 -0.2019  0.4665 -1.0040
 3077TIP3    H230723   5.024   0.490   5.945  1.5387 -0.9701  0.8226
 3078TIP3   OH230724   5.257   1.796  14.575  0.7678  0.1193 -0.2404
 3078TIP3    H130725   5.303   1.873  14.541  1.2859 -0.0310  0.1010
 3078TIP3    H230726   5.216   1.757  14.498  0.9916  0.4108 -0.5108
 3079TIP3   OH230727   3.841   0.633  16.784 -0.3148  0.2633  0.0605
 3079TIP3    H130728   3.815   0.725  16.788  1.6659  0.7831  2.0478
 3079TIP3    H230729   3.762   0.587  16.756 -1.4488  2.5097 -0.5898
 3080TIP3   OH230730   2.200   2.287  17.161 -0.1363 -0.7411 -0.1632
 3080TIP3    H130731   2.282   2.316  17.122  0.8414 -1.5212  1.2773
 3080TIP3    H230732   2.183   2.201  17.121 -2.5251  1.2654 -3.6898
 3081TIP3   OH230733   5.777   3.687  12.844 -0.5744 -0.5931 -0.1140
 3081TIP3    H130734   5.796   3.758  12.906  0.2690  1.0700 -2.2219
 3081TIP3    H230735   5.683   3.671  12.854 -1.0629  1.7777 -0.5836
 3082TIP3   OH230736   0.730   3.421  17.212  0.8199 -0.4673 -0.0008
 3082TIP3    H130737   0.813   3.429  17.165  1.0344 -0.7477  0.3225
 3082TIP3    H230738   0.683   3.502  17.193  0.7208 -0.7607 -1.0462
 3083TIP3   OH230739   4.101   6.563   5.543 -0.2693  0.2146 -0.3711
 3083TIP3    H130740   4.114   6.647   5.586  0.4277 -0.2073  0.2724
 3083TIP3    H230741   4.190   6.532   5.525 -0.4604 -1.0749  0.7839
 3084TIP3   OH230742   0.287   3.219  17.087  0.3338 -0.3804 -0.0616
 3084TIP3    H130743   0.371   3.184  17.117  0.2801  0.6078  1.3077
 3084TIP3    H230744   0.308   3.277  17.015  1.0278  1.1413  1.3298
 3085TIP3   OH230745   3.631   4.826   2.272  0.2781  0.0231  0.2540
 3085TIP3    H130746   3.552   4.774   2.253 -1.2424  1.6510  1.9849
 3085TIP3    H230747   3.675   4.777   2.342 -0.9520  0.8335  1.6145
 3086TIP3   OH230748   1.014   0.866  12.922  0.0033 -0.4352 -0.5695
 3086TIP3    H130749   0.973   0.779  12.930 -0.4603 -0.2895 -1.3235
 3086TIP3    H230750   0.944   0.927  12.944  0.8410 -0.2919  1.8843
 3087TIP3   OH230751   3.344   1.751  12.646 -0.1453  0.6439  0.5690
 3087TIP3    H130752   3.311   1.662  12.630 -2.7761  1.7175 -0.1884
 3087TIP3    H230753   3.391   1.744  12.729  0.1411 -1.5539  0.2701
 3088TIP3   OH230754   2.936   0.016  11.565 -0.2639  0.5044 -0.4903
 3088TIP3    H130755   2.878  -0.035  11.621  0.0166  0.5877 -0.1186
 3088TIP3    H230756   3.001   0.053  11.625 -0.8395  1.8314 -0.6638
 3089TIP3   OH230757   4.418   5.489  12.777  0.3126 -0.6793 -0.3475
 3089TIP3    H130758   4.400   5.437  12.856  0.2933 -0.3336 -0.1205
 3089TIP3    H230759   4.509   5.467  12.755  0.3366 -0.7348 -0.1968
 3090TIP3   OH230760   3.164   0.772   1.277  0.1209 -0.3672  0.7698
 3090TIP3    H130761   3.115   0.789   1.358  0.4259 -0.8807  1.0632
 3090TIP3    H230762   3.255   0.789   1.300  0.1575 -0.0822  0.4124
 3091TIP3   OH230763   2.182   3.776  14.389  0.3999 -0.2201 -0.2838
 3091TIP3    H130764   2.244   3.839  14.351  0.5333  0.6711  1.3715
 3091TIP3    H230765   2.110   3.773  14.326  0.1797  1.9257 -0.1886
 3092TIP3   OH230766   2.069   4.457  14.825  0.2862  0.6836 -0.4684
 3092TIP3    H130767   2.045   4.365  14.835  3.0421 -0.0480 -0.1519
 3092TIP3    H230768   1.997   4.495  14.775 -1.5157 -1.3355  0.4826
 3093TIP3   OH230769   0.077   1.640  10.956 -0.1266 -0.5331 -0.2825
 3093TIP3    H130770   0.005   1.668  10.898 -0.1355 -2.7685 -1.3961
 3093TIP3    H230771   0.156   1.655  10.905  0.1544  0.9264  0.5467
 3094TIP3   OH230772   5.549   2.385  14.192 -0.3460  0.3748 -0.4605
 3094TIP3    H130773   5.564   2.455  14.128 -1.2955  1.6796  0.7289
 3094TIP3    H230774   5.498   2.426  14.261  2.7597 -0.3492  2.4044
 3095TIP3   OH230775   3.497   5.396  16.377  0.2491  0.1766  0.0830
 3095TIP3    H130776   3.555   5.396  16.453 -0.0911 -0.4551  0.3518
 3095TIP3    H230777   3.534   5.461  16.318 -0.3595  1.8241  1.4615
 3096TIP3   OH230778   6.494   5.935  12.100  0.1520 -0.0979  0.2059
 3096TIP3    H130779   6.492   5.940  12.004 -0.2526 -1.0007  0.1618
 3096TIP3    H230780   6.585   5.955  12.123 -0.0752  1.5446 -0.2727
 3097TIP3   OH230781   0.206   6.139   3.932  0.2691 -0.8693 -1.0276
 3097TIP3    H130782   0.115   6.159   3.956  1.6449  1.4735  2.5154
 3097TIP3    H230783   0.250   6.125   4.015  3.3748 -1.2135 -2.6666
 3098TIP3   OH230784   5.157   5.052  15.053  0.3310 -0.0767 -0.6112
 3098TIP3    H130785   5.112   5.118  15.106 -1.5997 -0.3926 -1.7970
 3098TIP3    H230786   5.242   5.040  15.096 -0.5714  0.8143  1.4925
 3099TIP3   OH230787   0.340   4.580   1.976 -0.0088 -0.2806 -0.3345
 3099TIP3    H130788   0.245   4.571   1.963 -0.4178  1.0813  1.4502
 3099TIP3    H230789   0.378   4.509   1.925 -1.9872 -0.7449 -1.2172
 3100TIP3   OH230790   3.790   3.681   5.782  0.6314  0.4801  0.5558
 3100TIP3    H130791   3.697   3.677   5.804  0.2421  0.9246 -0.9578
 3100TIP3    H230792   3.816   3.589   5.774  0.0768  0.3721 -0.0261
 3101TIP3   OH230793   1.730   4.064  17.186 -0.2548 -0.3096 -0.3634
 3101TIP3    H130794   1.699   4.084  17.274 -1.8815 -1.3386 -0.6882
 3101TIP3    H230795   1.782   4.141  17.162  0.1004  0.0462  1.4269
 3102TIP3   OH230796   1.953   5.509   5.834  0.2355 -0.0034  0.2005
 3102TIP3    H130797   1.876   5.528   5.886  0.3791 -0.4068  0.5681
 3102TIP3    H230798   1.975   5.418   5.856  1.3025  0.3796  0.7348
 3103TIP3   OH230799   4.118   0.705   4.302  0.4132 -0.0463  0.3844
 3103TIP3    H130800   4.085   0.711   4.391  1.0365 -3.7362  0.9477
 3103TIP3    H230801   4.199   0.756   4.303  0.0702  0.4896  1.7442
 3104TIP3   OH230802   6.576   0.600  10.795 -0.1925 -0.6180 -0.3807
 3104TIP3    H130803   6.572   0.689  10.829 -0.3371 -0.6967 -0.1908
 3104TIP3    H230804   6.486   0.567  10.802 -0.1720 -0.7222 -0.6014
 3105TIP3   OH230805   4.608   4.382  13.888  0.2232  0.2707 -0.5760
 3105TIP3    H130806   4.575   4.374  13.798 -0.8977  2.1520 -0.3523
 3105TIP3    H230807   4.703   4.393  13.877 -0.1304  2.5279 -1.6682
 3106TIP3   OH230808   0.568   1.105   3.816  0.6902  0.0518  0.2082
 3106TIP3    H130809   0.491   1.145   3.776  0.9530  1.0924  0.7257
 3106TIP3    H230810   0.555   1.113   3.910  1.3598  0.0957  0.3035
 3107TIP3   OH230811   1.219   1.005  15.681 -0.3753  0.7538  0.5478
 3107TIP3    H130812   1.287   1.070  15.697 -0.7597  0.8427  1.8795
 3107TIP3    H230813   1.150   1.026  15.743 -1.3815  0.3128 -0.4044
 3108TIP3   OH230814   4.118   0.606  16.718  0.0124 -0.9090 -0.2557
 3108TIP3    H130815   4.043   0.586  16.775  1.4070 -2.4809  1.0616
 3108TIP3    H230816   4.095   0.567  16.634 -2.0273  1.3504 -0.8227
 3109TIP3   OH230817   2.377   5.162  15.728  0.5777 -0.3181 -0.4295
 3109TIP3    H130818   2.343   5.252  15.728  0.6244 -0.2905  0.3770
 3109TIP3    H230819   2.431   5.158  15.807  0.8533 -0.9519 -0.6571
 3110TIP3   OH230820   0.733   3.748  15.986 -0.0850  0.3611 -0.2213
 3110TIP3    H130821   0.688   3.668  16.013 -1.7387  0.6013 -2.1470
 3110TIP3    H230822   0.818   3.743  16.030 -0.3795 -2.1527  0.1744
 3111TIP3   OH230823   0.171   3.814   4.083 -0.3727  0.1634  0.3613
 3111TIP3    H130824   0.252   3.763   4.071 -1.5315 -1.0850 -2.8125
 3111TIP3    H230825   0.186   3.894   4.033 -1.3222 -0.4287 -0.9301
 3112TIP3   OH230826   5.220   1.889  15.461 -0.4292 -0.0260 -0.2120
 3112TIP3    H130827   5.268   1.881  15.543 -0.6942  1.0270  0.0593
 3112TIP3    H230828   5.134   1.853  15.480 -0.2576 -0.4410 -0.2306
 3113TIP3   OH230829   3.605   2.938   4.430  0.0018 -0.2040  0.0974
 3113TIP3    H130830   3.623   3.016   4.483  2.8472  0.0294 -1.1208
 3113TIP3    H230831   3.538   2.967   4.368  0.1525  0.9278  0.4373
 3114TIP3   OH230832   6.789   6.599   4.337  0.0514 -0.5681  0.6891
 3114TIP3    H130833   6.840   6.544   4.398  1.1712  1.5396  1.7084
 3114TIP3    H230834   6.715   6.630   4.389 -0.9555 -1.6451 -0.0872
 3115TIP3   OH230835   3.457   3.600  11.939  0.5059 -0.3937 -0.0976
 3115TIP3    H130836   3.432   3.634  11.853 -0.2979  0.4262  0.4474
 3115TIP3    H230837   3.467   3.678  11.994  1.0553 -0.9075  0.5412
 3116TIP3   OH230838   1.214   0.342   1.094  0.0785  0.3034  0.5628
 3116TIP3    H130839   1.231   0.428   1.135 -0.3862  0.4799  0.3851
 3116TIP3    H230840   1.278   0.337   1.023 -0.4716  0.8891  0.0151
 3117TIP3   OH230841   2.872   6.185  13.477 -0.2632 -0.0566  0.6225
 3117TIP3    H130842   2.909   6.113  13.427  0.9395 -0.3694  1.9053
 3117TIP3    H230843   2.823   6.142  13.548 -1.4877  0.3730  0.0413
 3118TIP3   OH230844   0.450   6.716   5.822 -0.2760 -0.4545 -0.6022
 3118TIP3    H130845   0.494   6.681   5.900 -1.3424  0.6228  0.5061
 3118TIP3    H230846   0.490   6.802   5.809 -0.4308 -0.4361 -0.9648
 3119TIP3   OH230847   4.879   0.739  14.252 -0.4792  0.2253  0.0261
 3119TIP3    H130848   4.948   0.800  14.227  1.0200 -1.1449  0.7366
 3119TIP3    H230849   4.875   0.676  14.181  0.0281 -0.5345  0.6617
 3120TIP3   OH230850   3.458   5.716  14.677  0.0640  0.0004  0.3395
 3120TIP3    H130851   3.362   5.712  14.681  0.0378  0.5721  0.2922
 3120TIP3    H230852   3.486   5.720  14.769 -0.0095  0.9962  0.3228
 3121TIP3   OH230853   5.061   4.602  12.960 -0.0967 -0.3856 -0.7370
 3121TIP3    H130854   4.967   4.607  12.944 -0.4674 -0.4442  1.3152
 3121TIP3    H230855   5.088   4.518  12.922 -0.9416 -0.5341 -1.0123
 3122TIP3   OH230856   6.056   5.531   1.636 -0.2446  0.1726  0.3470
 3122TIP3    H130857   6.052   5.442   1.671 -1.3682 -0.0244 -0.2646
 3122TIP3    H230858   6.076   5.519   1.543  1.0878  0.6271  0.5588
 3123TIP3   OH230859   5.798   2.582  16.650  0.8727  0.6129 -0.2013
 3123TIP3    H130860   5.866   2.631  16.605 -1.3595  2.9877 -1.0945
 3123TIP3    H230861   5.733   2.648  16.676 -1.3668 -1.6167  0.1288
 3124TIP3   OH230862   6.600   5.450  14.730 -0.0988  0.4304  0.3054
 3124TIP3    H130863   6.651   5.371  14.710 -1.9552 -1.3110  2.3024
 3124TIP3    H230864   6.532   5.452  14.662  0.5573  0.9195 -0.3559
 3125TIP3   OH230865   1.292   4.051  11.766  0.2201  0.1548  0.3033
 3125TIP3    H130866   1.244   4.122  11.723 -0.6242  0.6108  1.9517
 3125TIP3    H230867   1.336   4.005  11.695 -2.8009 -0.4044 -1.2893
 3126TIP3   OH230868   2.295   5.618  13.208  0.0825 -0.4264  0.2814
 3126TIP3    H130869   2.226   5.668  13.252 -0.3836 -0.3008 -0.5873
 3126TIP3    H230870   2.289   5.644  13.116 -0.0536 -1.9446 -0.1544
 3127TIP3   OH230871   2.792   1.429   5.245 -0.1036  0.2479  0.1472
 3127TIP3    H130872   2.752   1.502   5.197 -1.9443 -0.3262  0.7532
 3127TIP3    H230873   2.720   1.366   5.255  1.3670 -1.4921 -0.0584
 3128TIP3   OH230874   5.904   3.707   6.115 -0.2616 -0.3111  0.6119
 3128TIP3    H130875   5.936   3.795   6.135  0.6119 -0.4555 -0.1180
 3128TIP3    H230876   5.961   3.649   6.165  1.1042 -0.6032 -1.2275
 3129TIP3   OH230877   2.790   5.077  17.026 -0.4119  1.1449  0.3599
 3129TIP3    H130878   2.695   5.085  17.012 -0.7599  1.2232  2.5995
 3129TIP3    H230879   2.811   4.988  16.999 -1.6392  0.1836  2.4543
 3130TIP3   OH230880   3.341   1.540  11.631 -0.6282  0.7720  0.1644
 3130TIP3    H130881   3.433   1.525  11.611 -0.7852 -0.3026  0.2395
 3130TIP3    H230882   3.317   1.471  11.693 -0.9754  2.2002  1.6738
 3131TIP3   OH230883   2.033   2.995   3.345  0.0942  0.1682 -0.5287
 3131TIP3    H130884   2.064   2.960   3.261 -1.1721 -1.9287 -0.1435
 3131TIP3    H230885   1.995   2.920   3.390 -0.8218  1.6368  1.2008
 3132TIP3   OH230886   4.265   1.281  13.692  0.2358  0.0422  0.2415
 3132TIP3    H130887   4.176   1.263  13.723  0.0248  0.0613 -0.3424
 3132TIP3    H230888   4.293   1.199  13.650  0.4958  0.0339  0.4281
 3133TIP3   OH230889   6.382   3.525   2.661  0.2650  0.2775 -0.0144
 3133TIP3    H130890   6.428   3.606   2.682  0.8336 -0.3548  1.1896
 3133TIP3    H230891   6.394   3.516   2.566 -0.6656  2.1122 -0.3467
 3134TIP3   OH230892   2.792   3.208  11.759 -0.2652  0.0736 -0.0803
 3134TIP3    H130893   2.723   3.250  11.707 -1.0959  0.0612  1.0024
 3134TIP3    H230894   2.794   3.118  11.726 -1.4663 -0.2002  0.5586
 3135TIP3   OH230895   4.868   6.321  11.520  0.2526  0.1684 -0.4238
 3135TIP3    H130896   4.932   6.385  11.554 -0.1651  0.2356  0.2469
 3135TIP3    H230897   4.896   6.238  11.558 -1.0164  0.4665  1.2061
 3136TIP3   OH230898   6.345   5.759  14.361  0.4129  0.0362 -0.1253
 3136TIP3    H130899   6.429   5.782  14.321  0.3960 -0.2889 -0.3497
 3136TIP3    H230900   6.347   5.800  14.447  0.3369  0.9755 -0.5715
 3137TIP3   OH230901   0.735   4.872   2.473  0.4639  0.5343 -0.1278
 3137TIP3    H130902   0.828   4.881   2.457  0.3686  1.3709 -0.2276
 3137TIP3    H230903   0.700   4.831   2.394  0.5098  1.6189 -0.7119
 3138TIP3   OH230904   2.216   4.057  14.122  0.7368  0.1488  0.2274
 3138TIP3    H130905   2.248   3.978  14.166  0.0108  0.9868  2.3500
 3138TIP3    H230906   2.145   4.027  14.066  0.4392 -0.7049  1.0488
 3139TIP3   OH230907   2.288   0.060  12.651  0.1468 -0.0231  0.1451
 3139TIP3    H130908   2.274   0.128  12.585  0.8548  0.8828  0.9166
 3139TIP3    H230909   2.234  -0.014  12.622  0.6678  0.2724 -1.5854
 3140TIP3   OH230910   0.127   2.764  14.203 -0.0345 -0.6678  0.4803
 3140TIP3    H130911   0.182   2.690  14.177  1.1353  0.8275 -1.4449
 3140TIP3    H230912   0.076   2.785  14.124 -1.0746 -0.0366  1.3053
 3141TIP3   OH230913   4.477   3.898  13.913  0.4149  0.1079  0.1842
 3141TIP3    H130914   4.551   3.937  13.866  0.0213 -0.4638 -0.9503
 3141TIP3    H230915   4.472   3.947  13.995  1.5673  0.6660 -0.0614
 3142TIP3   OH230916   1.308   3.600  17.264  0.2898  0.4853  0.4613
 3142TIP3    H130917   1.356   3.674  17.299  2.7920 -0.0923 -1.6178
 3142TIP3    H230918   1.254   3.636  17.194 -0.0007  0.6447  0.7635
 3143TIP3   OH230919   2.526   1.641  16.620 -0.1970  0.2579  0.2235
 3143TIP3    H130920   2.614   1.670  16.647 -0.6929  1.6275  0.4329
 3143TIP3    H230921   2.513   1.558  16.665  0.6686  0.4678  0.8810
 3144TIP3   OH230922   4.861   2.243  15.185  0.4398  0.5660  0.1291
 3144TIP3    H130923   4.952   2.220  15.168  0.4341  0.0952  0.7054
 3144TIP3    H230924   4.811   2.177  15.137  0.4187 -0.3390  1.3863
 3145TIP3   OH230925   5.590   3.075   1.825 -0.3448 -0.5305  0.3323
 3145TIP3    H130926   5.589   3.034   1.738 -1.8991  1.2978 -0.5462
 3145TIP3    H230927   5.669   3.128   1.825  0.0231 -1.0741  0.2976
 3146TIP3   OH230928   6.369   4.873   3.663  0.0754  0.1868  0.2719
 3146TIP3    H130929   6.367   4.794   3.717  0.7076 -0.6274 -0.8706
 3146TIP3    H230930   6.461   4.900   3.663 -0.0442  0.5976  0.1778
 3147TIP3   OH230931   2.781   1.697  15.346  0.2552  0.1437  0.2344
 3147TIP3    H130932   2.857   1.755  15.354 -0.2871  0.8400  0.3335
 3147TIP3    H230933   2.736   1.729  15.267  0.4708 -0.7426 -0.2542
 3148TIP3   OH230934   4.503   5.998   5.510  0.3637 -0.2908 -0.3074
 3148TIP3    H130935   4.551   6.055   5.570 -1.8004  0.9952  0.2827
 3148TIP3    H230936   4.554   5.998   5.429  1.8462  0.2122  0.6184
 3149TIP3   OH230937   4.464   5.200   6.519 -0.3872  0.7245  0.0211
 3149TIP3    H130938   4.514   5.143   6.461 -0.5003  0.9314 -0.2828
 3149TIP3    H230939   4.479   5.289   6.485  0.7913  1.0085  1.2407
 3150TIP3   OH230940   4.735   5.562  15.112 -0.1755  0.2664  0.0443
 3150TIP3    H130941   4.811   5.608  15.075 -1.1796  1.8994 -0.0315
 3150TIP3    H230942   4.688   5.630  15.160 -1.1833 -0.9134  0.7275
 3151TIP3   OH230943   6.208   6.124   1.678  0.2568  0.2166  0.4562
 3151TIP3    H130944   6.193   6.098   1.587 -0.0041  1.2476  0.2078
 3151TIP3    H230945   6.266   6.055   1.712 -0.0338 -0.4423 -0.3395
 3152TIP3   OH230946   4.930   2.652  15.044  0.2528  1.1718  0.4269
 3152TIP3    H130947   4.987   2.690  15.110  0.1206  1.3065  0.4644
 3152TIP3    H230948   4.879   2.586  15.091  0.2172  1.2101  0.4425
 3153TIP3   OH230949   1.680   5.457   5.404 -0.4135  0.7286 -0.3011
 3153TIP3    H130950   1.775   5.466   5.396 -0.6027  1.7980 -1.5250
 3153TIP3    H230951   1.664   5.459   5.498  0.7542  0.7826 -0.0941
 3154TIP3   OH230952   0.322   3.349   5.603 -0.0969  0.4137 -0.2553
 3154TIP3    H130953   0.392   3.349   5.538  0.3283  1.6593  0.1772
 3154TIP3    H230954   0.349   3.283   5.668  1.1427  1.5191  0.3819
 3155TIP3   OH230955   1.371   3.611   2.333  0.0626 -0.3331  0.0955
 3155TIP3    H130956   1.300   3.618   2.397  0.2280 -2.4082  0.5249
 3155TIP3    H230957   1.327   3.622   2.248 -1.0467 -3.0529  0.2649
 3156TIP3   OH230958   2.867   4.194  10.402 -0.2517 -0.1669 -0.1180
 3156TIP3    H130959   2.858   4.289  10.400  2.0511  0.0620 -0.7773
 3156TIP3    H230960   2.895   4.170  10.314  0.1295 -1.3440  0.3056
 3157TIP3   OH230961   2.934   5.271  15.610  0.1860 -0.3455  0.3150
 3157TIP3    H130962   2.990   5.294  15.684  1.2079 -0.0984 -0.5139
 3157TIP3    H230963   2.991   5.220  15.552 -0.6214 -0.6087 -0.2593
 3158TIP3   OH230964   4.462   5.997  12.864 -0.3340 -0.0118 -0.6762
 3158TIP3    H130965   4.511   6.013  12.784  2.1018 -1.0361  0.5656
 3158TIP3    H230966   4.529   5.989  12.932 -2.2734 -0.6331  1.2130
 3159TIP3   OH230967   4.612   3.238   1.982 -0.1402  0.0405 -0.6342
 3159TIP3    H130968   4.631   3.191   1.901 -0.0786  0.3846 -0.8167
 3159TIP3    H230969   4.696   3.273   2.010  0.0189 -0.8991  0.0945
 3160TIP3   OH230970   5.228   3.992   0.135 -0.5659  0.0176 -0.0543
 3160TIP3    H130971   5.293   3.928   0.165 -1.4949 -2.0629 -2.3033
 3160TIP3    H230972   5.163   3.994   0.205  2.1107  2.5701  2.5100
 3161TIP3   OH230973   4.269   5.100  14.379  0.0912  0.0407  0.3527
 3161TIP3    H130974   4.181   5.083  14.413  0.1291 -0.8968  0.0028
 3161TIP3    H230975   4.316   5.139  14.453 -0.6306  0.6037  0.5240
 3162TIP3   OH230976   5.876   1.302  16.475 -0.0982  0.4704  0.1402
 3162TIP3    H130977   5.841   1.216  16.500  0.5732  0.7722  2.2673
 3162TIP3    H230978   5.954   1.282  16.424 -0.8000 -0.1893 -0.6931
 3163TIP3   OH230979   0.939   5.718  17.145  0.1457  0.2732 -0.1640
 3163TIP3    H130980   0.956   5.706  17.238 -0.7856  1.8196  0.2350
 3163TIP3    H230981   0.857   5.671  17.129 -0.5457  1.3468  0.1651
 3164TIP3   OH230982   1.028   3.866   0.596  0.2758 -0.2389  0.5775
 3164TIP3    H130983   1.103   3.907   0.552  0.8456  0.0389  1.7683
 3164TIP3    H230984   1.053   3.865   0.689 -0.0284 -2.6033  0.6846
 3165TIP3   OH230985   3.460   3.530  17.013  0.2939  0.7408  0.3250
 3165TIP3    H130986   3.391   3.589  17.046  0.3454  1.2943 -0.5369
 3165TIP3    H230987   3.479   3.563  16.925  0.1602 -0.7253 -0.2643
 3166TIP3   OH230988   5.303   2.720  12.718 -0.1632 -0.4330  0.1716
 3166TIP3    H130989   5.343   2.633  12.722 -0.2894 -0.5082 -0.1282
 3166TIP3    H230990   5.273   2.727  12.627 -1.9324 -0.8737  0.6982
 3167TIP3   OH230991   4.909   5.367  16.300  0.4280 -0.1231  0.6135
 3167TIP3    H130992   4.940   5.293  16.248  3.1003  1.4741 -0.2025
 3167TIP3    H230993   4.923   5.341  16.390  0.7762 -0.8443  0.3530
 3168TIP3   OH230994   6.611   0.210   5.532  0.5488  0.3312  0.3657
 3168TIP3    H130995   6.665   0.146   5.485 -0.5929  0.2182 -0.7968
 3168TIP3    H230996   6.523   0.173   5.531 -0.1592  1.9957 -0.4761
 3169TIP3   OH230997   6.160   1.229  14.472  0.6864 -0.3097  0.5185
 3169TIP3    H130998   6.143   1.156  14.532  0.9657  0.0819  1.0814
 3169TIP3    H230999   6.201   1.295  14.527 -3.1949  1.8946  0.9174
 3170TIP3   OH231000   1.600   4.994  12.774  0.4308 -0.6392 -0.4525
 3170TIP3    H131001   1.633   5.074  12.814  0.4594 -0.5170 -0.7184
 3170TIP3    H231002   1.633   4.996  12.684 -2.5606  0.8737 -1.5926
 3171TIP3   OH231003   2.361   6.806  13.545 -0.2338 -0.7958  0.1000
 3171TIP3    H131004   2.327   6.808  13.456 -0.8333 -0.8059  0.3297
 3171TIP3    H231005   2.286   6.781  13.599 -0.2264  0.6027  0.7723
 3172TIP3   OH231006   5.693   4.556   4.814  0.0556  0.3641  0.1564
 3172TIP3    H131007   5.680   4.622   4.882  0.4831  0.6148 -0.0061
 3172TIP3    H231008   5.645   4.590   4.738 -1.2259 -0.3733  0.6157
 3173TIP3   OH231009   6.801   0.412  16.226  0.0828 -0.1132  0.2525
 3173TIP3    H131010   6.759   0.356  16.160 -0.0137  1.0821 -0.7105
 3173TIP3    H231011   6.731   0.469  16.257  0.2730 -0.2545  0.9574
 3174TIP3   OH231012   6.524   5.249   4.008  0.3450  0.1424 -0.3638
 3174TIP3    H131013   6.443   5.216   3.970  0.5026  1.1964 -1.6304
 3174TIP3    H231014   6.567   5.171   4.044 -1.4553 -0.3508  0.7959
 3175TIP3   OH231015   4.211   2.064  15.955  0.6336  0.5854  0.6013
 3175TIP3    H131016   4.219   1.972  15.929 -0.3453  0.6984 -0.1591
 3175TIP3    H231017   4.191   2.062  16.048  0.9878  0.0357  0.6639
 3176TIP3   OH231018   1.216   6.417   4.791  0.5879  0.0733  0.3447
 3176TIP3    H131019   1.200   6.399   4.884 -0.5256  1.6657  0.4936
 3176TIP3    H231020   1.208   6.513   4.784 -0.2535 -0.1220 -1.5583
 3177TIP3   OH231021   1.299   2.455   5.170 -0.1359  0.5490  0.2945
 3177TIP3    H131022   1.373   2.472   5.228 -1.2449 -0.1598  1.9447
 3177TIP3    H231023   1.322   2.374   5.125 -0.2870 -0.1192  1.4199
 3178TIP3   OH231024   5.087   5.831   5.361 -0.3322  0.3372  0.5496
 3178TIP3    H131025   5.101   5.926   5.371 -0.5129  0.4759 -0.4646
 3178TIP3    H231026   5.070   5.819   5.267  1.3040 -0.9217  0.3834
 3179TIP3   OH231027   4.560   3.529   1.875 -0.5598 -0.3492  0.0185
 3179TIP3    H131028   4.644   3.497   1.907 -1.3163 -0.6227  1.7747
 3179TIP3    H231029   4.531   3.590   1.942 -1.4547  0.2620 -0.9138
 3180TIP3   OH231030   3.988   5.705  14.224  0.0518  0.0964  0.3512
 3180TIP3    H131031   4.008   5.798  14.219  0.4389 -0.0469 -0.9529
 3180TIP3    H231032   4.016   5.679  14.312 -1.5819  1.5517  1.3437
 3181TIP3   OH231033   1.064   0.071   6.184  0.4984  0.2949  0.1434
 3181TIP3    H131034   0.999   0.059   6.254 -0.4773  0.4068 -0.7348
 3181TIP3    H231035   1.136   0.117   6.226 -0.8322  1.9603  0.6624
 3182TIP3   OH231036   0.762   3.695   0.945  0.5744  0.7648  0.0549
 3182TIP3    H131037   0.781   3.642   1.023  1.6576 -1.3520 -1.5992
 3182TIP3    H231038   0.844   3.695   0.896  1.2738  5.8096  0.9821
 3183TIP3   OH231039   1.487   1.306   6.108 -0.0878  0.2286 -0.3551
 3183TIP3    H131040   1.461   1.388   6.149 -0.4925 -0.7277  1.3172
 3183TIP3    H231041   1.572   1.325   6.069 -0.3882  1.5649 -0.3856
 3184TIP3   OH231042   5.258   4.196  14.660 -0.0854  0.4089 -0.3108
 3184TIP3    H131043   5.333   4.137  14.665  1.0783  1.7698 -1.1320
 3184TIP3    H231044   5.296   4.280  14.633 -1.9539  1.0285 -1.0803
 3185TIP3   OH231045   5.489   6.010   2.624 -0.1004 -0.1055  0.3722
 3185TIP3    H131046   5.412   6.007   2.682 -1.0872  2.0891 -0.7513
 3185TIP3    H231047   5.545   6.078   2.663  1.0942 -1.3913  0.9399
 3186TIP3   OH231048   2.937   5.588  16.290  0.0146  0.5105 -0.1554
 3186TIP3    H131049   3.028   5.557  16.296 -0.2815 -0.1715  0.9617
 3186TIP3    H231050   2.887   5.510  16.267 -0.4813  0.5526  0.7480
 3187TIP3   OH231051   0.256   3.391  13.401 -0.0322 -0.1306  0.1483
 3187TIP3    H131052   0.267   3.485  13.413  1.3293 -0.0984 -1.2713
 3187TIP3    H231053   0.341   3.359  13.373 -0.8540 -1.5653 -0.8258
 3188TIP3   OH231054   6.062   3.563   0.332 -0.4966  0.1474 -0.0088
 3188TIP3    H131055   5.978   3.571   0.376 -1.0075 -0.8763 -0.7836
 3188TIP3    H231056   6.059   3.477   0.289  0.3260  0.7575 -1.3183
 3189TIP3   OH231057   2.980   3.946   2.175 -0.2680  0.1843  0.4215
 3189TIP3    H131058   2.901   3.902   2.144 -0.3888  1.0386 -0.5396
 3189TIP3    H231059   2.960   4.039   2.167  0.2731  0.4162  1.6601
 3190TIP3   OH231060   2.478   1.263   1.495 -0.1529  0.0941  0.1778
 3190TIP3    H131061   2.485   1.168   1.503  0.8410  0.0725 -0.9224
 3190TIP3    H231062   2.389   1.283   1.527 -0.8111 -1.3254 -0.7333
 3191TIP3   OH231063   0.226   0.114   2.489 -0.0271  0.1869 -0.2149
 3191TIP3    H131064   0.285   0.042   2.512 -0.4858 -0.5303 -1.2502
 3191TIP3    H231065   0.195   0.148   2.573 -0.3479 -1.2675  0.2613
 3192TIP3   OH231066   4.183   6.763   0.157  0.4895 -0.4444  0.0360
 3192TIP3    H131067   4.150   6.674   0.147  2.7794 -1.3447  0.1873
 3192TIP3    H231068   4.176   6.782   0.250  1.1333 -0.9231  0.1812
 3193TIP3   OH231069   6.169   2.508   5.634  0.5190  0.3797 -0.5259
 3193TIP3    H131070   6.194   2.555   5.714 -0.8003 -0.5078  0.4349
 3193TIP3    H231071   6.119   2.571   5.583 -0.9553  0.1747  0.6036
 3194TIP3   OH231072   0.779   6.064  15.674  0.0249  0.0763 -0.5314
 3194TIP3    H131073   0.824   6.041  15.756  0.3407  0.8537 -0.4830
 3194TIP3    H231074   0.718   6.134  15.699 -1.8330 -1.5334 -0.4324
 3195TIP3   OH231075   1.832   3.718   0.350  0.1365  0.4547 -0.1624
 3195TIP3    H131076   1.750   3.673   0.331 -1.1172  2.6245 -0.1176
 3195TIP3    H231077   1.841   3.713   0.445  1.4760 -2.0829 -0.3649
 3196TIP3   OH231078   2.220   1.387   6.805 -0.8752  0.2337  0.6790
 3196TIP3    H131079   2.182   1.474   6.791 -0.5095  0.4150  0.8177
 3196TIP3    H231080   2.145   1.328   6.805 -1.1629  0.6003  0.9890
 3197TIP3   OH231081   1.972   4.618   3.243 -0.4396 -0.3744 -0.0048
 3197TIP3    H131082   2.035   4.689   3.258  0.9832 -2.2062  3.3774
 3197TIP3    H231083   1.925   4.611   3.326 -2.7032 -1.3371 -1.3497
 3198TIP3   OH231084   0.740   2.569  14.792 -0.2547  0.0135 -0.1399
 3198TIP3    H131085   0.780   2.550  14.876  0.1292 -1.0574 -0.5567
 3198TIP3    H231086   0.813   2.596  14.736 -0.5324  0.8916 -0.0826
 3199TIP3   OH231087   4.408   4.928  11.857  0.4221  0.4290  0.3016
 3199TIP3    H131088   4.475   4.957  11.795 -0.0988 -0.6116 -0.7685
 3199TIP3    H231089   4.434   4.839  11.880 -0.0856  0.3565  0.5924
 3200TIP3   OH231090   5.416   6.807  17.004  0.3604  0.1423 -0.0488
 3200TIP3    H131091   5.440   6.806  17.096  0.6156  0.6858 -0.1069
 3200TIP3    H231092   5.328   6.844  17.002 -0.2468 -1.2730  0.1133
 3201TIP3   OH231093   0.867   4.653   3.600  0.4557 -0.7005  0.1815
 3201TIP3    H131094   0.858   4.651   3.505 -1.2875 -1.0646  0.3303
 3201TIP3    H231095   0.923   4.578   3.620  0.1653 -1.1010 -0.4894
 3202TIP3   OH231096   1.338   0.843  12.139  0.6374  0.2868 -0.2141
 3202TIP3    H131097   1.242   0.838  12.138  0.6497  0.2453 -1.3342
 3202TIP3    H231098   1.357   0.935  12.155  0.4058  0.3876 -0.5074
 3203TIP3   OH231099   5.075   5.788   4.248 -0.0162 -0.0084 -0.5801
 3203TIP3    H131100   5.079   5.787   4.153 -1.2481 -4.2884 -0.6709
 3203TIP3    H231101   4.994   5.835   4.268  0.6559  1.6339 -1.5339
 3204TIP3   OH231102   3.255   1.649  11.947  0.6377  0.3491 -0.4469
 3204TIP3    H131103   3.350   1.651  11.934  0.6945 -0.9426 -0.2838
 3204TIP3    H231104   3.234   1.735  11.984  2.0139 -0.0901  1.4196
 3205TIP3   OH231105   2.424   3.049  10.414  0.0640  0.4227 -0.4578
 3205TIP3    H131106   2.380   3.125  10.377  0.6220  1.9203  1.8653
 3205TIP3    H231107   2.502   3.037  10.359 -1.5957 -0.4203 -2.7276
 3206TIP3   OH231108   0.310   6.406  14.128 -0.0881 -0.3404  0.0440
 3206TIP3    H131109   0.373   6.348  14.170 -2.0656 -3.0089 -0.5765
 3206TIP3    H231110   0.364   6.468  14.078  2.0495 -3.6175 -1.9116
 3207TIP3   OH231111   2.210   5.088   1.343  0.1663  0.2099 -0.5769
 3207TIP3    H131112   2.291   5.126   1.376 -0.4823  1.5825 -0.5164
 3207TIP3    H231113   2.233   4.999   1.318  1.8890  0.8665 -1.3937
 3208TIP3   OH231114   2.134   4.494   0.250 -0.1830  0.5065  0.3469
 3208TIP3    H131115   2.106   4.420   0.195 -0.1890 -0.6541  1.8763
 3208TIP3    H231116   2.052   4.540   0.271 -0.3970 -0.1286  0.9132
 3209TIP3   OH231117   5.459   5.036   4.361 -0.1157  0.5694 -0.0845
 3209TIP3    H131118   5.397   5.091   4.409 -0.9157 -2.3107  2.3058
 3209TIP3    H231119   5.407   4.997   4.291 -0.4145  0.0987  0.3961
 3210TIP3   OH231120   5.317   1.774  13.540 -0.4264 -0.1355 -0.1433
 3210TIP3    H131121   5.390   1.824  13.504 -1.4846  1.5079 -0.0291
 3210TIP3    H231122   5.289   1.717  13.469 -0.0173  0.3249 -0.6740
 3211TIP3   OH231123   0.184   4.607  11.613 -0.4719  0.1892  0.1661
 3211TIP3    H131124   0.209   4.696  11.635  0.2708  0.3963 -1.4445
 3211TIP3    H231125   0.212   4.555  11.689  1.8833  0.8904 -0.1710
 3212TIP3   OH231126   1.606   1.593  13.113  0.0999  0.4248 -0.2994
 3212TIP3    H131127   1.536   1.624  13.055 -0.5593  0.1247  0.3245
 3212TIP3    H231128   1.592   1.641  13.195  0.6251  0.3590 -0.1734
 3213TIP3   OH231129   1.467   2.824  15.685 -0.2508 -0.4213  0.1208
 3213TIP3    H131130   1.552   2.784  15.668 -0.4579  0.1820 -2.6256
 3213TIP3    H231131   1.408   2.750  15.699  0.4450 -0.8822  0.6442
 3214TIP3   OH231132   3.789   5.648  13.721  0.6087 -0.3156  0.0497
 3214TIP3    H131133   3.814   5.643  13.814 -1.1088 -0.8404  0.5074
 3214TIP3    H231134   3.781   5.742  13.704 -0.9580 -0.2540  0.9827
 3215TIP3   OH231135   6.309   3.233  16.009  0.1697  0.1373  0.9134
 3215TIP3    H131136   6.276   3.318  16.036 -3.9457 -1.1474  0.2666
 3215TIP3    H231137   6.348   3.248  15.923 -0.7245  1.3456  0.7077
 3216TIP3   OH231138   3.586   1.184  16.464 -0.6517 -0.1700  0.4904
 3216TIP3    H131139   3.550   1.186  16.553 -0.4002  2.1761  0.5785
 3216TIP3    H231140   3.527   1.239  16.413 -1.8725 -2.9855 -1.2661
 3217TIP3   OH231141   1.365   0.719   5.169 -0.4196 -0.0956  0.6056
 3217TIP3    H131142   1.374   0.767   5.251 -0.1902  2.6964 -1.0152
 3217TIP3    H231143   1.444   0.739   5.120 -1.1062 -0.7507 -0.8055
 3218TIP3   OH231144   6.788   3.610   1.025 -0.1601 -0.0247 -0.5568
 3218TIP3    H131145   6.865   3.658   0.993 -0.7178 -0.2910 -2.3691
 3218TIP3    H231146   6.824   3.530   1.064  0.4550 -0.3898 -1.8545
 3219TIP3   OH231147   3.868   0.563  14.768  0.5128 -0.2469 -0.1101
 3219TIP3    H131148   3.799   0.516  14.815 -0.2782  1.3613  0.3776
 3219TIP3    H231149   3.949   0.519  14.794 -0.3205 -2.2682 -0.8178
 3220TIP3   OH231150   1.155   3.721  11.210 -0.5878  0.5336 -0.1797
 3220TIP3    H131151   1.140   3.681  11.125 -2.3051 -0.3127  0.4943
 3220TIP3    H231152   1.182   3.811  11.191 -2.7233  0.8958 -1.5767
 3221TIP3   OH231153   3.812   4.294  12.227 -0.2337  1.0389 -0.3729
 3221TIP3    H131154   3.817   4.386  12.252 -1.0817  0.8782  0.4327
 3221TIP3    H231155   3.887   4.253  12.270  0.2867  1.3934 -0.9349
 3222TIP3   OH231156   5.072   5.557  13.020  0.3638  0.0623  0.0599
 3222TIP3    H131157   5.100   5.468  13.039 -0.3889  0.3241  2.6432
 3222TIP3    H231158   5.011   5.549  12.947  1.1646 -1.3891 -0.4668
 3223TIP3   OH231159   2.068   3.743  14.653  0.0995  0.2939  0.1901
 3223TIP3    H131160   2.133   3.761  14.720  0.6783  0.7024 -0.4784
 3223TIP3    H231161   2.108   3.771  14.571 -0.3029 -0.8955 -0.4387
 3224TIP3   OH231162   0.042   4.982  16.194 -0.3499  0.3626  0.2468
 3224TIP3    H131163   0.108   4.997  16.127 -0.9629 -1.6941 -0.8936
 3224TIP3    H231164   0.078   5.022  16.273  2.0945 -0.3886 -0.4305
 3225TIP3   OH231165   1.728   3.083   1.234  0.2342  0.0644  0.2184
 3225TIP3    H131166   1.640   3.102   1.264 -0.0393  0.0452 -0.5781
 3225TIP3    H231167   1.744   3.145   1.163  0.6278 -0.3478 -0.0569
 3226TIP3   OH231168   6.243   6.062  14.689  0.0596  0.2280 -0.8635
 3226TIP3    H131169   6.316   6.009  14.657 -0.6766 -1.2024 -0.2218
 3226TIP3    H231170   6.235   6.039  14.781 -0.3691  1.3423 -0.6184
 3227TIP3   OH231171   1.025   6.675   3.314 -0.4027  0.2893  0.2866
 3227TIP3    H131172   1.000   6.642   3.400  1.0845  0.2554  0.7055
 3227TIP3    H231173   1.099   6.621   3.288  0.1491  1.3321 -0.3344
 3228TIP3   OH231174   3.693   3.191  15.819  0.1434 -0.3339  0.3277
 3228TIP3    H131175   3.717   3.185  15.911  1.8399 -1.2437 -0.1456
 3228TIP3    H231176   3.706   3.102  15.785  0.3225  0.1757 -0.9643
 3229TIP3   OH231177   6.157   6.086  13.744  0.5233  0.2254 -0.6225
 3229TIP3    H131178   6.154   6.181  13.731  2.2359  0.5403  1.0604
 3229TIP3    H231179   6.251   6.065  13.747  0.1608 -1.3589  0.0647
 3230TIP3   OH231180   3.482   3.896  11.651 -0.2178 -0.3289  0.0369
 3230TIP3    H131181   3.525   3.897  11.565 -0.3124  1.6101 -0.0294
 3230TIP3    H231182   3.420   3.970  11.647  0.2477  0.2023  1.9896
 3231TIP3   OH231183   2.085   0.655  15.794 -0.2818  0.1819 -0.0473
 3231TIP3    H131184   2.169   0.635  15.835 -1.3186  0.6405  2.3759
 3231TIP3    H231185   2.030   0.580  15.814 -1.8625  1.9595  2.4812
 3232TIP3   OH231186   3.282   5.334  13.005 -0.1838  0.2474 -0.2689
 3232TIP3    H131187   3.366   5.287  13.007 -0.5262 -0.4230 -1.2786
 3232TIP3    H231188   3.222   5.278  13.054 -0.3531  0.1093 -0.6335
 3233TIP3   OH231189   4.294   2.835  14.421  0.2810  0.0468 -0.6176
 3233TIP3    H131190   4.346   2.867  14.494 -1.1721  2.5479 -0.6240
 3233TIP3    H231191   4.213   2.803  14.462 -0.1648  0.6317 -1.0291
 3234TIP3   OH231192   1.961   4.675  14.701  0.1057  0.2032  0.9220
 3234TIP3    H131193   1.901   4.624  14.646 -0.7315  2.8013 -0.6356
 3234TIP3    H231194   2.048   4.642  14.678 -0.5176 -1.7666  1.2780
 3235TIP3   OH231195   3.619   4.390  11.644  0.3623 -0.1959 -0.5306
 3235TIP3    H131196   3.524   4.400  11.629  0.1563 -0.3904  0.6044
 3235TIP3    H231197   3.629   4.301  11.677  1.0301 -0.3965 -1.2551
 3236TIP3   OH231198   4.096   5.320  14.748 -0.7006  0.1330  0.0857
 3236TIP3    H131199   4.079   5.301  14.841 -1.3447  0.5888  0.0651
 3236TIP3    H231200   4.187   5.294  14.735 -1.2981 -2.1480  0.2593
 3237TIP3   OH231201   0.639   5.134   1.051 -0.5590 -0.2523  0.2425
 3237TIP3    H131202   0.698   5.100   1.119 -0.3081  0.5530  0.4384
 3237TIP3    H231203   0.560   5.159   1.099  0.6825  3.0541  0.7502
 3238TIP3   OH231204   4.888   3.536  16.206  0.3687  0.1529  0.5785
 3238TIP3    H131205   4.889   3.541  16.302  0.5911 -0.7685  0.6243
 3238TIP3    H231206   4.824   3.469  16.186  1.0538 -0.3671  0.1120
 3239TIP3   OH231207   2.839   4.499  11.700 -0.6491  0.2078  0.4443
 3239TIP3    H131208   2.744   4.501  11.689 -0.6386  1.5686  0.5349
 3239TIP3    H231209   2.852   4.488  11.794 -0.7133  0.1217  0.4435
 3240TIP3   OH231210   0.066   4.588  10.905 -0.3285 -0.0933 -0.4762
 3240TIP3    H131211   0.088   4.542  10.824 -1.7887  0.3448 -1.1474
 3240TIP3    H231212   0.032   4.673  10.876  0.3860  0.5936  0.6573
 3241TIP3   OH231213   2.304   3.631   3.849 -0.3135  0.1916  0.3229
 3241TIP3    H131214   2.302   3.557   3.787 -1.3713  0.4694  0.0227
 3241TIP3    H231215   2.299   3.709   3.794 -2.3090  0.4181  0.8113
 3242TIP3   OH231216   1.854   2.210  13.202 -0.1382 -0.5225  0.5932
 3242TIP3    H131217   1.927   2.252  13.157 -0.0882 -0.8402  0.3809
 3242TIP3    H231218   1.868   2.232  13.295  0.4776 -0.9618  0.6091
 3243TIP3   OH231219   5.246   5.503   4.217 -0.4195 -0.5542  0.1185
 3243TIP3    H131220   5.218   5.582   4.171 -0.0484  0.5847  1.8268
 3243TIP3    H231221   5.166   5.452   4.229 -0.5210 -0.8744 -1.7757
 3244TIP3   OH231222   5.383   0.984  14.048 -0.3261 -0.0404  0.0620
 3244TIP3    H131223   5.433   0.925  13.991 -0.2192  0.6906 -0.6091
 3244TIP3    H231224   5.347   0.927  14.116  0.3586 -0.7714 -0.1822
 3245TIP3   OH231225   1.579   5.405   0.709 -0.5166 -0.2987 -0.1009
 3245TIP3    H131226   1.631   5.334   0.749  0.6851  2.2777  3.1224
 3245TIP3    H231227   1.641   5.452   0.654  0.6740  2.5804  3.4941
 3246TIP3   OH231228   5.188   6.182  11.742  0.2583  0.2580  0.0806
 3246TIP3    H131229   5.177   6.276  11.734 -0.6292  0.2057  0.6679
 3246TIP3    H231230   5.150   6.160  11.827  0.5525 -0.6124 -0.0094
 3247TIP3   OH231231   3.489   2.446  13.706 -0.3997 -0.1236  0.3506
 3247TIP3    H131232   3.562   2.386  13.725 -0.5820 -0.4432  0.0360
 3247TIP3    H231233   3.532   2.526  13.676 -0.1672 -0.2490  0.3434
 3248TIP3   OH231234   4.055   6.153  11.651  0.4357 -0.7471  0.2256
 3248TIP3    H131235   4.004   6.119  11.724  0.3234  1.2413  1.1105
 3248TIP3    H231236   4.017   6.239  11.633  1.6498 -0.4343 -0.9440
 3249TIP3   OH231237   1.280   5.923   2.466  0.1712 -0.5195  0.5823
 3249TIP3    H131238   1.276   5.838   2.422  2.1190 -0.4867  0.2955
 3249TIP3    H231239   1.255   5.904   2.556 -0.4866 -1.2000  0.2624
 3250TIP3   OH231240   3.264   1.753  10.613  0.1745  0.3329 -0.0324
 3250TIP3    H131241   3.353   1.772  10.643  0.0771 -1.9455  1.8523
 3250TIP3    H231242   3.216   1.835  10.624  1.7476  1.2522  0.0616
 3251TIP3   OH231243   4.922   1.154  13.174 -0.0630 -0.3565 -0.1164
 3251TIP3    H131244   4.878   1.092  13.116 -0.1929  0.6992 -1.1514
 3251TIP3    H231245   4.852   1.210  13.207  0.0904 -0.5868  0.6134
 3252TIP3   OH231246   2.625   4.786  12.360 -0.1368 -0.0024 -0.5484
 3252TIP3    H131247   2.715   4.768  12.334 -0.4538 -1.1933 -0.8728
 3252TIP3    H231248   2.605   4.720  12.426 -0.4305  0.9347  0.3150
 3253TIP3   OH231249   3.404   2.462   4.662  0.2417 -0.1252 -0.0444
 3253TIP3    H131250   3.322   2.413   4.668  0.7794 -1.1700 -1.1132
 3253TIP3    H231251   3.409   2.489   4.570  0.3515  1.2557  0.3517
 3254TIP3   OH231252   4.905   1.328  15.298  0.4033  0.3628 -0.3486
 3254TIP3    H131253   4.897   1.368  15.211 -0.2809  0.4456 -0.2522
 3254TIP3    H231254   4.860   1.390  15.357 -0.6958 -0.5525 -0.2034
 3255TIP3   OH231255   1.112   2.474  11.988  0.5395  0.2600  0.0168
 3255TIP3    H131256   1.199   2.470  12.028  0.5220 -1.8940 -0.1063
 3255TIP3    H231257   1.064   2.401  12.027 -0.9739  0.9534 -0.5078
 3256TIP3   OH231258   3.450   1.287   0.122 -0.1024 -0.3938 -0.1717
 3256TIP3    H131259   3.517   1.219   0.126 -0.2862 -0.5966 -0.6267
 3256TIP3    H231260   3.367   1.239   0.125 -0.2330 -0.1486  0.2728
 3257TIP3   OH231261   0.121   5.472  17.208 -0.7235  0.5812  0.2324
 3257TIP3    H131262   0.072   5.538  17.159 -1.1336  0.9128  1.0899
 3257TIP3    H231263   0.197   5.453  17.153 -0.6134  1.7513 -0.0222
 3258TIP3   OH231264   5.879   2.976   2.018  0.3943  0.4457 -0.7668
 3258TIP3    H131265   5.868   2.890   1.978  0.5712 -0.1037  0.3585
 3258TIP3    H231266   5.798   2.991   2.067  1.2381 -0.0497  0.8329
 3259TIP3   OH231267   1.454   6.240   0.802 -0.4313 -0.3123 -0.1036
 3259TIP3    H131268   1.402   6.160   0.798 -1.2732  0.0297  2.7550
 3259TIP3    H231269   1.390   6.310   0.811  0.4125  0.2348  2.0780
 3260TIP3   OH231270   2.574   2.299   1.366  0.6937  0.1735 -0.3920
 3260TIP3    H131271   2.538   2.323   1.280  1.2556 -0.0085 -0.6838
 3260TIP3    H231272   2.499   2.269   1.416  0.7819 -2.6845 -1.8477
 3261TIP3   OH231273   1.119   2.867   0.828  0.2402  0.6647 -0.1535
 3261TIP3    H131274   1.178   2.941   0.841  0.3798  0.7283 -1.1542
 3261TIP3    H231275   1.053   2.899   0.767 -1.4180  0.9187  1.7141
 3262TIP3   OH231276   5.998   0.816  15.280 -0.2741  0.7089  0.1661
 3262TIP3    H131277   5.989   0.721  15.282  1.1049  0.5743  1.3640
 3262TIP3    H231278   6.088   0.832  15.309  0.2957  2.2744 -2.3695
 3263TIP3   OH231279   6.746   2.083   3.735  0.4132  0.1716  0.6521
 3263TIP3    H131280   6.677   2.048   3.791 -1.3547  0.2067 -1.4455
 3263TIP3    H231281   6.726   2.049   3.648  2.7229  0.6565 -0.0948
 3264TIP3   OH231282   6.230   4.911  13.320 -0.3770 -1.0318  0.1676
 3264TIP3    H131283   6.291   4.944  13.385 -0.6681  1.8012 -0.9584
 3264TIP3    H231284   6.281   4.904  13.239 -1.2039  0.1162 -0.4653
 3265TIP3   OH231285   1.274   6.693  16.682  0.3853  0.2980  0.2170
 3265TIP3    H131286   1.299   6.608  16.717  0.1828 -0.0898 -0.5748
 3265TIP3    H231287   1.307   6.693  16.592 -0.2784  0.7578 -0.0300
 3266TIP3   OH231288   2.512   3.537  16.999 -0.1006 -0.5987  0.8158
 3266TIP3    H131289   2.530   3.462  17.056  0.1616  0.8026  2.6600
 3266TIP3    H231290   2.585   3.539  16.938  0.5891 -1.0773  1.6033
 3267TIP3   OH231291   1.358   4.216  14.845 -0.1883 -0.5086  0.5315
 3267TIP3    H131292   1.276   4.174  14.818 -0.2174 -0.0773 -0.0354
 3267TIP3    H231293   1.413   4.216  14.767  0.6132 -1.3982  1.0684
 3268TIP3   OH231294   1.964   6.747   6.710  0.1739  0.4210 -0.3818
 3268TIP3    H131295   1.981   6.662   6.669 -1.0272 -2.0586  3.9208
 3268TIP3    H231296   2.051   6.785   6.722  0.8893 -1.1279 -0.5389
 3269TIP3   OH231297   3.961   2.220  15.255 -0.1649 -0.3950  0.1266
 3269TIP3    H131298   3.933   2.310  15.271 -0.3430 -0.5391  0.6473
 3269TIP3    H231299   4.015   2.198  15.331 -1.5971 -1.3334  0.8986
 3270TIP3   OH231300   0.844   0.865  12.578  0.0491 -0.3717  0.3396
 3270TIP3    H131301   0.759   0.825  12.560 -0.1981  0.0356  0.5979
 3270TIP3    H231302   0.898   0.793  12.610 -0.9666 -0.1235  2.6969
 3271TIP3   OH231303   2.731   2.528   3.333 -0.2308  0.3042  0.2879
 3271TIP3    H131304   2.679   2.448   3.334 -0.2738  0.3218 -0.4851
 3271TIP3    H231305   2.755   2.543   3.425  3.4347 -2.9564 -0.0087
 3272TIP3   OH231306   3.902   3.702  12.241  0.0585 -0.1296 -0.1984
 3272TIP3    H131307   3.921   3.790  12.208 -1.0409 -0.8283 -2.8247
 3272TIP3    H231308   3.986   3.656  12.236  0.7221  0.8188  1.5261
 3273TIP3   OH231309   6.748   4.194  14.917  0.1668  0.2760 -0.3376
 3273TIP3    H131310   6.680   4.180  14.984 -0.6916 -1.4918 -1.5432
 3273TIP3    H231311   6.723   4.276  14.875 -1.1981 -0.2999 -0.7024
 3274TIP3   OH231312   6.537   6.633  15.803  0.1478  0.7141 -0.1786
 3274TIP3    H131313   6.459   6.685  15.784 -0.5415 -0.3529 -0.3612
 3274TIP3    H231314   6.514   6.545  15.773  0.6895 -0.0437  1.5790
 3275TIP3   OH231315   0.854   3.196  16.103 -0.8340 -0.2466  0.3558
 3275TIP3    H131316   0.882   3.105  16.117  0.4029 -0.1670 -1.4652
 3275TIP3    H231317   0.883   3.217  16.015 -0.7273  2.0695  0.9080
 3276TIP3   OH231318   4.676   6.418  12.951 -0.5782 -0.1583 -0.3201
 3276TIP3    H131319   4.728   6.358  13.004 -1.6865 -0.9277 -0.0933
 3276TIP3    H231320   4.627   6.470  13.014 -0.6933  0.0155 -0.5510
 3277TIP3   OH231321   1.062   4.165   5.653 -0.0123 -0.4903 -0.0255
 3277TIP3    H131322   1.139   4.127   5.696  2.1120  1.3735 -2.0301
 3277TIP3    H231323   1.041   4.105   5.582  0.2594 -0.4659 -0.1277
 3278TIP3   OH231324   2.871   1.143   6.712 -0.1292  0.4206 -0.3274
 3278TIP3    H131325   2.954   1.114   6.750  0.8526  0.9699 -1.9859
 3278TIP3    H231326   2.845   1.217   6.766  1.1010  1.0119 -0.5242
 3279TIP3   OH231327   0.484   6.065  11.890 -0.3446 -0.1952 -0.5912
 3279TIP3    H131328   0.434   6.033  11.965 -2.0054  0.2134 -1.4904
 3279TIP3    H231329   0.510   5.985  11.843  3.1283 -0.6170  1.8605
 3280TIP3   OH231330   1.356   4.195   1.829  0.5093  0.2331 -0.5559
 3280TIP3    H131331   1.279   4.223   1.879  0.3490 -0.2750 -0.5156
 3280TIP3    H231332   1.409   4.274   1.821  1.5079 -0.1154  2.1497
 3281TIP3   OH231333   1.727   3.530   1.095  0.3218 -0.2658 -0.0247
 3281TIP3    H131334   1.715   3.534   1.190  2.3756 -2.3077  0.3771
 3281TIP3    H231335   1.810   3.576   1.080  0.2020 -0.2943 -0.7866
 3282TIP3   OH231336   3.294   1.528   4.277  0.6113 -0.2517  0.0400
 3282TIP3    H131337   3.247   1.474   4.213 -0.4297  0.0124  0.5671
 3282TIP3    H231338   3.239   1.525   4.356  0.0172  2.3255 -0.2291
 3283TIP3   OH231339   5.221   1.790   3.595 -0.1303  0.4981  0.0085
 3283TIP3    H131340   5.280   1.865   3.598 -1.7384  1.7879  0.2036
 3283TIP3    H231341   5.174   1.800   3.513  1.3267 -1.6454 -1.1317
 3284TIP3   OH231342   3.808   2.811  13.118  0.2672  0.1581 -0.4380
 3284TIP3    H131343   3.792   2.902  13.094  0.5016  0.9004  2.0426
 3284TIP3    H231344   3.802   2.810  13.214  0.6674 -2.3567 -0.4004
 3285TIP3   OH231345   6.478   0.253  12.435 -0.5192 -0.1727 -0.3743
 3285TIP3    H131346   6.422   0.253  12.357  0.0489  0.3790 -0.7903
 3285TIP3    H231347   6.511   0.164  12.441 -1.7309 -0.5948  0.0841
 3286TIP3   OH231348   6.653   3.832   0.087  0.2181  0.2795  0.4624
 3286TIP3    H131349   6.657   3.811   0.180 -0.6150 -0.1080  0.4201
 3286TIP3    H231350   6.572   3.882   0.078  0.3680  0.4334 -0.0300
 3287TIP3   OH231351   5.257   0.176  11.412  0.1347  0.1047  0.0745
 3287TIP3    H131352   5.270   0.227  11.492  0.5692  1.0721 -0.6021
 3287TIP3    H231353   5.242   0.087  11.442  0.5462  0.4218  1.2260
 3288TIP3   OH231354   6.070   5.153  14.665 -0.0209 -0.1692  0.0409
 3288TIP3    H131355   6.000   5.213  14.691  0.4557  0.3059  0.2601
 3288TIP3    H231356   6.112   5.197  14.591  1.2108  0.4427  1.0763
 3289TIP3   OH231357   1.521   1.373  13.824  0.3915  0.3035  1.0298
 3289TIP3    H131358   1.458   1.315  13.866 -0.1977 -1.2380 -1.8084
 3289TIP3    H231359   1.506   1.459  13.863 -2.2423 -0.4119  1.6465
 3290TIP3   OH231360   2.627   6.485   3.531 -0.4707 -0.2984 -0.6723
 3290TIP3    H131361   2.571   6.409   3.549 -0.2013 -0.9975 -2.6264
 3290TIP3    H231362   2.707   6.468   3.581 -1.3172 -0.1433  0.7592
 3291TIP3   OH231363   3.135   4.311   5.381  0.8534  0.0271  0.4462
 3291TIP3    H131364   3.204   4.364   5.341  0.5007  0.2316  0.0988
 3291TIP3    H231365   3.092   4.370   5.443 -0.0118  0.3784 -0.4704
 3292TIP3   OH231366   2.191   6.023   3.124  0.3265 -0.4530  0.4333
 3292TIP3    H131367   2.239   6.030   3.207  1.2837  0.2176 -0.1632
 3292TIP3    H231368   2.167   6.113   3.102 -0.7659 -0.7374  0.4727
 3293TIP3   OH231369   0.979   5.828   1.419 -0.6744 -0.1900 -0.0155
 3293TIP3    H131370   1.052   5.769   1.401 -1.1035 -0.7165 -0.0316
 3293TIP3    H231371   0.977   5.888   1.345  1.1720  1.2687  1.0712
 3294TIP3   OH231372   3.300   6.656  11.903  0.6466 -0.3446  0.0417
 3294TIP3    H131373   3.312   6.622  11.992  4.0533 -2.3662 -1.1144
 3294TIP3    H231374   3.308   6.751  11.913  0.0091 -0.4673  2.0198
 3295TIP3   OH231375   5.571   1.539   2.975  0.0117  0.7481 -0.2874
 3295TIP3    H131376   5.617   1.623   2.971  1.3674  0.0520  0.2207
 3295TIP3    H231377   5.549   1.528   3.067  2.3436 -0.7456  0.1202
 3296TIP3   OH231378   2.884   0.458  14.853  0.3135  0.2681  0.5838
 3296TIP3    H131379   2.878   0.459  14.757  0.0032 -1.0088  0.5797
 3296TIP3    H231380   2.852   0.371  14.878  0.8193  0.4290  1.8171
 3297TIP3   OH231381   4.767   4.968   0.140 -0.6245 -0.0177 -0.7070
 3297TIP3    H131382   4.726   5.054   0.134 -0.5136  0.1322  0.4786
 3297TIP3    H231383   4.776   4.953   0.234  0.3286 -0.8632 -0.9290
 3298TIP3   OH231384   3.510   1.218  15.328  0.3665 -0.1978 -0.5852
 3298TIP3    H131385   3.467   1.299  15.301  0.8859  0.3208  0.1161
 3298TIP3    H231386   3.556   1.188  15.250 -1.6767 -1.0322 -1.4778
 3299TIP3   OH231387   3.743   1.329  14.310  0.0480  0.3674 -0.1622
 3299TIP3    H131388   3.680   1.258  14.324  1.5731 -1.2816 -1.3587
 3299TIP3    H231389   3.705   1.382  14.240  0.6725 -1.5131 -1.9735
 3300TIP3   OH231390   0.185   0.685   4.251 -0.3574  0.7758 -0.4137
 3300TIP3    H131391   0.280   0.680   4.245 -0.3353  1.1587 -0.3863
 3300TIP3    H231392   0.160   0.606   4.298  0.0713  1.3923  0.8812
 3301TIP3   OH231393   4.460   3.187   2.680  0.2045 -0.8424  0.2447
 3301TIP3    H131394   4.437   3.100   2.647  0.8918 -1.3050  0.9636
 3301TIP3    H231395   4.492   3.234   2.603 -1.3107 -0.8139 -0.3855
 3302TIP3   OH231396   1.367   4.982   5.025  0.5074  1.0872  0.0442
 3302TIP3    H131397   1.415   5.044   5.079  1.0189  0.9044 -0.2047
 3302TIP3    H231398   1.318   5.037   4.963  0.7921  1.2520 -0.0338
 3303TIP3   OH231399   5.749   2.624  11.900  0.0496  0.8426  0.0026
 3303TIP3    H131400   5.742   2.652  11.808 -0.0489  0.6410 -0.0509
 3303TIP3    H231401   5.730   2.703  11.951  1.6309  1.3402 -0.1564
 3304TIP3   OH231402   5.650   5.036   0.975  0.3322  0.2755  0.2179
 3304TIP3    H131403   5.580   5.004   1.031 -0.1011  1.3022  0.2674
 3304TIP3    H231404   5.650   4.976   0.900  1.1724 -1.3484  1.4736
 3305TIP3   OH231405   1.730   4.298  16.152  0.2951  0.8403  0.0397
 3305TIP3    H131406   1.774   4.366  16.203 -2.0802  2.6734 -0.2360
 3305TIP3    H231407   1.671   4.255  16.214 -1.5218  2.0926 -0.7697
 3306TIP3   OH231408   0.139   6.416  10.849  0.2726  0.7087 -0.3713
 3306TIP3    H131409   0.097   6.489  10.803 -0.4033  0.6035  0.0813
 3306TIP3    H231410   0.119   6.431  10.941 -0.2093 -0.2656 -0.3144
 3307TIP3   OH231411   3.115   6.046   2.082 -0.8605 -0.1247 -0.0897
 3307TIP3    H131412   3.022   6.061   2.064 -0.3842  0.4377 -2.2101
 3307TIP3    H231413   3.127   6.073   2.173 -2.5082  1.0512 -0.2135
 3308TIP3   OH231414   6.679   0.075   6.368  0.3892  0.0600 -0.1157
 3308TIP3    H131415   6.611   0.008   6.378  0.2844 -0.0451 -1.3943
 3308TIP3    H231416   6.749   0.030   6.320  1.2136  0.2771  0.8590
 3309TIP3   OH231417   3.990   5.367   1.807  0.3251 -0.1354  0.7054
 3309TIP3    H131418   4.011   5.330   1.721  1.2544  1.4768  0.2258
 3309TIP3    H231419   3.965   5.291   1.860 -2.7801 -0.8639 -1.6740
 3310TIP3   OH231420   4.565   0.457  15.189  0.0434  0.0311 -0.6186
 3310TIP3    H131421   4.632   0.393  15.166  0.7210  0.2957  0.5657
 3310TIP3    H231422   4.527   0.483  15.105 -1.6188 -3.3643 -0.9960
 3311TIP3   OH231423   3.846   4.582  12.266  0.3132  0.1049  0.0399
 3311TIP3    H131424   3.910   4.606  12.199 -1.1707  1.6059 -0.8918
 3311TIP3    H231425   3.845   4.657  12.325  0.0821 -0.3051  0.5546
 3312TIP3   OH231426   6.004   6.406  13.933  0.1721 -0.4288  0.8951
 3312TIP3    H131427   5.918   6.366  13.948 -0.7241  1.0708 -0.0937
 3312TIP3    H231428   6.026   6.446  14.018  0.4079 -1.7399  1.4644
 3313TIP3   OH231429   5.928   0.948  10.766 -0.0462 -0.0810 -0.2906
 3313TIP3    H131430   5.871   1.001  10.710 -1.1416 -1.0529 -0.1172
 3313TIP3    H231431   5.911   0.857  10.740 -1.4854 -0.6523  2.3995
 3314TIP3   OH231432   6.814   4.229  12.156  0.1235  0.0041  0.1597
 3314TIP3    H131433   6.736   4.208  12.207  0.4846  0.6295  0.9761
 3314TIP3    H231434   6.856   4.299  12.205 -0.0012  1.2289 -1.4734
 3315TIP3   OH231435   3.152   5.395  15.201  0.5161 -0.5587  0.1075
 3315TIP3    H131436   3.213   5.465  15.178  2.2829 -1.6434  1.3612
 3315TIP3    H231437   3.119   5.364  15.116  0.5705  1.0117 -0.5105
 3316TIP3   OH231438   0.749   2.578  17.089  1.2504  0.1952 -0.7261
 3316TIP3    H131439   0.716   2.640  17.155 -1.0980 -0.2025 -1.4676
 3316TIP3    H231440   0.830   2.544  17.126  0.5502  0.8211  1.4618
 3317TIP3   OH231441   4.087   4.050   2.586 -0.0211  0.0404 -0.2024
 3317TIP3    H131442   4.040   4.043   2.503 -0.1692 -0.7206 -0.0538
 3317TIP3    H231443   4.138   4.131   2.577 -0.2314  0.1005 -0.9341
 3318TIP3   OH231444   6.569   2.727  15.046 -0.0080 -0.1386  0.7987
 3318TIP3    H131445   6.512   2.717  15.122  1.1504  0.5058  1.7725
 3318TIP3    H231446   6.656   2.703  15.078  0.7545  1.5596  0.0706
 3319TIP3   OH231447   3.620   1.527  11.603 -0.2523 -0.0631 -0.1306
 3319TIP3    H131448   3.698   1.561  11.646  0.2850 -0.5028 -0.7442
 3319TIP3    H231449   3.632   1.550  11.511 -0.9418  0.0413 -0.1937
 3320TIP3   OH231450   1.614   4.933   6.122  0.0035  0.6630  0.7356
 3320TIP3    H131451   1.550   4.875   6.165 -0.3599  1.6532  1.5728
 3320TIP3    H231452   1.562   4.984   6.061  0.0833  1.1049  1.0371
 3321TIP3   OH231453   2.563   6.145   3.876 -0.1521  0.3670  0.1328
 3321TIP3    H131454   2.623   6.188   3.938 -2.0580  1.8527  0.9778
 3321TIP3    H231455   2.601   6.058   3.863  1.8072  1.0282  1.1979
 3322TIP3   OH231456   1.651   5.595   2.998 -0.2135  0.8035  0.9239
 3322TIP3    H131457   1.633   5.534   3.070  0.5414 -0.0453  0.4153
 3322TIP3    H231458   1.708   5.545   2.940  0.3887  2.0113  0.4842
 3323TIP3   OH231459   4.769   4.786   4.027  0.1415  0.7749 -0.0822
 3323TIP3    H131460   4.799   4.761   3.940  0.8422 -0.2153  0.4305
 3323TIP3    H231461   4.775   4.705   4.079  0.7866  1.5998  1.1589
 3324TIP3   OH231462   5.907   2.648   4.900 -0.4723 -0.2719  0.0772
 3324TIP3    H131463   5.903   2.560   4.939 -1.9059 -1.1457 -1.9645
 3324TIP3    H231464   5.826   2.691   4.926  0.1323  0.3820  0.8992
 3325TIP3   OH231465   6.249   4.974   0.637 -0.3398 -0.2104  0.0218
 3325TIP3    H131466   6.320   5.037   0.649 -2.1699  1.5130  2.2494
 3325TIP3    H231467   6.292   4.889   0.637  1.9050  0.8832 -0.3675
 3326TIP3   OH231468   2.442   6.085  10.970 -0.1184 -0.3137  0.2735
 3326TIP3    H131469   2.478   6.099  10.882 -1.1144  0.0827 -0.0832
 3326TIP3    H231470   2.407   5.996  10.968  0.7053 -0.6423  0.5687
 3327TIP3   OH231471   3.117   4.238  15.719  0.1586  0.1417 -0.1773
 3327TIP3    H131472   3.090   4.150  15.744  1.6575  0.0430  1.2249
 3327TIP3    H231473   3.204   4.249  15.759  0.2223  2.0570 -0.7623
 3328TIP3   OH231474   0.975   4.928  12.725 -0.1991  0.0361 -0.3132
 3328TIP3    H131475   0.950   4.896  12.638 -0.3044 -0.3824 -0.1292
 3328TIP3    H231476   1.042   4.994  12.708 -1.6163  1.3747 -0.8365
 3329TIP3   OH231477   4.175   4.261  17.131 -0.1547 -0.2189 -0.6399
 3329TIP3    H131478   4.110   4.330  17.117 -3.5310 -2.3720  3.1859
 3329TIP3    H231479   4.131   4.181  17.103  0.2793 -1.8717  3.0748
 3330TIP3   OH231480   3.253   5.999   5.674 -0.4436 -0.5405  0.0774
 3330TIP3    H131481   3.263   5.910   5.709  1.8184 -1.0231 -1.6295
 3330TIP3    H231482   3.183   5.992   5.610 -1.0448 -0.8393  0.7636
 3331TIP3   OH231483   4.136   0.269  11.386 -0.7443 -0.2981  0.1969
 3331TIP3    H131484   4.209   0.246  11.444 -0.5770 -0.8384 -0.2186
 3331TIP3    H231485   4.154   0.359  11.358  0.4758 -0.8815 -0.9547
 3332TIP3   OH231486   5.257   3.021  14.664  0.0942  0.4671  0.5501
 3332TIP3    H131487   5.172   3.004  14.704  0.2021  0.8619  0.9562
 3332TIP3    H231488   5.321   2.997  14.732  0.3739 -1.6398 -0.4187
 3333TIP3   OH231489   0.436   0.564   4.143 -0.2504 -0.5065  0.2504
 3333TIP3    H131490   0.473   0.478   4.123  0.3875  0.0081 -0.8236
 3333TIP3    H231491   0.504   0.626   4.117 -0.9085  0.3538  0.5411
 3334TIP3   OH231492   4.677   5.528  15.383  0.4733  0.4778  0.1380
 3334TIP3    H131493   4.671   5.468  15.458  0.6948  1.0854  0.6464
 3334TIP3    H231494   4.738   5.484  15.323 -0.8283 -0.7025 -0.3549
 3335TIP3   OH231495   4.275   1.183   0.843 -0.6686 -0.7217  0.4825
 3335TIP3    H131496   4.327   1.176   0.762 -0.4241  0.4337  0.5305
 3335TIP3    H231497   4.339   1.205   0.911 -1.1262  0.0990  0.6555
 3336TIP3   OH231498   3.286   1.706  12.261  0.0913 -0.2621 -0.4771
 3336TIP3    H131499   3.201   1.734  12.294  0.6653  0.2093  0.6110
 3336TIP3    H231500   3.344   1.779  12.278  1.5159 -1.9174  2.0321
 3337TIP3   OH231501   1.156   4.917  13.938 -0.5595  0.6676 -0.0630
 3337TIP3    H131502   1.073   4.902  13.982 -1.4535  0.0995 -1.8812
 3337TIP3    H231503   1.159   5.011  13.923 -0.1459  0.8901  1.4009
 3338TIP3   OH231504   4.303   3.733   1.014 -0.1926  0.3105  0.4229
 3338TIP3    H131505   4.350   3.810   1.046 -0.1851  0.2332  0.5978
 3338TIP3    H231506   4.286   3.752   0.922 -1.6971  1.2594  0.8855
 3339TIP3   OH231507   4.485   1.542   1.816 -0.0256  0.0258  0.6255
 3339TIP3    H131508   4.552   1.610   1.817 -0.5143  0.5145  0.4785
 3339TIP3    H231509   4.468   1.525   1.723 -0.7854  0.5822  0.6630
 3340TIP3   OH231510   2.347   3.470   2.738 -0.1469  0.0815 -0.3384
 3340TIP3    H131511   2.300   3.406   2.685 -1.6658  1.4108 -0.6276
 3340TIP3    H231512   2.368   3.541   2.678  1.5769 -0.1393 -0.0277
 3341TIP3   OH231513   4.317   0.461   6.622  0.8574  0.2370 -0.2146
 3341TIP3    H131514   4.244   0.517   6.597  0.2877  0.6049  2.1438
 3341TIP3    H231515   4.292   0.426   6.708  2.9662 -0.5104  0.1236
 3342TIP3   OH231516   0.170   5.611   2.616 -0.4841  0.2711 -0.0129
 3342TIP3    H131517   0.107   5.681   2.598 -0.4193  1.3209  3.4665
 3342TIP3    H231518   0.248   5.635   2.565 -0.7841  2.2587  0.4151
 3343TIP3   OH231519   2.884   0.683   4.527 -0.0984 -0.0114  0.6051
 3343TIP3    H131520   2.916   0.620   4.592  2.0455 -0.9875 -1.3576
 3343TIP3    H231521   2.963   0.719   4.487 -1.3565  2.2155  0.0278
 3344TIP3   OH231522   1.971   6.654   0.172  0.2192 -0.2546  0.2458
 3344TIP3    H131523   1.971   6.561   0.192  1.3913 -0.3502 -0.1818
 3344TIP3    H231524   2.063   6.678   0.167 -0.0534  0.5667 -1.2688
 3345TIP3   OH231525   1.875   0.599   4.348 -0.2401  0.6047 -0.3459
 3345TIP3    H131526   1.783   0.582   4.326 -0.5779  3.3163 -1.1428
 3345TIP3    H231527   1.918   0.612   4.263  0.2033  2.6354  0.1770
 3346TIP3   OH231528   0.092   0.618  16.519  0.0398 -0.4191  0.5791
 3346TIP3    H131529   0.061   0.564  16.591 -0.5168  0.4517  0.9973
 3346TIP3    H231530   0.014   0.638  16.468  0.0821  0.8286  0.9955
 3347TIP3   OH231531   0.341   3.342   2.835  0.2215 -0.9325  0.0388
 3347TIP3    H131532   0.404   3.414   2.834  0.4836 -1.1466  0.7218
 3347TIP3    H231533   0.316   3.331   2.743  1.9316 -1.4981 -0.3918
 3348TIP3   OH231534   1.787   4.031   0.651  0.2044  0.4672  0.2636
 3348TIP3    H131535   1.753   3.980   0.725  0.9997 -1.3475 -0.6006
 3348TIP3    H231536   1.714   4.089   0.627 -0.3267  0.5350  1.9662
 3349TIP3   OH231537   6.102   2.182  16.261  0.0876 -0.7795 -0.0028
 3349TIP3    H131538   6.117   2.203  16.353 -0.7585  1.0020 -0.2605
 3349TIP3    H231539   6.189   2.161  16.228  0.5191 -0.6436  1.0132
 3350TIP3   OH231540   6.377   5.536   6.446  0.1690  0.2270 -0.1425
 3350TIP3    H131541   6.414   5.616   6.408 -1.2394  0.6327 -0.7137
 3350TIP3    H231542   6.391   5.546   6.541  1.0519  0.5886 -0.3012
 3351TIP3   OH231543   4.551   0.992   0.373  0.2876  0.2607  0.1673
 3351TIP3    H131544   4.559   0.999   0.278  1.4811 -0.8078  0.1739
 3351TIP3    H231545   4.640   1.005   0.405  0.7259 -3.8435  0.8370
 3352TIP3   OH231546   1.630   0.393  11.066 -0.3112 -0.3854 -0.2843
 3352TIP3    H131547   1.662   0.394  10.976 -0.2461 -0.2888 -0.2589
 3352TIP3    H231548   1.577   0.473  11.074 -1.0150 -0.8222 -0.4909
 3353TIP3   OH231549   4.486   5.747   5.294  0.1692  0.2220 -0.2266
 3353TIP3    H131550   4.577   5.762   5.269 -0.6137  1.3339 -2.6009
 3353TIP3    H231551   4.489   5.672   5.353  2.6597  0.5148  0.0620
 3354TIP3   OH231552   0.058   3.072   0.494 -0.4752 -0.8663  0.1438
 3354TIP3    H131553   0.053   3.159   0.455 -1.6844 -1.4494 -1.0748
 3354TIP3    H231554   0.090   3.086   0.583  0.1211  0.7294 -0.3222
 3355TIP3   OH231555   3.555   2.030   1.233 -0.1365 -0.6606  0.1916
 3355TIP3    H131556   3.617   2.082   1.183  0.4261 -0.1071  1.4557
 3355TIP3    H231557   3.510   2.093   1.290  1.0842 -1.6165  2.2747
 3356TIP3   OH231558   1.749   2.017   2.205 -0.3341  0.1652  0.9407
 3356TIP3    H131559   1.667   2.063   2.188  0.3372  1.7439  1.8767
 3356TIP3    H231560   1.794   2.016   2.121 -0.1676  1.6033  1.0086
 3357TIP3   OH231561   1.609   6.689   1.089  0.1765  0.2542  0.0885
 3357TIP3    H131562   1.525   6.689   1.044  0.0825 -2.0899  0.1939
 3357TIP3    H231563   1.663   6.627   1.039  0.6304 -1.0447  2.1309
 3358TIP3   OH231564   5.284   6.169   4.163  0.1396  0.1354  0.1002
 3358TIP3    H131565   5.232   6.247   4.183 -0.2882  0.0598 -0.7069
 3358TIP3    H231566   5.348   6.164   4.234 -0.6376  0.5077  0.8335
 3359TIP3   OH231567   5.018   3.476  11.683  0.3480  0.2242  0.1023
 3359TIP3    H131568   4.958   3.403  11.700  1.2265 -0.7172 -0.7608
 3359TIP3    H231569   5.050   3.459  11.594 -0.3817  2.3368 -0.5911
 3360TIP3   OH231570   2.186   1.777  12.678 -0.1612  0.4354 -0.1484
 3360TIP3    H131571   2.225   1.858  12.712 -2.6470  0.3643  3.1384
 3360TIP3    H231572   2.095   1.800  12.661 -0.8014 -1.5404  0.4450
 3361TIP3   OH231573   3.661   0.835   5.985 -0.0512  0.0122 -0.0952
 3361TIP3    H131574   3.727   0.820   5.917 -0.0980  0.0412 -0.1468
 3361TIP3    H231575   3.688   0.917   6.027 -0.4589  0.4032 -0.5932
 3362TIP3   OH231576   2.782   0.199  14.823  0.0210 -0.0615  0.0604
 3362TIP3    H131577   2.811   0.120  14.869  0.4302 -0.7789 -1.3984
 3362TIP3    H231578   2.697   0.220  14.862  1.2275  0.4592  2.4579
 3363TIP3   OH231579   3.829   6.482  11.854 -0.2814 -0.0294 -0.3000
 3363TIP3    H131580   3.902   6.543  11.865  0.1102 -0.0708 -2.4797
 3363TIP3    H231581   3.755   6.526  11.897  0.6817  0.6173  0.7483
 3364TIP3   OH231582   0.739   5.877  15.160 -0.6694  0.2870  0.0224
 3364TIP3    H131583   0.821   5.896  15.114 -0.5806 -0.7543 -0.2441
 3364TIP3    H231584   0.753   5.911  15.249  0.0664  0.0520 -0.0052
 3365TIP3   OH231585   1.849   5.288  14.566 -0.7486  0.1781  0.6499
 3365TIP3    H131586   1.907   5.236  14.510 -1.3742 -1.1562  1.2307
 3365TIP3    H231587   1.767   5.238  14.569 -1.0930  0.7995  1.8629
 3366TIP3   OH231588   6.632   1.139   0.852  0.2586 -0.0065  0.0460
 3366TIP3    H131589   6.616   1.137   0.947  1.3309  1.1933  0.2635
 3366TIP3    H231590   6.684   1.060   0.836  0.7583  0.2036  0.5938
 3367TIP3   OH231591   6.615   6.045  14.725 -0.1093  0.3021 -0.3008
 3367TIP3    H131592   6.693   6.015  14.678  0.7035 -0.5378  1.5150
 3367TIP3    H231593   6.635   6.134  14.752  0.0234  0.2574 -0.2542
 3368TIP3   OH231594   2.611   3.365   2.263  0.0939  0.2855  0.4035
 3368TIP3    H131595   2.522   3.389   2.237  0.2687  2.0405  1.3537
 3368TIP3    H231596   2.600   3.323   2.348 -0.0407 -1.6325 -0.5284
 3369TIP3   OH231597   4.006   0.536  16.412 -0.0701 -0.4195 -0.2051
 3369TIP3    H131598   3.922   0.559  16.451 -0.0546 -2.2274  0.9676
 3369TIP3    H231599   4.027   0.450  16.450  2.3696  0.0676 -0.3645
 3370TIP3   OH231600   3.694   6.357   5.908 -0.7229 -0.2037 -0.2321
 3370TIP3    H131601   3.650   6.295   5.966  0.7680 -0.6238  0.4731
 3370TIP3    H231602   3.780   6.370   5.948  0.1947 -0.2211 -2.1380
 3371TIP3   OH231603   3.032   4.303   6.420 -0.2099 -0.0264  0.2128
 3371TIP3    H131604   2.957   4.348   6.459  0.0104  0.3686  0.1929
 3371TIP3    H231605   3.108   4.351   6.453 -0.0146  0.2169 -0.5606
 3372TIP3   OH231606   4.662   0.773  13.426 -0.0308  0.0440  0.2978
 3372TIP3    H131607   4.700   0.850  13.469 -1.0871  0.7882 -0.0843
 3372TIP3    H231608   4.737   0.717  13.407  0.5202 -0.0668  2.6238
 3373TIP3   OH231609   0.349   3.552  13.776  0.8657 -0.1041  0.3393
 3373TIP3    H131610   0.398   3.540  13.858  0.2554 -2.0624  0.4653
 3373TIP3    H231611   0.283   3.483  13.778  0.1633  0.4916 -1.3278
 3374TIP3   OH231612   0.484   0.826  14.606  0.2255  0.0382 -0.3216
 3374TIP3    H131613   0.500   0.864  14.693  0.4804 -2.2101  0.6535
 3374TIP3    H231614   0.517   0.891  14.545 -0.4824  1.9111  1.2491
 3375TIP3   OH231615   4.526   2.735  12.315 -0.0305  0.0114  0.0305
 3375TIP3    H131616   4.607   2.767  12.352 -0.1253  0.0153  0.2341
 3375TIP3    H231617   4.514   2.648  12.354  0.0936 -0.1638 -0.3182
 3376TIP3   OH231618   1.926   1.184   5.927 -0.1277 -0.6568 -0.3585
 3376TIP3    H131619   1.982   1.119   5.884  1.2013  0.0469  0.2966
 3376TIP3    H231620   1.984   1.229   5.988 -1.4509 -0.0217  0.4446
 3377TIP3   OH231621   2.501   4.169   3.705 -0.5012 -0.6394  0.2356
 3377TIP3    H131622   2.578   4.225   3.697 -0.0862 -1.3215 -0.5663
 3377TIP3    H231623   2.535   4.080   3.700 -1.3345 -0.9423 -0.0484
 3378TIP3   OH231624   5.104   5.843  10.549 -0.0071 -0.2022  0.2908
 3378TIP3    H131625   5.087   5.824  10.642  0.1173 -1.3540  0.0833
 3378TIP3    H231626   5.018   5.866  10.513 -0.1359 -0.2274  0.5800
 3379TIP3   OH231627   1.613   3.944  13.660 -0.6334 -0.0587  0.0021
 3379TIP3    H131628   1.696   3.931  13.614 -0.2096 -0.6795  0.9121
 3379TIP3    H231629   1.565   4.007  13.607  1.3571  2.0497  0.6228
 3380TIP3   OH231630   4.623   6.295  15.007 -0.6469  0.6674 -0.1570
 3380TIP3    H131631   4.541   6.247  14.998 -0.0350 -0.6913  1.2871
 3380TIP3    H231632   4.667   6.254  15.081  1.5848  1.0432 -1.2353
 3381TIP3   OH231633   1.559   4.209   4.949 -0.5220 -0.2984 -0.5041
 3381TIP3    H131634   1.626   4.245   4.891 -2.1125  2.1156 -0.9011
 3381TIP3    H231635   1.522   4.135   4.900 -0.1200  0.1564 -1.5122
 3382TIP3   OH231636   1.850   3.726   2.256 -0.1070 -0.2859  0.0604
 3382TIP3    H131637   1.938   3.691   2.239 -0.1805 -0.0303 -0.8383
 3382TIP3    H231638   1.803   3.713   2.174 -0.4708  0.9094  0.0782
 3383TIP3   OH231639   6.001   2.260   4.047  0.0445 -0.7810  0.7490
 3383TIP3    H131640   6.020   2.231   3.958  0.2298 -1.3086  0.9541
 3383TIP3    H231641   5.923   2.209   4.072 -3.5077  3.3991 -1.1189
 3384TIP3   OH231642   5.156   3.501  16.737  0.2222 -0.2732 -0.7250
 3384TIP3    H131643   5.172   3.409  16.716 -1.9978 -0.3747 -2.0568
 3384TIP3    H231644   5.240   3.531  16.773  0.6072 -3.1321  0.9671
 3385TIP3   OH231645   0.961   0.985   1.744 -0.0718 -0.3257 -0.1422
 3385TIP3    H131646   0.877   1.010   1.706 -0.2519  3.4509  2.4956
 3385TIP3    H231647   0.940   0.913   1.803 -1.5071  0.7275  0.6396
 3386TIP3   OH231648   4.379   6.678   4.038 -0.3943 -0.3781  0.1020
 3386TIP3    H131649   4.364   6.760   3.991 -0.7691  0.1369  1.1196
 3386TIP3    H231650   4.318   6.681   4.112  1.6653 -0.2000  1.8332
 3387TIP3   OH231651   0.056   5.192   5.755 -0.6288  0.4154 -0.0180
 3387TIP3    H131652   0.136   5.219   5.800 -0.3569 -0.7039  0.1840
 3387TIP3    H231653   0.041   5.102   5.784 -1.4302  0.2897 -0.7958
 3388TIP3   OH231654   3.088   1.484  13.696 -0.3325  0.4500 -0.9731
 3388TIP3    H131655   3.125   1.564  13.659  0.3574 -0.3917 -2.1324
 3388TIP3    H231656   3.018   1.459  13.635 -0.0326 -0.2507 -1.0379
 3389TIP3   OH231657   3.042   3.105   3.899 -0.2409  0.0228 -0.3148
 3389TIP3    H131658   3.043   3.096   3.804 -0.1229 -0.3869 -0.2762
 3389TIP3    H231659   2.972   3.046   3.928  0.1792 -0.3804 -0.0987
 3390TIP3   OH231660   1.601   6.251  16.308  0.1816  0.6166 -0.1403
 3390TIP3    H131661   1.608   6.160  16.278  0.7325 -0.1134  2.0522
 3390TIP3    H231662   1.689   6.287  16.295  0.3385  0.3908  0.2562
 3391TIP3   OH231663   5.146   3.497   4.039 -0.0834  0.1727 -0.4361
 3391TIP3    H131664   5.076   3.463   4.094  1.1257  1.1617  1.7791
 3391TIP3    H231665   5.170   3.424   3.982 -0.0234 -1.5140  1.7052
 3392TIP3   OH231666   6.537   6.451   0.220 -0.1445 -0.4260 -0.1004
 3392TIP3    H131667   6.611   6.391   0.222  0.5421  0.4442  1.7879
 3392TIP3    H231668   6.518   6.468   0.313 -1.5882  0.7091 -0.5922
 3393TIP3   OH231669   5.972   4.133  15.624 -0.4647  0.2571 -0.0496
 3393TIP3    H131670   6.062   4.111  15.597 -0.7567 -1.3468  0.2352
 3393TIP3    H231671   5.953   4.072  15.695 -1.2571  1.5853  0.8898
 3394TIP3   OH231672   1.667   4.058  14.130 -0.4909 -0.4774  0.5293
 3394TIP3    H131673   1.750   4.092  14.096 -1.4311  1.4859  0.1395
 3394TIP3    H231674   1.611   4.050  14.053 -0.7174 -1.7076  0.8066
 3395TIP3   OH231675   0.853   2.249   4.507  0.5273  0.4961  0.1129
 3395TIP3    H131676   0.853   2.303   4.428 -1.4813  0.0010 -0.2490
 3395TIP3    H231677   0.863   2.311   4.579  2.4242  0.9457 -0.5064
 3396TIP3   OH231678   0.712   2.062   3.104 -0.1300  0.0648 -0.8500
 3396TIP3    H131679   0.790   2.043   3.157 -0.8533 -0.8765 -0.1117
 3396TIP3    H231680   0.665   2.129   3.153 -0.1904  0.0526 -0.8905
 3397TIP3   OH231681   4.259   2.036  13.908 -0.0770  0.4606 -0.0927
 3397TIP3    H131682   4.179   2.082  13.883 -0.0081  0.4431 -0.3546
 3397TIP3    H231683   4.247   2.014  14.000  0.0795  1.3895  0.1477
 3398TIP3   OH231684   1.167   0.678   4.931 -0.4371 -0.1876  0.0309
 3398TIP3    H131685   1.212   0.732   4.996 -3.5186  1.4183  0.9227
 3398TIP3    H231686   1.238   0.634   4.885  1.9722  0.7545  2.6180
 3399TIP3   OH231687   0.036   6.416  12.084 -0.7045 -0.4894 -0.5802
 3399TIP3    H131688  -0.005   6.329  12.093  0.3136 -1.0955 -1.7076
 3399TIP3    H231689   0.085   6.411  12.003  0.5589  0.6782  0.0962
 3400TIP3   OH231690   5.833   2.997   3.300  0.0122  0.3067 -0.3349
 3400TIP3    H131691   5.828   3.092   3.287 -0.6148 -0.0742 -3.4605
 3400TIP3    H231692   5.926   2.977   3.296  0.0616  0.6616 -1.1033
 3401TIP3   OH231693   5.232   0.935  11.992 -0.5914 -0.2008 -0.3085
 3401TIP3    H131694   5.305   0.930  12.054 -0.0370 -1.7309 -1.0461
 3401TIP3    H231695   5.268   0.897  11.911 -0.7095  3.4221 -2.1586
 3402TIP3   OH231696   2.373   6.188  11.569 -0.2824 -0.0617 -0.2548
 3402TIP3    H131697   2.467   6.176  11.581 -0.3347 -1.1568 -0.8807
 3402TIP3    H231698   2.352   6.264  11.622  1.4009  1.7432 -2.0586
 3403TIP3   OH231699   1.668   5.813   1.662  0.1974 -0.3627 -0.2734
 3403TIP3    H131700   1.575   5.813   1.685 -0.5482 -0.9089 -3.0871
 3403TIP3    H231701   1.710   5.763   1.732 -1.4700  0.6488  1.5164
 3404TIP3   OH231702   1.346   0.469   1.796 -0.1850  0.2509 -0.3366
 3404TIP3    H131703   1.423   0.479   1.740 -0.3176  0.6100 -0.4622
 3404TIP3    H231704   1.308   0.557   1.800  0.2421  0.3898  0.9383
 3405TIP3   OH231705   0.329   4.649  12.433 -0.6457 -0.0626 -0.4843
 3405TIP3    H131706   0.243   4.687  12.451 -1.3189 -1.7867 -0.0629
 3405TIP3    H231707   0.331   4.638  12.338 -0.5725  0.6911 -0.5772
 3406TIP3   OH231708   4.481   3.120  17.228  0.2882 -0.6816  0.3837
 3406TIP3    H131709   4.528   3.160  17.302 -2.8353  1.3592  1.3864
 3406TIP3    H231710   4.506   3.173  17.153 -0.1468  0.2276  0.8624
 3407TIP3   OH231711   3.818   6.153  11.396  0.1399 -0.0803  0.1097
 3407TIP3    H131712   3.780   6.239  11.382 -1.1105 -0.4967  0.8892
 3407TIP3    H231713   3.891   6.148  11.334 -0.0313  1.3746 -0.2118
 3408TIP3   OH231714   6.198   4.186   1.081  0.0140  0.3589  0.5555
 3408TIP3    H131715   6.235   4.241   1.012 -1.0245  1.2551  0.7021
 3408TIP3    H231716   6.167   4.107   1.036 -1.2966  1.2420 -0.1147
 3409TIP3   OH231717   1.471   0.782  11.350  0.3172  0.1513 -0.1077
 3409TIP3    H131718   1.387   0.772  11.394  0.8720 -0.8696  0.7479
 3409TIP3    H231719   1.453   0.762  11.258 -0.0830 -1.5889  0.3261
 3410TIP3   OH231720   4.493   6.741  12.929 -0.7131  0.0068  0.2012
 3410TIP3    H131721   4.438   6.788  12.867 -0.3467 -0.2020 -0.2832
 3410TIP3    H231722   4.437   6.726  13.005 -0.1855  3.1688  1.2763
 3411TIP3   OH231723   6.159   0.871   4.135  0.1094 -0.2237  0.5986
 3411TIP3    H131724   6.140   0.960   4.167  0.7996 -0.2143  0.9863
 3411TIP3    H231725   6.086   0.818   4.167  0.4772 -0.0929  1.6482
 3412TIP3   OH231726   4.192   1.116  13.231  0.2615 -0.3394 -0.1122
 3412TIP3    H131727   4.120   1.058  13.255  0.0555 -0.8280 -1.8810
 3412TIP3    H231728   4.262   1.095  13.293  0.6171 -3.2915 -1.4739
 3413TIP3   OH231729   0.077   4.578  14.053  0.1185 -0.6653  0.0796
 3413TIP3    H131730   0.131   4.608  13.980 -0.3639 -0.1500 -0.0714
 3413TIP3    H231731  -0.009   4.561  14.014 -0.3185  0.2241  0.6302
 3414TIP3   OH231732   0.598   1.478  10.214 -0.3159 -0.3351  0.0374
 3414TIP3    H131733   0.677   1.473  10.159 -0.3710  0.0198 -0.0761
 3414TIP3    H231734   0.630   1.508  10.299 -0.1635 -1.3525  0.3462
 3415TIP3   OH231735   2.711   6.060   4.534  0.0761 -0.4968 -0.1771
 3415TIP3    H131736   2.661   6.038   4.613  1.2944 -0.9283  0.4856
 3415TIP3    H231737   2.782   6.116   4.565 -0.3058  0.5723 -1.1956
 3416TIP3   OH231738   2.309   4.894  14.297  0.4539 -0.3624  0.5555
 3416TIP3    H131739   2.390   4.865  14.255  1.1473  2.0086  0.1513
 3416TIP3    H231740   2.288   4.977  14.254 -1.6941 -0.4755  1.3138
 3417TIP3   OH231741   6.103   2.528   4.724  0.3991  0.3638  0.4939
 3417TIP3    H131742   6.032   2.577   4.765 -0.0530  0.0443  0.0956
 3417TIP3    H231743   6.146   2.591   4.666 -0.4053  0.1900 -0.2880
 3418TIP3   OH231744   6.663   5.051  11.604 -0.0977  0.2798 -0.8696
 3418TIP3    H131745   6.663   5.103  11.524  0.1634  1.1253 -0.3186
 3418TIP3    H231746   6.584   5.077  11.650  1.4405  2.2589  0.7373
 3419TIP3   OH231747   0.228   1.479   2.708 -0.0036  0.6611  0.2393
 3419TIP3    H131748   0.136   1.461   2.725  0.4049 -1.5934  0.2301
 3419TIP3    H231749   0.274   1.445   2.785  1.1867 -2.4756 -1.7762
 3420TIP3   OH231750   3.519   2.518  12.065 -0.1163  1.0838 -0.0268
 3420TIP3    H131751   3.534   2.492  11.974 -1.4824 -0.9171  0.2817
 3420TIP3    H231752   3.479   2.605  12.058 -0.0730  1.0158 -1.3430
 3421TIP3   OH231753   2.322   2.282  12.071 -0.0858  0.2622  0.6263
 3421TIP3    H131754   2.366   2.357  12.110  1.3510 -0.0057 -0.4636
 3421TIP3    H231755   2.256   2.320  12.013 -0.0977  0.6681  0.9030
 3422TIP3   OH231756   4.646   4.360  12.415 -0.1993 -0.3022 -0.3792
 3422TIP3    H131757   4.708   4.297  12.454 -1.0771 -0.1416  1.3533
 3422TIP3    H231758   4.675   4.445  12.448  0.3395  0.0979 -1.8512
 3423TIP3   OH231759   5.614   1.192  12.813 -0.4808  0.2630  0.2449
 3423TIP3    H131760   5.601   1.143  12.732 -1.3269  0.6071  0.1719
 3423TIP3    H231761   5.665   1.133  12.869  0.3565  0.1428 -0.6393
 3424TIP3   OH231762   3.059   0.219   6.092 -0.0568 -0.0892 -0.0067
 3424TIP3    H131763   3.005   0.148   6.056  1.4206 -0.0830 -2.3042
 3424TIP3    H231764   3.030   0.297   6.046  1.4070  0.0308 -0.7554
 3425TIP3   OH231765   1.595   2.545   1.789  0.4462 -0.7018  0.3810
 3425TIP3    H131766   1.553   2.543   1.875  0.0744 -0.4721  0.2066
 3425TIP3    H231767   1.617   2.637   1.775 -0.6296 -0.5397 -0.3126
 3426TIP3   OH231768   0.864   0.017  13.278 -0.5627 -0.5434  0.0949
 3426TIP3    H131769   0.949  -0.019  13.303 -0.2645 -0.5436 -0.9074
 3426TIP3    H231770   0.867   0.108  13.309 -0.0427 -0.4255 -0.2933
 3427TIP3   OH231771   5.677   1.785  17.097 -0.4570  0.6889  0.3519
 3427TIP3    H131772   5.606   1.819  17.042  0.8845  1.2316 -1.0655
 3427TIP3    H231773   5.757   1.821  17.059  0.8045 -1.9196  0.3910
 3428TIP3   OH231774   4.872   4.428  15.849  0.2375 -0.6788  0.1136
 3428TIP3    H131775   4.809   4.388  15.789 -0.0236 -0.0957 -0.0121
 3428TIP3    H231776   4.954   4.431  15.800 -0.0585  0.1226 -0.3633
 3429TIP3   OH231777   5.576   5.201   3.755  0.2099 -0.1393 -0.0239
 3429TIP3    H131778   5.554   5.172   3.666 -1.4846 -0.8232  0.5821
 3429TIP3    H231779   5.671   5.201   3.758  0.3417  2.3507 -2.6182
 3430TIP3   OH231780   0.936   2.642   0.523 -0.0341  0.5914 -0.3775
 3430TIP3    H131781   1.023   2.629   0.559  0.0534  0.7461 -0.5296
 3430TIP3    H231782   0.905   2.553   0.502 -0.3900  0.4425  0.7669
 3431TIP3   OH231783   6.228   2.229   3.655  0.3674  0.0418 -0.2597
 3431TIP3    H131784   6.259   2.186   3.575  0.4757  1.3288 -0.9284
 3431TIP3    H231785   6.182   2.161   3.703  2.5404 -1.4027 -0.1788
 3432TIP3   OH231786   6.128   3.800  10.964  0.6215  0.2619 -0.0524
 3432TIP3    H131787   6.161   3.847  11.041  0.1548 -1.1033  0.9962
 3432TIP3    H231788   6.033   3.805  10.971  0.5705 -0.3228 -0.2451
 3433TIP3   OH231789   4.944   6.518   2.991 -0.0341 -0.4949  0.0051
 3433TIP3    H131790   4.983   6.442   3.034 -1.4520 -1.0354  0.3834
 3433TIP3    H231791   4.854   6.491   2.973 -0.0199  0.4528 -1.5242
 3434TIP3   OH231792   4.879   4.990  12.352 -0.6253  0.7841  0.2848
 3434TIP3    H131793   4.822   5.014  12.279 -1.0332 -0.0559  0.3279
 3434TIP3    H231794   4.819   4.967  12.423 -0.2366  1.7111  0.9342
 3435TIP3   OH231795   3.720   5.268  14.745 -0.7816  0.4495  0.7266
 3435TIP3    H131796   3.692   5.354  14.776 -1.5057  0.1584  0.8945
 3435TIP3    H231797   3.781   5.286  14.673 -1.0049  1.0961  0.7037
 3436TIP3   OH231798   2.026   1.535   2.528 -0.2457 -0.6413  0.3183
 3436TIP3    H131799   1.956   1.548   2.464  1.0615  0.4906 -0.9182
 3436TIP3    H231800   2.029   1.441   2.542 -1.6138 -0.7549 -0.0773
 3437TIP3   OH231801   2.912   4.794  12.373 -0.0681 -0.0990 -0.5033
 3437TIP3    H131802   2.989   4.768  12.322  0.6251 -1.5797  1.2425
 3437TIP3    H231803   2.949   4.825  12.456 -1.3956 -1.4748  0.6174
 3438TIP3   OH231804   0.161   1.883   5.472 -0.3505 -0.1671 -0.7155
 3438TIP3    H131805   0.115   1.967   5.476  0.4642  0.2565  0.1389
 3438TIP3    H231806   0.241   1.903   5.423 -1.0583 -0.8936 -2.1919
 3439TIP3   OH231807   3.262   4.841  11.282 -0.0501  0.2367 -0.3336
 3439TIP3    H131808   3.319   4.900  11.330 -2.5143  1.8793  0.6889
 3439TIP3    H231809   3.298   4.754  11.298  2.3148  1.2365 -0.0007
 3440TIP3   OH231810   2.849   2.491  15.730  0.1234 -0.0870 -0.3094
 3440TIP3    H131811   2.781   2.425  15.721  1.3307 -1.2055 -1.3760
 3440TIP3    H231812   2.905   2.480  15.653  1.5991  0.7134  0.6129
 3441TIP3   OH231813   4.537   2.780   0.285  0.1706  0.4599 -0.2694
 3441TIP3    H131814   4.596   2.722   0.333 -0.2682 -0.4015 -0.7504
 3441TIP3    H231815   4.501   2.725   0.216 -0.9901  1.0418 -0.1446
 3442TIP3   OH231816   5.324   5.932  12.392 -0.5027  0.4398 -0.7706
 3442TIP3    H131817   5.350   5.849  12.429 -0.3946  2.3456  3.7143
 3442TIP3    H231818   5.405   5.981  12.380 -0.8727  1.5280  0.9110
 3443TIP3   OH231819   4.213   4.336  15.296 -0.2500  0.0055 -0.0453
 3443TIP3    H131820   4.211   4.289  15.213  0.4047  0.0414 -0.0868
 3443TIP3    H231821   4.217   4.268  15.363 -0.5304 -0.0189 -0.0539
 3444TIP3   OH231822   6.151   2.419  12.035 -0.1867 -0.0554 -0.2820
 3444TIP3    H131823   6.203   2.355  11.986 -0.8823 -2.0076  1.4498
 3444TIP3    H231824   6.213   2.458  12.097 -0.3781 -1.1328  0.6022
 3445TIP3   OH231825   3.463   0.735   1.337 -0.1643 -0.1573  0.4858
 3445TIP3    H131826   3.536   0.677   1.317  1.4570  1.2542  2.1778
 3445TIP3    H231827   3.435   0.709   1.425 -0.3586  0.6799  0.6725
 3446TIP3   OH231828   1.272   0.664   3.730 -0.0351 -0.5956  0.3153
 3446TIP3    H131829   1.293   0.573   3.748  0.6307 -0.6072 -0.4764
 3446TIP3    H231830   1.219   0.661   3.650  0.1436 -0.2739  0.1851
 3447TIP3   OH231831   2.513   3.906   4.545  0.3257  0.2833  0.2450
 3447TIP3    H131832   2.587   3.943   4.496 -0.0524  0.1151 -0.4574
 3447TIP3    H231833   2.548   3.890   4.633  0.6887  1.6257  0.3494
 3448TIP3   OH231834   1.072   1.513  14.632 -0.1720 -0.2423 -0.0906
 3448TIP3    H131835   1.137   1.460  14.587  0.2774 -0.1681  0.4651
 3448TIP3    H231836   1.069   1.477  14.721 -1.4428 -0.7425 -0.3187
 3449TIP3   OH231837   5.965   2.642   2.627  0.6710  0.5466  0.2266
 3449TIP3    H131838   5.986   2.703   2.698  1.1509  1.9416 -1.0723
 3449TIP3    H231839   5.932   2.698   2.556  0.9541 -0.7214 -0.9330
 3450TIP3   OH231840   5.823   6.423  15.099  0.0103 -0.0594 -0.2877
 3450TIP3    H131841   5.917   6.432  15.114 -0.2223  1.1383  0.5064
 3450TIP3    H231842   5.797   6.507  15.060 -0.9135 -0.0008  0.4467
 3451TIP3   OH231843   5.556   1.699   1.647 -0.4164 -0.8452 -0.1019
 3451TIP3    H131844   5.582   1.788   1.671 -1.0531 -0.2752 -1.4840
 3451TIP3    H231845   5.493   1.674   1.715  0.7137 -0.7298  1.0039
 3452TIP3   OH231846   0.112   5.462  16.685 -0.0679  0.0511 -0.0887
 3452TIP3    H131847   0.071   5.450  16.771 -1.2381  2.0361 -0.3373
 3452TIP3    H231848   0.085   5.385  16.635 -1.8245  0.3051  0.4126
 3453TIP3   OH231849   5.040   4.587  14.467 -0.1567  0.4964  0.1244
 3453TIP3    H131850   5.049   4.505  14.516 -1.8886 -0.1085 -0.5108
 3453TIP3    H231851   5.026   4.654  14.534  2.4709  0.4886  0.7162
 3454TIP3   OH231852   4.565   5.205   2.115  0.2808 -0.6835 -0.7685
 3454TIP3    H131853   4.641   5.199   2.172 -0.3917 -0.9473  0.1100
 3454TIP3    H231854   4.587   5.150   2.039  1.0778 -0.5116 -0.6707
 3455TIP3   OH231855   3.241   4.508  13.851  0.4608 -0.2736  0.2322
 3455TIP3    H131856   3.284   4.449  13.913  0.9664 -0.0156  0.1291
 3455TIP3    H231857   3.278   4.594  13.871 -1.7589  0.3859  1.7670
 3456TIP3   OH231858   3.588   2.802  10.679 -0.1668  0.0093  0.2662
 3456TIP3    H131859   3.650   2.855  10.629 -0.5756  1.3358  1.1454
 3456TIP3    H231860   3.632   2.719  10.692  1.5270  1.0134  1.0641
 3457TIP3   OH231861   4.189   5.779   1.843  0.2852 -0.1037  0.1872
 3457TIP3    H131862   4.142   5.810   1.920 -0.9584 -1.3315 -0.0617
 3457TIP3    H231863   4.156   5.832   1.771  0.8098  0.4545  0.3614
 3458TIP3   OH231864   5.738   6.361   4.912 -0.2752 -0.0811 -0.7021
 3458TIP3    H131865   5.772   6.450   4.905 -0.7471  0.4218  2.4436
 3458TIP3    H231866   5.815   6.307   4.930 -0.3368  0.1525  0.3121
 3459TIP3   OH231867   1.348   3.521  14.538  0.5143  0.4012  0.7122
 3459TIP3    H131868   1.259   3.492  14.555  0.0680  0.8573 -0.7768
 3459TIP3    H231869   1.402   3.468  14.597 -0.3638 -2.8805 -1.3176
 3460TIP3   OH231870   4.216   2.415   6.304 -0.2082  0.3061  0.2486
 3460TIP3    H131871   4.166   2.496   6.312  1.1766  1.0028  1.9090
 3460TIP3    H231872   4.206   2.372   6.389  1.2201 -0.0166  0.2593
 3461TIP3   OH231873   4.520   4.763   0.454 -0.6219  0.6706  0.1107
 3461TIP3    H131874   4.477   4.680   0.478  0.1944  0.1792 -0.0967
 3461TIP3    H231875   4.592   4.736   0.397 -1.2688  1.6598 -1.1886
 3462TIP3   OH231876   2.289   3.905  12.552  0.1259  0.0931  0.0038
 3462TIP3    H131877   2.354   3.839  12.528 -0.3966 -0.8102  1.0795
 3462TIP3    H231878   2.206   3.858  12.555  0.1716  0.1386  3.7037
 3463TIP3   OH231879   5.128   0.401   4.376 -0.0022 -0.2887 -0.3316
 3463TIP3    H131880   5.070   0.457   4.427  0.7087  0.2903 -0.1533
 3463TIP3    H231881   5.184   0.462   4.328 -0.7664 -0.8201 -1.9343
 3464TIP3   OH231882   1.120   0.332  12.664  0.0517  0.0716  0.3531
 3464TIP3    H131883   1.195   0.390  12.674 -0.2259  0.8856 -2.0105
 3464TIP3    H231884   1.127   0.299  12.574 -3.6405  1.9405 -0.7048
 3465TIP3   OH231885   2.343   3.434   3.642 -0.3055  0.1112  0.0389
 3465TIP3    H131886   2.335   3.341   3.662 -2.4416 -0.1469 -1.7582
 3465TIP3    H231887   2.437   3.449   3.635  0.1321 -1.5497  1.8878
 3466TIP3   OH231888   1.576   1.140   0.512 -0.0831  0.0822  0.1821
 3466TIP3    H131889   1.601   1.191   0.588  1.4361 -2.6294  1.5868
 3466TIP3    H231890   1.597   1.049   0.536  1.0926 -0.7598 -3.7225
 3467TIP3   OH231891   1.605   5.498  16.546  0.2022 -0.0324 -0.0338
 3467TIP3    H131892   1.537   5.449  16.502 -0.0678  0.2961  0.0152
 3467TIP3    H231893   1.685   5.477  16.498  0.3428 -1.6750  0.9117
 3468TIP3   OH231894   4.869   0.845  11.610 -0.4160  0.3872  0.0977
 3468TIP3    H131895   4.918   0.902  11.669  3.0178 -0.9333 -1.3634
 3468TIP3    H231896   4.881   0.883  11.523 -0.8009 -0.7572 -0.4704
 3469TIP3   OH231897   4.174   2.025  14.673 -0.2510 -0.4623 -0.0951
 3469TIP3    H131898   4.119   2.080  14.730 -0.4240  0.5646 -1.2307
 3469TIP3    H231899   4.118   2.006  14.597  0.8870  0.4292 -1.1710
 3470TIP3   OH231900   3.807   4.846   2.907  0.1264  0.3183  0.3222
 3470TIP3    H131901   3.715   4.853   2.934  0.0021  1.1468 -0.3292
 3470TIP3    H231902   3.816   4.907   2.834  0.3059 -2.3887 -1.9957
 3471TIP3   OH231903   0.217   3.538   3.777 -0.3436 -0.6395  0.2855
 3471TIP3    H131904   0.287   3.529   3.711  0.4942  0.4777  1.0011
 3471TIP3    H231905   0.136   3.523   3.728  0.3784 -1.6311 -0.6290
 3472TIP3   OH231906   4.956   0.753   2.041  0.1877  0.7777 -0.4029
 3472TIP3    H131907   4.980   0.779   1.953 -1.1904  1.7183 -0.5185
 3472TIP3    H231908   5.029   0.783   2.096  0.7863  0.6760 -1.1419
 3473TIP3   OH231909   1.697   2.835  14.761 -0.0960  0.4129 -0.1662
 3473TIP3    H131910   1.624   2.778  14.736 -0.4797  1.5296 -1.6448
 3473TIP3    H231911   1.658   2.901  14.819  0.3302 -0.7295  1.4677
 3474TIP3   OH231912   1.618   2.429  16.240  0.9189  0.8316 -0.6774
 3474TIP3    H131913   1.685   2.452  16.304  1.5095 -1.4824 -0.4247
 3474TIP3    H231914   1.537   2.427  16.290  0.6400  3.4274 -0.9454
 3475TIP3   OH231915   0.424   3.913   2.837  0.7270 -0.7992 -0.4817
 3475TIP3    H131916   0.454   3.962   2.913  1.5263  0.3477 -1.5054
 3475TIP3    H231917   0.337   3.882   2.860  0.6085  0.2951  0.5490
 3476TIP3   OH231918   3.743   4.006  13.963  0.0338  0.2203 -0.4618
 3476TIP3    H131919   3.662   4.053  13.979  0.9738  1.9316 -0.5554
 3476TIP3    H231920   3.762   3.961  14.045 -0.0872  1.2648  0.1441
 3477TIP3   OH231921   0.954   1.760   2.094 -0.5372 -0.5550  0.1032
 3477TIP3    H131922   0.922   1.718   2.014  1.9295  1.1770 -1.8574
 3477TIP3    H231923   1.005   1.692   2.138 -1.2229 -1.2688 -0.1857
 3478TIP3   OH231924   5.105   5.584  12.446  0.2052 -0.0318  0.3031
 3478TIP3    H131925   5.032   5.521  12.451  0.2591 -0.1112  0.0981
 3478TIP3    H231926   5.171   5.540  12.392  0.3138  0.1326  0.3017
 3479TIP3   OH231927   1.375   3.912   0.323 -0.2340 -0.3966  0.7414
 3479TIP3    H131928   1.447   3.855   0.295 -1.2478 -1.6202  0.5421
 3479TIP3    H231929   1.339   3.946   0.241  0.5636  0.7875  0.8774
 3480TIP3   OH231930   2.821   5.304   5.399 -0.4980  0.3295  0.1480
 3480TIP3    H131931   2.796   5.264   5.482  0.1364 -2.5543 -0.9897
 3480TIP3    H231932   2.890   5.367   5.422 -0.8254  0.0722  1.8631
 3481TIP3   OH231933   2.786   0.351  13.770 -0.3758 -0.2336 -0.0343
 3481TIP3    H131934   2.795   0.268  13.723  1.8703  0.9828 -1.8126
 3481TIP3    H231935   2.704   0.388  13.737 -0.0518 -0.5240 -1.1745
 3482TIP3   OH231936   5.633   6.219   2.110 -0.2211 -0.1575  0.1396
 3482TIP3    H131937   5.646   6.314   2.111 -0.0986 -0.1444 -1.3253
 3482TIP3    H231938   5.640   6.193   2.202 -1.2002  1.3772  0.6738
 3483TIP3   OH231939   4.076   5.206   0.027  0.1946 -0.4719  0.5297
 3483TIP3    H131940   4.041   5.118   0.032 -0.9059 -0.0221  0.8301
 3483TIP3    H231941   4.016   5.253  -0.032 -0.3111  0.5753  1.8544
 3484TIP3   OH231942   5.107   2.057   1.909 -0.3278  0.3835 -0.5377
 3484TIP3    H131943   5.133   2.072   2.000 -0.1875 -2.8256  0.0229
 3484TIP3    H231944   5.013   2.073   1.907 -0.3913  0.1390  0.2722
 3485TIP3   OH231945   4.887   0.195   3.993 -0.3795  0.1714  0.0017
 3485TIP3    H131946   4.871   0.252   4.068 -0.4920 -1.4707  1.2695
 3485TIP3    H231947   4.974   0.219   3.962 -0.2985  0.8095  0.7076
 3486TIP3   OH231948   6.527   1.115   5.194 -0.3048 -0.6678  0.2987
 3486TIP3    H131949   6.486   1.030   5.211 -0.1587 -0.9549 -0.7338
 3486TIP3    H231950   6.619   1.102   5.218 -0.5119 -0.4708  1.1966
 3487TIP3   OH231951   5.522   0.343   3.852 -0.5542 -0.1270 -0.7821
 3487TIP3    H131952   5.602   0.294   3.830 -0.5802 -1.1775  1.3184
 3487TIP3    H231953   5.481   0.361   3.768  1.1701 -0.8378 -1.8054
 3488TIP3   OH231954   5.745   2.776   5.597  0.8224  0.1723  0.0762
 3488TIP3    H131955   5.697   2.839   5.544 -0.1380  1.0769  1.9963
 3488TIP3    H231956   5.684   2.750   5.666  1.8630 -1.4141  0.4360
 3489TIP3   OH231957   5.906   3.336  12.436  0.0783  0.1751 -0.1754
 3489TIP3    H131958   5.925   3.428  12.414  1.3473  0.3496  1.5411
 3489TIP3    H231959   5.839   3.341  12.504 -2.5079 -0.3126 -2.5851
 3490TIP3   OH231960   6.097   2.386  12.831  0.0764 -0.3839  0.4489
 3490TIP3    H131961   6.006   2.393  12.862  0.5161  1.9962  1.2826
 3490TIP3    H231962   6.135   2.316  12.885 -1.4941 -2.0300 -0.5380
 3491TIP3   OH231963   4.484   5.666  12.442 -0.2076  0.2535 -0.0102
 3491TIP3    H131964   4.425   5.612  12.494  0.3239 -0.4955 -0.1819
 3491TIP3    H231965   4.572   5.638  12.468  0.0763  1.6984  0.5941
 3492TIP3   OH231966   3.545   0.425  15.103 -0.1074  0.1112 -0.5597
 3492TIP3    H131967   3.581   0.357  15.160  1.4258  0.6622 -0.8499
 3492TIP3    H231968   3.451   0.422  15.119 -0.0896 -2.1379 -0.6115
 3493TIP3   OH231969   2.198   5.457  16.986 -0.5834  0.3546  0.1044
 3493TIP3    H131970   2.249   5.376  16.994 -0.2124  0.5196 -0.4999
 3493TIP3    H231971   2.256   5.516  16.938 -0.5304  1.2577  1.2619
 3494TIP3   OH231972   3.511   3.408   2.759  0.0906  0.0892 -0.6122
 3494TIP3    H131973   3.587   3.377   2.809 -1.3121 -0.9877  0.9414
 3494TIP3    H231974   3.515   3.361   2.676 -0.1612 -1.7910  0.4076
 3495TIP3   OH231975   2.162   4.224   5.751 -0.0201  0.1184  0.3431
 3495TIP3    H131976   2.222   4.261   5.685 -0.6498 -0.0140 -0.3108
 3495TIP3    H231977   2.191   4.263   5.833 -0.2859  1.6188 -0.2506
 3496TIP3   OH231978   2.850   4.613   5.938 -0.0956 -0.0142 -0.0217
 3496TIP3    H131979   2.918   4.594   6.002 -0.1932  0.2610  0.1634
 3496TIP3    H231980   2.775   4.641   5.990  0.3517  1.8332 -0.3353
 3497TIP3   OH231981   2.999   2.425  10.469  0.0055 -0.0147  0.4609
 3497TIP3    H131982   3.053   2.361  10.515 -1.4787 -0.5146  1.5585
 3497TIP3    H231983   2.912   2.386  10.468 -0.3657  0.8184 -1.2044
 3498TIP3   OH231984   0.915   4.734   1.659 -0.0838  0.5388  0.4088
 3498TIP3    H131985   0.905   4.737   1.564  1.9641  0.8891  0.1863
 3498TIP3    H231986   0.994   4.785   1.677  0.3749 -0.7292  2.1746
 3499TIP3   OH231987   4.774   2.749   4.424  0.0256 -0.4347 -0.6180
 3499TIP3    H131988   4.814   2.670   4.460  0.4308  0.3999  0.7840
 3499TIP3    H231989   4.733   2.792   4.499 -0.4173  0.5478 -1.4103
 3500TIP3   OH231990   3.379   0.873  14.521  0.5844  0.1874  0.3644
 3500TIP3    H131991   3.414   0.878  14.610  0.4396  1.9571  0.3377
 3500TIP3    H231992   3.307   0.935  14.520  0.0418 -0.4437 -0.7603
 3501TIP3   OH231993   1.409   4.727   4.927  0.0008  0.0908 -0.1185
 3501TIP3    H131994   1.441   4.690   5.009 -2.6218  0.0430  0.9319
 3501TIP3    H231995   1.413   4.822   4.940 -0.4273  0.0828  0.0670
 3502TIP3   OH231996   4.907   6.503  13.599 -0.0716  0.0152 -0.7188
 3502TIP3    H131997   4.931   6.489  13.690  2.3598 -1.3239 -1.5204
 3502TIP3    H231998   4.915   6.598  13.586  2.2562 -0.0928 -0.2353
 3503TIP3   OH231999   3.415   4.401   0.605 -0.2595 -0.0156  0.2247
 3503TIP3    H132000   3.451   4.375   0.690  0.8606 -1.5253 -0.6748
 3503TIP3    H232001   3.437   4.494   0.597 -0.9445  0.3038  1.8433
 3504TIP3   OH232002   5.081   5.014  12.081 -0.1511  0.0434 -1.0731
 3504TIP3    H132003   5.095   4.949  12.150 -2.4957  0.6394  0.0283
 3504TIP3    H232004   4.987   5.009  12.062  0.1758  1.0099 -3.1173
 3505TIP3   OH232005   1.799   1.650   4.783  0.0435 -0.1292  0.0511
 3505TIP3    H132006   1.779   1.672   4.874 -0.9535 -0.0451 -0.1881
 3505TIP3    H232007   1.893   1.668   4.775 -0.0903  0.9331  0.7599
 3506TIP3   OH232008   1.507   1.792  15.333 -0.0905  0.1705  0.0498
 3506TIP3    H132009   1.472   1.703  15.322  0.4851 -0.1042  0.4053
 3506TIP3    H232010   1.454   1.830  15.403 -1.1185  0.5254 -0.9009
 3507TIP3   OH232011   2.531   0.040  12.887  0.1847 -0.1212 -0.3576
 3507TIP3    H132012   2.468   0.097  12.843  0.3791  1.4897  1.3903
 3507TIP3    H232013   2.482  -0.002  12.957  1.0373  1.2040  1.0630
 3508TIP3   OH232014   4.623   5.691  16.289  0.8477 -0.3334 -0.2910
 3508TIP3    H132015   4.601   5.648  16.372  1.0223 -0.2100 -0.1793
 3508TIP3    H232016   4.683   5.762  16.314 -0.5957  0.9099 -0.2814
 3509TIP3   OH232017   3.022   2.795  16.093 -0.2537  0.6612 -0.4119
 3509TIP3    H132018   2.961   2.869  16.094 -2.1196 -0.8289  0.3839
 3509TIP3    H232019   2.969   2.721  16.064  0.9250 -0.8829  1.2428
 3510TIP3   OH232020   1.374   1.757   2.024 -0.8285 -0.1656  0.2849
 3510TIP3    H132021   1.456   1.784   1.982 -0.1339 -1.1489  0.9856
 3510TIP3    H232022   1.328   1.709   1.955 -0.6152  0.0167  0.0121
 3511TIP3   OH232023   4.486   5.014  14.915 -0.3784  0.3757 -0.9743
 3511TIP3    H132024   4.444   5.099  14.900  0.3835  0.8952 -0.1487
 3511TIP3    H232025   4.459   4.961  14.840 -1.4642  1.1081 -1.1175
 3512TIP3   OH232026   4.837   1.701   1.133  0.1074 -0.2230  0.1394
 3512TIP3    H132027   4.907   1.721   1.195  1.3486 -0.2194 -1.2174
 3512TIP3    H232028   4.768   1.661   1.185  0.7844  0.5321  1.6386
 3513TIP3   OH232029   2.129   0.814  16.119  0.0381 -0.1649  0.3481
 3513TIP3    H132030   2.107   0.733  16.073 -3.4511  0.5934  0.5388
 3513TIP3    H232031   2.143   0.788  16.210  1.5346 -0.8952 -0.0836
 3514TIP3   OH232032   6.560   1.027   4.878 -0.1309 -0.2263  0.4700
 3514TIP3    H132033   6.632   1.051   4.819 -0.3627 -0.0021  0.2748
 3514TIP3    H232034   6.587   1.061   4.963 -2.3599  4.6477 -0.5849
 3515TIP3   OH232035   1.263   2.957  16.933  0.0996 -0.2856 -0.0026
 3515TIP3    H132036   1.303   2.944  17.019  0.8647 -0.0082 -0.3131
 3515TIP3    H232037   1.266   2.870  16.891  1.6688  0.0198 -0.5661
 3516TIP3   OH232038   2.217   0.727  16.386 -0.3929  0.7366 -0.1218
 3516TIP3    H132039   2.279   0.796  16.363  0.3459  0.1068 -0.0417
 3516TIP3    H232040   2.272   0.658  16.424 -0.8151 -0.9342 -2.4483
 3517TIP3   OH232041   5.428   3.418  14.557 -0.3261 -0.1542 -0.2217
 3517TIP3    H132042   5.483   3.344  14.532 -0.0615  0.4942 -1.6300
 3517TIP3    H232043   5.352   3.378  14.600  2.5681 -0.8991  4.5115
 3518TIP3   OH232044   3.314   5.969  15.580  0.7421 -0.9253 -0.1149
 3518TIP3    H132045   3.381   6.001  15.521 -1.6818 -0.1246 -2.5510
 3518TIP3    H232046   3.271   5.898  15.533 -3.2343  1.6905 -0.7529
 3519TIP3   OH232047   0.236   3.908  13.101  0.5335 -0.8325 -0.0112
 3519TIP3    H132048   0.306   3.913  13.167  1.2177  0.6926 -0.8307
 3519TIP3    H232049   0.203   3.998  13.094 -1.2567 -1.4660  0.0763
 3520TIP3   OH232050   5.547   4.960   5.370 -0.1862 -0.5159  0.0132
 3520TIP3    H132051   5.529   5.046   5.330 -1.9350 -0.6804  0.3764
 3520TIP3    H232052   5.541   4.976   5.464 -2.2751 -1.3563  0.0562
 3521TIP3   OH232053   5.743   1.869   2.514 -0.3145 -0.3777 -0.4201
 3521TIP3    H132054   5.817   1.930   2.516  1.6105 -2.6056 -0.4814
 3521TIP3    H232055   5.784   1.784   2.496 -2.8008 -1.8379  0.6676
 3522TIP3   OH232056   4.454   6.808   0.170  0.3780  0.6512 -0.1438
 3522TIP3    H132057   4.443   6.741   0.238 -0.5116 -0.4235 -1.3034
 3522TIP3    H232058   4.365   6.825   0.139  0.6086  2.3632  0.1126
 3523TIP3   OH232059   0.962   6.218  14.557 -0.5805 -0.3549  0.1467
 3523TIP3    H132060   0.877   6.245  14.591 -0.7262  0.9094 -1.1856
 3523TIP3    H232061   1.025   6.278  14.598 -0.8004  1.4491 -2.0463
 3524TIP3   OH232062   1.947   6.432   4.730  0.4920  0.8434 -0.3414
 3524TIP3    H132063   1.866   6.408   4.776  1.1546  0.2666  0.5388
 3524TIP3    H232064   1.926   6.514   4.687 -0.4737  0.8643  0.1466
 3525TIP3   OH232065   4.019   1.702   0.002 -0.0132 -0.1532  0.1618
 3525TIP3    H132066   4.072   1.632   0.040  1.0672  1.1370  1.0842
 3525TIP3    H232067   4.002   1.674  -0.088  1.7602 -0.8646  0.0304
 3526TIP3   OH232068   5.393   3.329  11.571 -0.2693  0.0142  0.1482
 3526TIP3    H132069   5.370   3.236  11.571 -0.5053  0.0708 -0.4465
 3526TIP3    H232070   5.399   3.353  11.479  2.3578 -0.0279  0.2815
 3527TIP3   OH232071   5.127   0.805  12.436 -0.2926 -0.0006 -0.1822
 3527TIP3    H132072   5.158   0.859  12.509  1.5106 -0.1911 -0.7766
 3527TIP3    H232073   5.108   0.720  12.476  0.4798 -0.0410  0.1107
 3528TIP3   OH232074   3.368   2.559  14.325 -0.2537 -0.6554  0.0251
 3528TIP3    H132075   3.407   2.646  14.322 -0.1692 -0.6913  0.0808
 3528TIP3    H232076   3.373   2.527  14.235 -2.3307  0.3035 -0.4564
 3529TIP3   OH232077   5.804   6.566  16.119  0.1239  0.4852  0.2987
 3529TIP3    H132078   5.847   6.624  16.182  0.7851  0.9374 -0.5554
 3529TIP3    H232079   5.875   6.512  16.084 -0.0078  1.1921 -1.0791
 3530TIP3   OH232080   5.383   2.464  12.169 -0.2369 -0.0225  0.1819
 3530TIP3    H132081   5.473   2.439  12.145 -0.8930 -1.1275 -1.1996
 3530TIP3    H232082   5.339   2.381  12.184 -1.5367  0.4382 -1.0102
 3531TIP3   OH232083   4.824   3.845   0.467  0.6797 -0.4008 -0.6499
 3531TIP3    H132084   4.918   3.827   0.456  0.8278 -0.9906  1.4515
 3531TIP3    H232085   4.818   3.940   0.474  0.8801 -0.2021 -2.7119
 3532TIP3   OH232086   1.222   3.435  12.084 -0.0806 -0.4084 -0.1537
 3532TIP3    H132087   1.313   3.419  12.060  0.0076 -0.7409  0.3971
 3532TIP3    H232088   1.221   3.526  12.115  0.1228 -0.5083  0.1408
 3533TIP3   OH232089   3.327   0.115  11.928 -0.3951 -0.4710 -0.2297
 3533TIP3    H132090   3.276   0.128  12.008 -1.1506 -1.4928 -0.5413
 3533TIP3    H232091   3.416   0.097  11.958 -0.4321  0.2649  0.3420
 3534TIP3   OH232092   1.388   6.562  11.423 -0.5844 -0.3389  0.2736
 3534TIP3    H132093   1.396   6.566  11.328 -1.7956  2.0441  0.2377
 3534TIP3    H232094   1.341   6.643  11.447  1.1711 -0.0833  3.0465
 3535TIP3   OH232095   1.545   1.821   3.183 -0.0110 -0.8440 -0.0914
 3535TIP3    H132096   1.593   1.859   3.110 -2.0661 -0.3379 -1.2086
 3535TIP3    H232097   1.583   1.734   3.194  1.2435 -0.3965 -0.8515
 3536TIP3   OH232098   3.330   5.210  13.986 -0.0309 -0.2019 -1.0202
 3536TIP3    H132099   3.281   5.133  14.014 -1.7260  0.0477 -3.1937
 3536TIP3    H232100   3.384   5.179  13.912  0.1211  0.4378 -1.1827
 3537TIP3   OH232101   1.504   0.245  12.638 -0.0763  0.2854 -0.3350
 3537TIP3    H132102   1.498   0.297  12.558 -2.1842  0.7499  0.0907
 3537TIP3    H232103   1.461   0.162  12.616  1.0049 -0.3181 -0.2323
 3538TIP3   OH232104   4.675   6.015   0.051 -0.4356 -0.0461 -0.3415
 3538TIP3    H132105   4.667   6.093   0.106  0.4207  0.1684 -0.5081
 3538TIP3    H232106   4.756   5.973   0.081 -0.2803 -0.2442 -1.0350
 3539TIP3   OH232107   2.659   2.234   1.622  0.2060  0.2065 -0.4668
 3539TIP3    H132108   2.673   2.293   1.548  0.3986 -0.6797 -1.1474
 3539TIP3    H232109   2.594   2.171   1.590  0.1622 -0.0759  0.1807
 3540TIP3   OH232110   1.843   2.694   1.443  0.0695  0.4738  0.5028
 3540TIP3    H132111   1.924   2.677   1.492  0.5711  0.7805 -0.2076
 3540TIP3    H232112   1.860   2.776   1.397 -0.6340  0.5105  0.3050
 3541TIP3   OH232113   5.297   4.808   0.712  0.1035 -0.1907 -0.2241
 3541TIP3    H132114   5.228   4.806   0.645  0.1685  0.0816 -0.3009
 3541TIP3    H232115   5.318   4.716   0.727 -0.9532 -0.3259  0.4976
 3542TIP3   OH232116   4.062   0.373   5.844  0.6075 -0.1850  0.0225
 3542TIP3    H132117   4.041   0.321   5.767 -0.0936 -0.1800  0.2077
 3542TIP3    H232118   4.061   0.463   5.813  2.1761 -0.2947 -0.3789
 3543TIP3   OH232119   2.018   4.722   2.701 -0.3215 -0.3431  0.0137
 3543TIP3    H132120   1.971   4.687   2.777 -1.5543  0.6379 -0.2693
 3543TIP3    H232121   2.068   4.648   2.667 -0.6445 -1.0781  1.1106
 3544TIP3   OH232122   0.435   2.172   2.416  0.3594  0.9775 -0.1868
 3544TIP3    H132123   0.392   2.258   2.410  0.7869  1.3606  1.9942
 3544TIP3    H232124   0.524   2.188   2.386  0.8398  1.6135  1.5465
 3545TIP3   OH232125   2.361   1.229   3.850 -0.0028 -0.2296  0.0202
 3545TIP3    H132126   2.302   1.153   3.846 -0.1253 -0.1506  0.2871
 3545TIP3    H232127   2.409   1.217   3.932 -0.0780  0.0211  0.1016
 3546TIP3   OH232128   0.631   5.074  13.765 -0.0165  0.4975 -0.1319
 3546TIP3    H132129   0.592   5.073  13.678  0.0039 -2.7293 -0.1759
 3546TIP3    H232130   0.722   5.099  13.750 -0.3377  1.2030 -0.8911
 3547TIP3   OH232131   3.991   6.198  11.207 -0.4030  0.5227 -0.5899
 3547TIP3    H132132   4.018   6.288  11.191 -0.9320  1.1153  1.6729
 3547TIP3    H232133   3.954   6.168  11.124  1.1183  1.8872 -1.7741
 3548TIP3   OH232134   5.809   2.253  15.648  0.4306 -0.0683 -0.5113
 3548TIP3    H132135   5.807   2.241  15.743  2.8146  0.4217 -0.3725
 3548TIP3    H232136   5.872   2.189  15.617  0.9766  0.9609 -1.5588
 3549TIP3   OH232137   5.086   1.676   3.124  0.0550 -0.7373  0.0277
 3549TIP3    H132138   5.148   1.749   3.112 -1.9013  0.9570 -0.0689
 3549TIP3    H232139   5.090   1.627   3.042  1.0918 -0.5154 -0.0600
 3550TIP3   OH232140   1.925   3.611   5.706 -0.3131 -0.3133  0.5871
 3550TIP3    H132141   1.839   3.580   5.676 -0.2828  0.0294  0.1413
 3550TIP3    H232142   1.928   3.703   5.681 -0.1417 -0.1126  1.3370
 3551TIP3   OH232143   2.166   3.725  11.287 -0.4924  0.5037 -0.5984
 3551TIP3    H132144   2.157   3.721  11.191  0.4999  2.5527 -0.8015
 3551TIP3    H232145   2.082   3.761  11.317 -1.0673 -0.7874 -0.6192
 3552TIP3   OH232146   0.816   3.195   4.425  0.2681  0.6135 -0.0268
 3552TIP3    H132147   0.750   3.263   4.438 -0.8594 -0.5040  0.1585
 3552TIP3    H232148   0.897   3.233   4.460 -0.6545  1.3139  1.3675
 3553TIP3   OH232149   1.906   4.236  13.693 -0.0493 -0.2573  0.8023
 3553TIP3    H132150   1.970   4.253  13.624 -1.0922 -1.7489 -0.5701
 3553TIP3    H232151   1.883   4.143  13.682  1.2152 -1.0904  4.3867
 3554TIP3   OH232152   3.610   5.972   5.145  0.4355 -0.5100  0.1043
 3554TIP3    H132153   3.659   5.890   5.151 -0.3057 -0.9028  0.9728
 3554TIP3    H232154   3.643   6.025   5.217  0.0578 -0.5281  0.2952
 3555TIP3   OH232155   0.567   0.566  15.763  0.0604 -0.6980  0.0674
 3555TIP3    H132156   0.564   0.610  15.678 -1.5516 -1.0520 -0.0647
 3555TIP3    H232157   0.661   0.553  15.780  0.3830 -0.8798 -1.7766
 3556TIP3   OH232158   0.672   1.941  15.936  0.0528 -0.1002 -0.5034
 3556TIP3    H132159   0.692   1.910  15.848 -0.6253 -0.2911 -0.5938
 3556TIP3    H232160   0.611   2.014  15.922  0.7797  0.5593 -0.2436
 3557TIP3   OH232161   1.735   5.426  11.674 -0.3548  0.4881 -0.2283
 3557TIP3    H132162   1.726   5.331  11.685 -1.3927  0.4303 -1.5098
 3557TIP3    H232163   1.801   5.451  11.740 -0.9868 -0.9224  0.9829
 3558TIP3   OH232164   3.726   2.017   0.814  0.1829  0.2266 -0.4233
 3558TIP3    H132165   3.638   1.983   0.797 -0.4066  0.3651  2.1805
 3558TIP3    H232166   3.727   2.103   0.771 -0.4463 -0.3497 -1.6433
 3559TIP3   OH232167   5.323   4.362  10.516  0.1293 -0.0907  0.1805
 3559TIP3    H132168   5.316   4.421  10.441 -1.3452  1.1998  1.2979
 3559TIP3    H232169   5.313   4.275  10.479  0.4028  0.4632 -1.2448
 3560TIP3   OH232170   3.696   0.850  14.442 -0.0433 -0.2789 -0.1684
 3560TIP3    H132171   3.679   0.868  14.535  0.6841 -0.3733 -0.0100
 3560TIP3    H232172   3.753   0.922  14.414  0.5164 -0.7571 -0.2862
 3561TIP3   OH232173   2.823   0.111  14.186 -0.2795 -0.0334 -0.0696
 3561TIP3    H132174   2.729   0.104  14.168  0.0534 -0.0060 -1.8480
 3561TIP3    H232175   2.830   0.186  14.246 -1.3360  0.2364 -0.2733
 3562TIP3   OH232176   3.214   1.852  16.168 -0.8723  0.0258  1.0720
 3562TIP3    H132177   3.158   1.871  16.093  0.5048 -1.4866 -0.3887
 3562TIP3    H232178   3.267   1.930  16.180 -1.1734  0.3078  0.5438
 3563TIP3   OH232179   5.581   3.044  14.087  1.1507 -0.3607 -0.0621
 3563TIP3    H132180   5.538   3.127  14.108  2.4693  0.9573 -2.3823
 3563TIP3    H232181   5.541   2.981  14.147  0.0430  1.9137  1.6675
 3564TIP3   OH232182   5.295   1.182   1.124 -0.1674  0.3294 -0.0589
 3564TIP3    H132183   5.309   1.111   1.060  1.1287  0.8335 -0.3542
 3564TIP3    H232184   5.267   1.137   1.204 -2.3455 -0.2776 -1.1077
 3565TIP3   OH232185   2.497   4.003  13.764  0.1984  0.0572 -0.6669
 3565TIP3    H132186   2.518   4.094  13.787  0.2310  0.2028 -1.2741
 3565TIP3    H232187   2.495   4.002  13.669 -2.0007 -0.0829 -0.6520
 3566TIP3   OH232188   1.508   4.875   5.860 -0.0956  0.1417 -0.1681
 3566TIP3    H132189   1.558   4.861   5.779  2.3409 -0.7886  1.4708
 3566TIP3    H232190   1.525   4.797   5.913 -2.6964  0.1605  0.7584
 3567TIP3   OH232191   4.422   4.965   1.733  0.3414 -0.3690 -0.2942
 3567TIP3    H132192   4.490   5.013   1.780  0.8171 -0.4980 -0.8396
 3567TIP3    H232193   4.364   5.033   1.699  0.0339 -0.2758  0.4256
 3568TIP3   OH232194   4.822   5.746   1.771 -0.1000  0.4399  0.0043
 3568TIP3    H132195   4.869   5.718   1.850  0.1801 -2.1647 -1.0234
 3568TIP3    H232196   4.738   5.778   1.803  0.6622  1.0070  1.4931
 3569TIP3   OH232197   5.476   1.111   2.378 -0.3993 -0.2248 -0.0955
 3569TIP3    H132198   5.398   1.141   2.424  0.0558 -0.9665  1.1799
 3569TIP3    H232199   5.504   1.187   2.326 -0.5222  0.8451  1.3874
 3570TIP3   OH232200   6.137   3.248   2.929  0.3143  0.1457  0.2053
 3570TIP3    H132201   6.141   3.240   3.024  0.0149 -0.3818  0.1709
 3570TIP3    H232202   6.066   3.190   2.902  2.3241 -2.0073 -0.6110
 3571TIP3   OH232203   6.715   1.898  15.661  0.0345  0.3814  0.3771
 3571TIP3    H132204   6.781   1.947  15.612  2.0483 -3.1571 -0.5849
 3571TIP3    H232205   6.748   1.897  15.751 -0.2812  1.1789  0.5108
 3572TIP3   OH232206   3.114   0.260   2.543  0.3668  0.9567  0.1933
 3572TIP3    H132207   3.112   0.282   2.450  1.6712  1.3900  0.2573
 3572TIP3    H232208   3.205   0.239   2.561 -0.1654 -0.7784  1.0099
 3573TIP3   OH232209   1.114   6.344  11.772  0.3174 -0.5192 -0.1857
 3573TIP3    H132210   1.072   6.263  11.745  0.5652 -0.1606 -1.7409
 3573TIP3    H232211   1.187   6.354  11.710 -1.0758  2.0512 -1.4873
 3574TIP3   OH232212   2.158   3.421  16.825  0.4237 -0.5272 -0.0603
 3574TIP3    H132213   2.103   3.368  16.767 -0.1587 -2.3180  2.0917
 3574TIP3    H232214   2.209   3.357  16.874  1.2383  0.9881  1.0794
 3575TIP3   OH232215   1.107   5.429   6.045 -0.1102 -0.2568 -0.0330
 3575TIP3    H132216   1.160   5.500   6.010  0.0816  0.5806  1.8870
 3575TIP3    H232217   1.166   5.381   6.103 -0.4587 -1.5205 -0.6993
 3576TIP3   OH232218   3.812   0.747   4.871 -0.1680 -0.2798 -0.1773
 3576TIP3    H132219   3.832   0.820   4.813 -1.3500 -0.6850 -1.1062
 3576TIP3    H232220   3.717   0.738   4.867 -0.1509 -1.0736  0.9037
 3577TIP3   OH232221   0.464   1.626  14.552 -0.1006  0.6605 -0.2156
 3577TIP3    H132222   0.448   1.692  14.484  0.6323  1.3680  0.2907
 3577TIP3    H232223   0.542   1.579  14.521 -1.3552 -0.8129 -1.2012
 3578TIP3   OH232224   3.170   2.738   4.614 -0.6667  0.7289  0.1791
 3578TIP3    H132225   3.109   2.664   4.609 -1.8534  1.8122 -1.5501
 3578TIP3    H232226   3.166   2.766   4.705 -1.9338  0.1177  0.3186
 3579TIP3   OH232227   3.986   2.493   2.592 -0.7303 -0.2965  0.0387
 3579TIP3    H132228   4.001   2.564   2.529 -0.7220 -0.5899 -0.2907
 3579TIP3    H232229   3.918   2.439   2.551 -1.1865 -0.1259  0.5759
 3580TIP3   OH232230   6.679   2.499  15.736  0.3355 -0.0020  0.2517
 3580TIP3    H132231   6.712   2.410  15.748 -0.3550 -0.1920  0.7797
 3580TIP3    H232232   6.699   2.544  15.818  1.3231  0.5426 -0.2753
 3581TIP3   OH232233   4.351   1.669  10.935 -0.1538 -0.3223 -0.4052
 3581TIP3    H132234   4.306   1.753  10.929  1.5341  0.7596  1.4379
 3581TIP3    H232235   4.282   1.603  10.926 -2.0141  1.2677  1.8382
 3582TIP3   OH232236   1.889   6.357   0.068  0.0933  0.4532  0.2722
 3582TIP3    H132237   1.858   6.327  -0.017 -0.9516  2.7421 -0.1797
 3582TIP3    H232238   1.976   6.393   0.051 -0.5176  1.8089 -0.0204
 3583TIP3   OH232239   1.414   0.774  10.271 -1.1046  0.0432 -0.7410
 3583TIP3    H132240   1.463   0.854  10.290  1.6895 -1.5106 -1.2216
 3583TIP3    H232241   1.330   0.805  10.238  0.4777  2.7952 -2.3423
 3584TIP3   OH232242   6.382   3.140  13.258  0.0778  0.1077  0.3740
 3584TIP3    H132243   6.420   3.057  13.229 -1.5380 -0.8266  0.8467
 3584TIP3    H232244   6.384   3.136  13.353 -1.9055 -0.3466  0.4351
 3585TIP3   OH232245   1.610   4.621   3.300 -0.1795  0.6080  0.5352
 3585TIP3    H132246   1.566   4.621   3.385  0.6441 -2.1554  1.0277
 3585TIP3    H232247   1.699   4.647   3.319 -0.2613  1.0156  0.3589
 3586TIP3   OH232248   5.483   3.792   0.025  0.2657 -0.1935 -0.3476
 3586TIP3    H132249   5.511   3.706  -0.006  1.3979  0.1971 -0.4521
 3586TIP3    H232250   5.444   3.775   0.111 -0.1294 -0.8884 -0.6579
 3587TIP3   OH232251   5.981   2.629   4.010  0.1808 -0.5794  0.1103
 3587TIP3    H132252   6.044   2.561   4.033  0.2923  0.1745  2.1671
 3587TIP3    H232253   5.920   2.631   4.084  0.2390  1.5910  0.1342
 3588TIP3   OH232254   0.711   4.030   3.235 -0.3507  0.2135  0.0458
 3588TIP3    H132255   0.719   4.118   3.197 -1.9765  0.0340 -0.7316
 3588TIP3    H232256   0.674   3.976   3.165  0.4412 -1.0556  0.5837
 3589TIP3   OH232257   3.214   6.614  16.808 -0.5908 -0.1463  0.7543
 3589TIP3    H132258   3.132   6.567  16.821  0.9919 -2.6504  2.0434
 3589TIP3    H232259   3.282   6.556  16.843  1.4903  3.0331  2.3088
 3590TIP3   OH232260   3.549   4.267   5.186  0.1091 -0.4347  0.1120
 3590TIP3    H132261   3.591   4.254   5.101 -1.4426  1.7688 -1.0371
 3590TIP3    H232262   3.472   4.210   5.184  0.8087 -1.4146  0.6081
 3591TIP3   OH232263   2.890   0.264  16.270 -0.2947 -0.4277 -0.2331
 3591TIP3    H132264   2.978   0.302  16.271 -0.5181  0.0744  0.5008
 3591TIP3    H232265   2.870   0.254  16.177  0.4630 -0.3598 -0.4079
 3592TIP3   OH232266   6.429   1.199  11.159 -0.1646  0.1881 -0.1538
 3592TIP3    H132267   6.504   1.221  11.104 -2.1465  1.4653 -2.4492
 3592TIP3    H232268   6.375   1.142  11.104 -1.1423 -0.2660  1.2556
 3593TIP3   OH232269   4.405   4.982   1.021 -0.4650  0.1012  0.7032
 3593TIP3    H132270   4.314   4.955   1.031 -0.4015  0.3426  1.9580
 3593TIP3    H232271   4.451   4.902   0.995 -0.7421 -0.4100  1.7540
 3594TIP3   OH232272   4.614   5.203   5.326  0.1758 -0.5020 -0.0655
 3594TIP3    H132273   4.639   5.123   5.280  1.2405 -0.9458  1.2753
 3594TIP3    H232274   4.696   5.248   5.342 -0.2582 -0.0180  0.8159
 3595TIP3   OH232275   2.308   5.935   0.261  0.1194 -0.5452 -0.6175
 3595TIP3    H132276   2.252   5.977   0.196 -3.4377 -1.6850  1.5929
 3595TIP3    H232277   2.318   5.845   0.230 -0.8714 -0.8568 -0.0465
 3596TIP3   OH232278   0.354   6.652  16.312  0.9000  0.3166  0.0164
 3596TIP3    H132279   0.318   6.578  16.264 -0.6957  0.4604  0.9233
 3596TIP3    H232280   0.348   6.726  16.251 -2.7868  0.9042  0.9239
 3597TIP3   OH232281   5.198   0.263  16.147  0.1344  0.7258  0.1646
 3597TIP3    H132282   5.192   0.292  16.056 -2.6797  0.3195  0.1488
 3597TIP3    H232283   5.290   0.241  16.160  0.4480  0.0564 -2.8317
 3598TIP3   OH232284   2.554   4.536  11.391 -0.0572  0.5553  0.3343
 3598TIP3    H132285   2.601   4.618  11.377 -3.2371  2.6428  1.2383
 3598TIP3    H232286   2.544   4.530  11.486  1.3939 -1.6718  0.3819
 3599TIP3   OH232287   0.149   4.053  16.813  0.0321  0.6828 -0.0347
 3599TIP3    H132288   0.207   4.129  16.815  2.8537 -1.3107 -2.5172
 3599TIP3    H232289   0.101   4.062  16.730 -0.3683  0.2644  0.1469
 3600TIP3   OH232290   4.614   3.786  15.051 -0.0228 -0.6902  0.7359
 3600TIP3    H132291   4.641   3.710  15.000  0.4966 -0.5345  0.7686
 3600TIP3    H232292   4.580   3.749  15.133 -3.3041 -1.0708 -0.7529
 3601TIP3   OH232293   2.776   3.119  12.020  0.1578 -0.3749 -0.0712
 3601TIP3    H132294   2.761   3.158  11.934  0.1075  1.0424  0.5706
 3601TIP3    H232295   2.702   3.059  12.031  1.2350 -2.0875 -1.8552
 3602TIP3   OH232296   4.581   4.837  13.470  0.5340  0.3345 -0.3194
 3602TIP3    H132297   4.622   4.809  13.552  1.3904  0.5091 -0.6862
 3602TIP3    H232298   4.614   4.775  13.404 -1.7373 -1.0688 -0.1855
 3603TIP3   OH232299   0.630   4.219  12.565 -0.0333 -0.4237  0.3478
 3603TIP3    H132300   0.725   4.208  12.570  0.0145  0.0781  0.5373
 3603TIP3    H232301   0.602   4.223  12.657 -0.1410  0.3019  0.2793
 3604TIP3   OH232302   1.490   6.170  12.272  0.3784  0.0832  0.1087
 3604TIP3    H132303   1.422   6.194  12.336  0.4251  0.0868  0.1564
 3604TIP3    H232304   1.514   6.080  12.296  0.6913  0.2305  0.3540
 3605TIP3   OH232305   3.280   6.227   2.992  0.0472 -0.5235  0.2490
 3605TIP3    H132306   3.231   6.208   2.912  0.2676  0.1471 -0.0437
 3605TIP3    H232307   3.310   6.141   3.022  1.1868 -0.6491 -1.1664
 3606TIP3   OH232308   1.008   6.520   4.337  0.4792 -0.5548  0.0031
 3606TIP3    H132309   0.997   6.432   4.374 -1.5413 -0.1438  0.4100
 3606TIP3    H232310   1.081   6.557   4.386 -0.4951 -0.9725  1.8065
 3607TIP3   OH232311   5.055   5.782   4.563 -0.5638  0.2362  0.3840
 3607TIP3    H132312   4.968   5.818   4.552 -0.4475  0.3121 -0.3456
 3607TIP3    H232313   5.109   5.830   4.500  0.2554  1.0338  1.6805
 3608TIP3   OH232314   1.326   0.400  11.929  0.0326 -0.0001 -0.4532
 3608TIP3    H132315   1.415   0.395  11.895  0.4017  0.8089  0.3355
 3608TIP3    H232316   1.333   0.369  12.020 -0.5680 -0.3496 -0.5224
 3609TIP3   OH232317   5.967   1.147   6.257  0.1003  0.1932  0.5651
 3609TIP3    H132318   5.896   1.139   6.321  0.4553  0.0989  0.9510
 3609TIP3    H232319   6.021   1.069   6.271  0.3957  0.3694  0.4146
 3610TIP3   OH232320   5.295   2.051   1.275 -0.3305 -0.4974 -0.0934
 3610TIP3    H132321   5.202   2.029   1.281 -0.0585 -1.7336 -0.2896
 3610TIP3    H232322   5.339   1.968   1.257  0.6872  0.2761 -1.3330
 3611TIP3   OH232323   6.404   2.652  15.250 -0.6481  0.0418  0.1640
 3611TIP3    H132324   6.369   2.709  15.319 -0.5431 -0.3771  0.5578
 3611TIP3    H232325   6.414   2.567  15.291 -0.0383 -0.0681 -0.2088
 3612TIP3   OH232326   6.693   0.391   0.825 -0.0853 -0.3052  0.3897
 3612TIP3    H132327   6.709   0.313   0.773 -0.3268  0.2635 -0.5579
 3612TIP3    H232328   6.771   0.401   0.880 -0.4726 -1.7452  1.2201
 3613TIP3   OH232329   6.225   6.131   2.626  0.0919 -0.5757  0.1513
 3613TIP3    H132330   6.232   6.103   2.534  1.2221  1.6708 -0.4796
 3613TIP3    H232331   6.193   6.221   2.620  0.8581 -0.1792  1.9505
 3614TIP3   OH232332   0.589   5.784  14.943  0.1992  0.3005  0.1745
 3614TIP3    H132333   0.613   5.817  15.029 -0.4857 -1.7121  1.1801
 3614TIP3    H232334   0.494   5.789  14.940 -0.0514 -2.6970  0.9019
 3615TIP3   OH232335   6.166   6.757   1.098  0.2896  0.0955  0.0493
 3615TIP3    H132336   6.224   6.825   1.132  0.8921 -1.2011  1.7045
 3615TIP3    H232337   6.152   6.781   1.006  1.9388  1.4459  0.1167
 3616TIP3   OH232338   3.869   6.119  13.944  0.2385  0.0839  0.2574
 3616TIP3    H132339   3.902   6.193  13.995 -0.9287  0.7839  0.0179
 3616TIP3    H232340   3.777   6.113  13.967  0.4330 -1.6578  0.6871
 3617TIP3   OH232341   3.193   0.942  16.119  0.4313 -0.8502 -0.1485
 3617TIP3    H132342   3.130   1.009  16.091  0.8816 -1.2251 -2.0959
 3617TIP3    H232343   3.179   0.935  16.214  0.0804  1.6835  0.0319
 3618TIP3   OH232344   1.869   4.500  12.391  0.0734 -0.2805  0.7953
 3618TIP3    H132345   1.783   4.474  12.424 -0.1571 -0.5805 -0.0331
 3618TIP3    H232346   1.931   4.443  12.437 -0.3600 -1.7146 -0.3920
 3619TIP3   OH232347   5.293   5.670   5.255 -0.2772 -0.2030 -0.2228
 3619TIP3    H132348   5.220   5.729   5.271 -0.2758 -0.2929  0.1220
 3619TIP3    H232349   5.335   5.704   5.176 -1.7600 -1.1781 -1.4590
 3620TIP3   OH232350   3.433   2.497   4.353  0.8127  0.1235  0.7662
 3620TIP3    H132351   3.461   2.427   4.294 -1.4583  0.8157 -1.2028
 3620TIP3    H232352   3.498   2.566   4.340  1.2504 -0.3705  0.2808
 3621TIP3   OH232353   6.219   5.118   2.767 -0.3385  0.7654  0.6301
 3621TIP3    H132354   6.168   5.134   2.846 -0.5136 -0.1572  0.7179
 3621TIP3    H232355   6.158   5.073   2.708 -0.1109  1.1420  0.1066
 3622TIP3   OH232356   0.209   1.046   1.745  0.0071  0.3129  0.1954
 3622TIP3    H132357   0.119   1.062   1.774  0.5850  2.3791  0.9275
 3622TIP3    H232358   0.262   1.054   1.824  0.9855  0.3598 -0.4523
 3623TIP3   OH232359   1.443   6.641  15.071 -0.1075  0.8301 -0.1810
 3623TIP3    H132360   1.465   6.698  14.997  1.0794  0.1661 -0.3645
 3623TIP3    H232361   1.523   6.590  15.085 -0.7823  0.0092  0.6971
 3624TIP3   OH232362   6.783   3.476  13.598 -0.1628 -0.3712  0.1184
 3624TIP3    H132363   6.807   3.443  13.511  2.2912  1.6805 -0.0440
 3624TIP3    H232364   6.850   3.441  13.656  0.3100  1.1808  0.5430
 3625TIP3   OH232365   2.166   1.160  11.183 -0.0323 -0.5496 -0.0776
 3625TIP3    H132366   2.114   1.128  11.109 -1.7321  2.1794 -0.1586
 3625TIP3    H232367   2.227   1.223  11.144 -0.0254 -0.0852  0.6744
 3626TIP3   OH232368   5.354   3.545  12.689  0.5382 -0.5322  0.8154
 3626TIP3    H132369   5.437   3.512  12.656  0.5028  1.3939 -1.3120
 3626TIP3    H232370   5.291   3.476  12.668  0.6999  0.2421 -2.3616
 3627TIP3   OH232371   1.094   2.661  15.092  0.0335 -0.0089 -0.1622
 3627TIP3    H132372   1.133   2.735  15.138 -2.7327  1.3047  0.1519
 3627TIP3    H232373   1.140   2.659  15.007  2.5374 -0.1307  1.1465
 3628TIP3   OH232374   4.434   5.151   3.815  0.1004  0.8223  0.5019
 3628TIP3    H132375   4.411   5.126   3.905 -1.1182 -0.8625 -0.2576
 3628TIP3    H232376   4.509   5.096   3.794 -0.6747 -0.0062 -0.1056
 3629TIP3   OH232377   3.649   5.019  15.275  0.4041 -0.0547 -0.7074
 3629TIP3    H132378   3.740   4.990  15.272  0.7739  1.0003 -0.0303
 3629TIP3    H232379   3.598   4.939  15.266  1.3984 -0.6298 -1.3031
 3630TIP3   OH232380   3.469   3.417  14.637  0.6216  0.2558 -0.0379
 3630TIP3    H132381   3.455   3.501  14.679  0.7851 -0.2002  0.9434
 3630TIP3    H232382   3.563   3.416  14.616  0.0692  1.5549 -2.7902
 3631TIP3   OH232383   2.455   2.861   3.527 -0.1591 -0.0913  0.1955
 3631TIP3    H132384   2.388   2.922   3.559  0.4700  1.2778 -1.0664
 3631TIP3    H232385   2.538   2.902   3.549  0.2833  0.2671 -1.9942
 3632TIP3   OH232386   5.568   5.663   3.605  0.1181 -0.3851  0.1501
 3632TIP3    H132387   5.479   5.631   3.623 -0.2266  0.5487  0.1430
 3632TIP3    H232388   5.566   5.689   3.513  1.1177 -2.6803 -0.5411
 3633TIP3   OH232389   3.018   2.279  11.674 -0.1776 -0.0823 -0.2513
 3633TIP3    H132390   3.027   2.185  11.654  1.0355  0.2637 -1.3592
 3633TIP3    H232391   2.990   2.280  11.766  1.1267 -1.5106  0.1982
 3634TIP3   OH232392   6.092   4.618  12.409  0.2029 -0.4393 -0.1695
 3634TIP3    H132393   6.026   4.550  12.426  1.1289 -0.8661  1.8307
 3634TIP3    H232394   6.172   4.585  12.450 -0.0422  3.1738  3.4852
 3635TIP3   OH232395   2.674   1.764   0.650  0.0319  0.2351 -0.0872
 3635TIP3    H132396   2.762   1.775   0.687  0.1078 -0.3376 -0.0873
 3635TIP3    H232397   2.622   1.834   0.689 -0.3825 -1.5509  2.6802
 3636TIP3   OH232398   5.462   0.497  15.442 -0.4255 -0.1378 -0.3837
 3636TIP3    H132399   5.478   0.578  15.395  0.4427 -0.3342 -0.4259
 3636TIP3    H232400   5.380   0.464  15.405 -0.9860  0.9072 -0.1008
 3637TIP3   OH232401   1.772   5.519  15.233 -0.2366 -0.4288 -0.1346
 3637TIP3    H132402   1.729   5.550  15.153 -0.0504  1.1290  0.3487
 3637TIP3    H232403   1.847   5.578  15.244  1.4299 -2.4720 -0.4113
 3638TIP3   OH232404   3.597   6.316   1.252 -0.2481  0.4699  0.4516
 3638TIP3    H132405   3.653   6.241   1.272  0.0416  0.7134  0.5576
 3638TIP3    H232406   3.592   6.365   1.334 -1.5359 -0.1441  0.7559
 3639TIP3   OH232407   5.014   5.226   4.281  0.7591  0.6237  0.2088
 3639TIP3    H132408   5.032   5.308   4.235  0.6503  0.5391  0.0105
 3639TIP3    H232409   4.930   5.197   4.246 -0.2279  1.5111  1.8479
 3640TIP3   OH232410   2.156   5.110   4.228  0.1304  0.5714  0.8460
 3640TIP3    H132411   2.090   5.053   4.267  0.8153  0.6136  2.0752
 3640TIP3    H232412   2.174   5.069   4.143 -0.1097 -0.4871  1.2883
 3641TIP3   OH232413   3.458   3.360  11.165  0.6693  0.2585 -0.3760
 3641TIP3    H132414   3.377   3.380  11.117  1.0296 -2.9266 -2.4654
 3641TIP3    H232415   3.429   3.344  11.254 -0.7867  0.8557 -0.7229
 3642TIP3   OH232416   1.081   2.420   4.042 -0.0046 -0.7483 -0.0050
 3642TIP3    H132417   1.093   2.443   4.135 -1.5165 -0.2213  0.0833
 3642TIP3    H232418   1.044   2.499   4.003 -2.1216 -1.9023 -0.4253
 3643TIP3   OH232419   1.333   4.530  13.569 -0.3448  0.7457  0.0804
 3643TIP3    H132420   1.274   4.482  13.626 -0.4237  1.2473  0.4227
 3643TIP3    H232421   1.372   4.597  13.625 -0.3589  1.1864 -0.4263
 3644TIP3   OH232422   2.784   4.884  13.424 -0.0475  0.2903  0.1069
 3644TIP3    H132423   2.722   4.813  13.442 -1.4023  1.5959  0.6197
 3644TIP3    H232424   2.738   4.942  13.363  0.4519  1.5549  0.9132
 3645TIP3   OH232425   3.111   6.243   1.128 -0.7503  0.2724 -0.3585
 3645TIP3    H132426   3.083   6.321   1.174 -1.4252  0.3506 -0.9060
 3645TIP3    H232427   3.108   6.174   1.194 -1.0404  0.5215 -0.1138
 3646TIP3   OH232428   0.224   5.515   1.393  0.8079 -0.0600 -0.6406
 3646TIP3    H132429   0.189   5.426   1.385 -0.0568  0.2101  0.1015
 3646TIP3    H232430   0.170   5.568   1.334  1.9047 -0.1821 -1.7741
 3647TIP3   OH232431   6.512   1.703  12.334 -0.0424 -0.5648 -0.2507
 3647TIP3    H132432   6.557   1.735  12.412  0.6434 -0.1018 -0.8380
 3647TIP3    H232433   6.459   1.629  12.366 -1.7324  1.1861  1.1178
 3648TIP3   OH232434   3.993   4.107   5.902  0.5615 -0.4534  0.1132
 3648TIP3    H132435   3.986   4.016   5.874  1.1930 -0.2427 -0.7526
 3648TIP3    H232436   4.055   4.146   5.841 -0.4030  0.7843 -0.0985
 3649TIP3   OH232437   2.751   4.238   0.222 -0.2095  0.5195  0.1066
 3649TIP3    H132438   2.768   4.172   0.288 -0.6937  0.5733  0.2907
 3649TIP3    H232439   2.670   4.280   0.251 -1.5293 -0.8020 -1.5599
 3650TIP3   OH232440   6.246   6.415  11.842 -0.4272 -0.3282 -0.2589
 3650TIP3    H132441   6.237   6.320  11.853  0.3612 -0.4679 -0.7744
 3650TIP3    H232442   6.332   6.426  11.803  0.2908  0.7571  1.6148
 3651TIP3   OH232443   0.997   4.413  16.269 -0.3122 -0.9092  0.0304
 3651TIP3    H132444   1.068   4.381  16.325 -0.5492 -1.3984  0.0504
 3651TIP3    H232445   0.920   4.414  16.326  0.2541  2.4582  0.8640
 3652TIP3   OH232446   3.386   6.711   5.975  0.4019  0.2321  0.2733
 3652TIP3    H132447   3.411   6.803   5.966  1.6167 -0.0014  1.1094
 3652TIP3    H232448   3.389   6.677   5.886  0.8661  0.7793  0.0767
 3653TIP3   OH232449   6.531   3.100   3.101  0.6667 -0.6047  0.3272
 3653TIP3    H132450   6.593   3.172   3.117  0.6204 -0.5686  0.3417
 3653TIP3    H232451   6.448   3.132   3.135  0.5453 -0.4900 -0.0771
 3654TIP3   OH232452   2.731   1.802  15.732 -0.0552  0.4458  0.6307
 3654TIP3    H132453   2.800   1.864  15.708 -0.4548  1.4326  1.9989
 3654TIP3    H232454   2.678   1.794  15.652  1.0192  0.4806 -0.0996
 3655TIP3   OH232455   6.579   6.308   5.274  0.6900  0.2666  0.4473
 3655TIP3    H132456   6.499   6.268   5.240  0.6971 -1.8773  2.7947
 3655TIP3    H232457   6.550   6.359   5.350  1.6092 -1.3790  1.9587
 3656TIP3   OH232458   3.535   2.579  16.540  0.5032  0.1145  0.2953
 3656TIP3    H132459   3.572   2.658  16.579 -0.4409 -0.5948  2.6987
 3656TIP3    H232460   3.444   2.577  16.569 -0.1375 -0.6829 -1.6316
 3657TIP3   OH232461   6.708   2.012   2.599  0.0649  0.0433  0.3153
 3657TIP3    H132462   6.688   1.948   2.668 -0.8123 -1.2771 -1.1426
 3657TIP3    H232463   6.623   2.031   2.559  0.2866  2.2486  0.8217
 3658TIP3   OH232464   4.310   1.645  15.397  0.3822 -0.5360 -0.3014
 3658TIP3    H132465   4.401   1.618  15.400 -0.2029 -2.4833  0.6393
 3658TIP3    H232466   4.306   1.710  15.326  2.6698  0.3587  0.3636
 3659TIP3   OH232467   0.174   4.181   6.506  0.1211 -0.5696 -0.2333
 3659TIP3    H132468   0.151   4.251   6.445 -0.1763 -0.3373  0.1401
 3659TIP3    H232469   0.095   4.128   6.512 -0.3230  0.2047  1.0174
 3660TIP3   OH232470   1.591   5.313   2.608 -1.0794  0.1816  0.8260
 3660TIP3    H132471   1.543   5.365   2.673 -0.5664  1.2674  0.3508
 3660TIP3    H232472   1.682   5.316   2.637 -0.9420  0.1536  0.3953
 3661TIP3   OH232473   1.533   4.095   0.717  0.8480 -0.2881 -0.3215
 3661TIP3    H132474   1.492   4.012   0.742  1.5136 -1.1325 -1.9411
 3661TIP3    H232475   1.523   4.151   0.794 -0.8350 -1.4062  0.2982
 3662TIP3   OH232476   1.795   6.764  15.217 -0.1368  0.0128 -0.4938
 3662TIP3    H132477   1.859   6.724  15.275  1.0217 -0.0719 -1.8119
 3662TIP3    H232478   1.803   6.715  15.135 -1.1580  0.6753 -0.9973
 3663TIP3   OH232479   2.384   5.019  16.043 -0.1541  0.6805  0.5586
 3663TIP3    H132480   2.397   4.941  15.990 -0.3653  1.5814 -0.8359
 3663TIP3    H232481   2.462   5.023  16.100 -0.9142 -1.4071  1.7892
 3664TIP3   OH232482   6.037   2.444  16.320 -0.3884 -0.1050 -0.0438
 3664TIP3    H132483   6.009   2.511  16.258  1.1338  1.0033  0.4538
 3664TIP3    H232484   6.080   2.378  16.265  1.2627  1.0342 -0.1571
 3665TIP3   OH232485   4.483   1.711  16.235  0.2375  0.2437 -0.3244
 3665TIP3    H132486   4.536   1.775  16.283  1.5334 -1.6772  0.8741
 3665TIP3    H232487   4.394   1.747  16.238  1.0276  2.2579 -0.1705
 3666TIP3   OH232488   2.525   5.030   5.685 -0.5704 -0.3638 -0.1451
 3666TIP3    H132489   2.470   5.107   5.698 -0.1343 -0.0444 -0.2110
 3666TIP3    H232490   2.539   5.026   5.590  0.6006  0.3072 -0.0162
 3667TIP3   OH232491   3.182   3.990  12.703 -0.5757 -0.0182 -0.2715
 3667TIP3    H132492   3.244   3.997  12.631 -1.6110  1.8477 -1.0181
 3667TIP3    H232493   3.155   3.898  12.702  1.8122 -0.7364 -0.2056
 3668TIP3   OH232494   4.477   5.204  10.743  0.0863  0.1360 -0.0888
 3668TIP3    H132495   4.506   5.163  10.662 -0.5035 -0.0687 -0.2038
 3668TIP3    H232496   4.552   5.199  10.802  0.2419 -0.4748 -0.3388
 3669TIP3   OH232497   5.398   0.934   1.627  0.8075  0.1388  0.0253
 3669TIP3    H132498   5.432   0.847   1.651  2.8499  0.8210 -0.3225
 3669TIP3    H232499   5.340   0.957   1.700 -1.3025 -2.3370 -0.8032
 3670TIP3   OH232500   1.792   2.324  12.089  0.7502  0.1818 -0.3226
 3670TIP3    H132501   1.751   2.408  12.067 -0.0618  0.2090  1.2281
 3670TIP3    H232502   1.883   2.347  12.111  1.5265  0.1809 -3.3369
 3671TIP3   OH232503   3.752   1.129  13.911  0.0883  0.4245 -0.0622
 3671TIP3    H132504   3.680   1.189  13.930  0.3219  0.3941  0.9231
 3671TIP3    H232505   3.756   1.071  13.987 -0.2533 -0.9696 -1.0825
 3672TIP3   OH232506   2.879   1.243  12.305 -0.8777 -0.4093 -0.0123
 3672TIP3    H132507   2.863   1.244  12.399  0.0762 -0.1898  0.1580
 3672TIP3    H232508   2.966   1.282  12.295 -1.4888  0.7232 -1.0888
 3673TIP3   OH232509   0.276   1.255   0.360 -0.2348 -0.7941  0.1942
 3673TIP3    H132510   0.318   1.333   0.323  0.3538 -0.7762  0.8791
 3673TIP3    H232511   0.220   1.289   0.430  1.0647 -1.0818  1.4073
 3674TIP3   OH232512   5.978   2.014  13.047  0.2223 -0.1541  0.3897
 3674TIP3    H132513   5.959   1.920  13.050  0.0659 -0.1466 -0.2653
 3674TIP3    H232514   5.977   2.041  13.138 -0.3051 -0.6813  0.5490
 3675TIP3   OH232515   5.266   3.698   1.844  0.0334  0.3145  0.2540
 3675TIP3    H132516   5.264   3.734   1.755  0.6618 -0.8006 -0.2223
 3675TIP3    H232517   5.351   3.726   1.878 -1.5595  3.5660  1.7248
 3676TIP3   OH232518   5.413   1.410  11.326  0.5745  0.8131  0.1905
 3676TIP3    H132519   5.484   1.417  11.262 -1.1125  1.9154 -1.6064
 3676TIP3    H232520   5.343   1.364  11.280  0.1982 -0.5624  2.0550
 3677TIP3   OH232521   6.367   2.672  10.971  0.3658 -0.6479 -0.1868
 3677TIP3    H132522   6.294   2.732  10.956  0.8090 -0.1315 -0.2622
 3677TIP3    H232523   6.428   2.688  10.899  1.7674  0.7426  1.2734
 3678TIP3   OH232524   0.324   6.596   2.579  0.5066 -0.1044 -0.3398
 3678TIP3    H132525   0.321   6.508   2.616  0.3961 -0.1888 -0.5487
 3678TIP3    H232526   0.386   6.644   2.634  0.5864 -0.3214 -0.2435
 3679TIP3   OH232527   4.707   2.500   2.903  0.1139 -0.0698 -0.6382
 3679TIP3    H132528   4.631   2.539   2.945 -0.5700 -0.5862 -1.3961
 3679TIP3    H232529   4.679   2.481   2.814  1.3356  0.3568 -1.1259
 3680TIP3   OH232530   0.481   4.158  14.751  0.7367  0.7323  0.3010
 3680TIP3    H132531   0.502   4.083  14.808  1.1004  0.1067 -0.6329
 3680TIP3    H232532   0.457   4.228  14.811  1.7436  0.2738  1.2577
 3681TIP3   OH232533   3.947   3.840  15.093 -0.0077 -0.0654  0.5064
 3681TIP3    H132534   3.964   3.778  15.164 -1.9800 -0.5412  0.5991
 3681TIP3    H232535   3.983   3.798  15.015 -0.2232 -0.7814  0.7877
 3682TIP3   OH232536   0.375   4.803  15.190 -0.8040  0.0307 -0.3007
 3682TIP3    H132537   0.332   4.847  15.263  1.1451 -1.8023  2.0425
 3682TIP3    H232538   0.446   4.862  15.165 -0.0778 -0.3761  0.7972
 3683TIP3   OH232539   5.511   0.839  13.194  0.1273  0.3835 -0.3817
 3683TIP3    H132540   5.426   0.806  13.164  0.3980 -0.2155 -0.5059
 3683TIP3    H232541   5.503   0.844  13.289 -0.0143  0.2285 -0.3851
 3684TIP3   OH232542   5.689   6.181   0.985  0.1721 -0.4511 -0.1616
 3684TIP3    H132543   5.706   6.192   0.891 -0.3467 -1.0094 -0.3198
 3684TIP3    H232544   5.748   6.110   1.011 -0.6492 -1.2149 -0.3518
 3685TIP3   OH232545   1.355   0.331  15.329  0.7112 -0.7236 -0.1725
 3685TIP3    H132546   1.326   0.262  15.269  3.4593 -1.9129 -0.1962
 3685TIP3    H232547   1.423   0.377  15.280  1.3411 -0.2140  1.1678
 3686TIP3   OH232548   5.915   4.435  16.591  0.4058 -0.0098 -0.0745
 3686TIP3    H132549   5.926   4.340  16.586  1.5872  0.2163 -2.3299
 3686TIP3    H232550   5.982   4.464  16.652 -0.3238 -0.6590  1.0583
 3687TIP3   OH232551   0.501   2.060   0.156 -0.2652  0.0628 -0.4366
 3687TIP3    H132552   0.568   2.127   0.140 -1.0348  1.1187  0.6453
 3687TIP3    H232553   0.420   2.100   0.126 -0.7079 -0.4464  0.0695
 3688TIP3   OH232554   6.381   6.003   3.312 -0.0543 -0.4553  0.2365
 3688TIP3    H132555   6.322   6.072   3.282  0.4773 -0.4246 -0.7827
 3688TIP3    H232556   6.456   6.049   3.348 -0.9902 -0.4825  2.2985
 3689TIP3   OH232557   5.837   4.826  16.701  0.3586 -0.1956 -0.5874
 3689TIP3    H132558   5.841   4.734  16.726  0.2020 -0.2813 -0.8731
 3689TIP3    H232559   5.763   4.831  16.641 -0.6883  0.4202  0.7255
 3690TIP3   OH232560   3.714   6.735   0.436  0.5975  0.4745 -0.1387
 3690TIP3    H132561   3.654   6.737   0.362  0.6473 -0.8640 -0.2278
 3690TIP3    H232562   3.687   6.808   0.491 -0.2676  0.6863 -0.8334
 3691TIP3   OH232563   6.261   3.666  12.153  0.8058 -0.5860  0.1776
 3691TIP3    H132564   6.324   3.725  12.194  0.5971 -0.3078  0.0997
 3691TIP3    H232565   6.256   3.695  12.062 -1.1142  0.8481  0.6935
 3692TIP3   OH232566   4.199   3.357   1.947 -1.0632  0.2686 -0.2634
 3692TIP3    H132567   4.130   3.343   2.013 -1.6596 -1.0008 -1.1382
 3692TIP3    H232568   4.261   3.286   1.962 -0.0260  1.2919  0.3875
 3693TIP3   OH232569   6.755   2.268  10.868 -0.0680 -0.1717  0.4520
 3693TIP3    H132570   6.752   2.176  10.843 -0.2245 -0.2157  0.6350
 3693TIP3    H232571   6.829   2.304  10.819 -0.7212 -0.1349 -0.5302
 3694TIP3   OH232572   2.253   0.619   3.398 -0.0026 -0.0027 -0.0217
 3694TIP3    H132573   2.274   0.673   3.322 -1.7756  1.2517  0.3370
 3694TIP3    H232574   2.179   0.664   3.439 -0.4633 -1.8492  1.2193
 3695TIP3   OH232575   5.943   1.126   0.279  0.2757 -0.1162  0.9021
 3695TIP3    H132576   5.939   1.214   0.241  1.6519 -0.0450  0.8858
 3695TIP3    H232577   5.877   1.127   0.349 -1.0177  0.3173 -0.3084
 3696TIP3   OH232578   5.183   4.628   4.988  0.4705 -0.3496  0.6343
 3696TIP3    H132579   5.221   4.716   4.990 -0.1127 -0.1064  3.0181
 3696TIP3    H232580   5.091   4.642   5.007  0.2996 -1.4551  0.6258
 3697TIP3   OH232581   3.603   0.847  13.075  0.7066 -0.2023 -0.6360
 3697TIP3    H132582   3.518   0.813  13.101  1.4341 -0.1373  1.8977
 3697TIP3    H232583   3.584   0.901  12.998 -1.5048 -0.3224 -0.2111
 3698TIP3   OH232584   4.159   5.246   3.555 -0.4104  0.3989 -0.0319
 3698TIP3    H132585   4.252   5.236   3.535  0.4108  0.7151  3.3145
 3698TIP3    H232586   4.151   5.337   3.585 -1.2582 -0.3475  2.1306
 3699TIP3   OH232587   5.892   1.872  10.388 -0.0923  0.1179 -0.1401
 3699TIP3    H132588   5.836   1.802  10.354 -2.2392  1.4818  0.5290
 3699TIP3    H232589   5.902   1.852  10.481 -0.8635  0.7936  0.0901
 3700TIP3   OH232590   0.439   5.709   4.671  0.6044 -0.6113 -0.0142
 3700TIP3    H132591   0.502   5.713   4.742 -0.4081 -2.5823  1.0372
 3700TIP3    H232592   0.397   5.623   4.680 -2.4588  0.7492 -0.4439
 3701TIP3   OH232593   5.305   1.101  14.352  0.4084  0.2967 -0.6296
 3701TIP3    H132594   5.349   1.122  14.269  1.4443  0.8347  0.0406
 3701TIP3    H232595   5.376   1.102  14.417 -0.4145 -0.0318  0.2710
 3702TIP3   OH232596   2.857   0.838   5.943  0.0748  0.1187 -0.5638
 3702TIP3    H132597   2.874   0.830   5.850 -0.6492 -0.1944 -0.6739
 3702TIP3    H232598   2.943   0.851   5.983  0.3594  0.5345 -1.3016
 3703TIP3   OH232599   6.333   2.888   4.338 -0.3242  0.2695  0.1134
 3703TIP3    H132600   6.359   2.823   4.272  1.5563  0.1959  0.8878
 3703TIP3    H232601   6.237   2.890   4.333 -0.2333  0.0047 -2.3609
 3704TIP3   OH232602   4.243   4.328   5.132  0.7298  0.2453  0.0295
 3704TIP3    H132603   4.199   4.411   5.147  1.1583  0.9920 -2.6546
 3704TIP3    H232604   4.172   4.264   5.125  0.4102  0.3062  2.3028
 3705TIP3   OH232605   4.661   0.330  14.094  0.0469 -0.6589  0.7641
 3705TIP3    H132606   4.629   0.420  14.096 -0.5932 -0.8735  0.1609
 3705TIP3    H232607   4.630   0.295  14.011  0.1501 -1.4933  1.0734
 3706TIP3   OH232608   0.829   3.564  15.003  0.3296 -0.7217  0.4963
 3706TIP3    H132609   0.875   3.501  14.947  1.4549  0.9148 -0.4427
 3706TIP3    H232610   0.886   3.574  15.079  2.2467  2.2751 -1.2453
 3707TIP3   OH232611   0.524   4.683  13.760  0.0710 -0.5169  0.0591
 3707TIP3    H132612   0.527   4.733  13.679  0.0419  0.3159  0.5686
 3707TIP3    H232613   0.566   4.739  13.825 -0.2836 -1.0004  0.7165
 3708TIP3   OH232614   0.716   0.692   0.002  0.0402 -0.5482 -0.1530
 3708TIP3    H132615   0.664   0.639  -0.059 -0.3211 -0.3345 -0.0308
 3708TIP3    H232616   0.759   0.757  -0.053 -0.9739  0.1915 -0.0655
 3709TIP3   OH232617   2.009   2.729  11.745 -0.3612  0.3797 -0.1476
 3709TIP3    H132618   1.936   2.745  11.685 -0.4990  0.7247  0.1072
 3709TIP3    H232619   2.087   2.729  11.689 -0.5688 -0.1323 -0.4428
 3710TIP3   OH232620   3.146   2.600  17.054  0.0065  0.1458  0.1880
 3710TIP3    H132621   3.051   2.596  17.048  0.0548  0.0810 -0.6353
 3710TIP3    H232622   3.168   2.692  17.038  0.1928 -0.1804 -1.5431
 3711TIP3   OH232623   3.481   1.235  11.563 -0.0342 -0.3222 -0.6013
 3711TIP3    H132624   3.520   1.169  11.620  0.0624 -0.0283 -0.3267
 3711TIP3    H232625   3.545   1.306  11.560 -1.4410  1.0945  1.5579
 3712TIP3   OH232626   6.374   4.227  12.511 -0.4053 -0.0627 -0.1901
 3712TIP3    H132627   6.386   4.263  12.599  3.0170  0.4847 -0.8232
 3712TIP3    H232628   6.332   4.297  12.461 -0.9681  0.1703  0.5946
 3713TIP3   OH232629   6.234   2.319   6.314  0.2625  0.1267  0.0684
 3713TIP3    H132630   6.158   2.336   6.370 -0.3918 -0.5811 -0.5964
 3713TIP3    H232631   6.212   2.358   6.230  0.5382 -0.2592 -0.1879
 3714TIP3   OH232632   2.131   2.808   4.014 -0.5846  0.2987 -0.2334
 3714TIP3    H132633   2.152   2.901   4.024  0.6444  0.0323 -0.2244
 3714TIP3    H232634   2.130   2.794   3.919 -1.3080  0.4343 -0.2486
 3715TIP3   OH232635   1.462   0.678   2.879 -0.2191  0.5570  0.1598
 3715TIP3    H132636   1.480   0.706   2.969 -0.1832  1.5786 -0.1682
 3715TIP3    H232637   1.456   0.759   2.829  0.4521 -0.0366 -0.8904
 3716TIP3   OH232638   1.405   0.370   6.141 -0.0153  0.4328  0.3942
 3716TIP3    H132639   1.376   0.409   6.223 -2.8910 -0.9663  0.1080
 3716TIP3    H232640   1.360   0.421   6.073  1.7119  1.0666 -0.3112
 3717TIP3   OH232641   3.522   5.029  11.863  0.4057  0.0160 -0.1314
 3717TIP3    H132642   3.454   4.978  11.818 -1.0093 -0.8754  2.8739
 3717TIP3    H232643   3.560   5.084  11.795 -1.8555 -1.0419 -2.3230
 3718TIP3   OH232644   4.793   6.365   4.678 -0.2325 -0.2576  0.4512
 3718TIP3    H132645   4.849   6.338   4.605  0.4968 -0.4783  1.0820
 3718TIP3    H232646   4.817   6.456   4.694 -1.6670  0.3585 -0.7363
 3719TIP3   OH232647   0.309   3.098   2.999  0.2551 -0.2964  0.8321
 3719TIP3    H132648   0.308   3.162   2.928 -3.2377 -0.7964  0.3456
 3719TIP3    H232649   0.340   3.017   2.958 -1.2738 -0.4591 -0.0250
 3720TIP3   OH232650   6.513   0.750  11.757  0.2558  0.0346 -0.0446
 3720TIP3    H132651   6.501   0.775  11.665  0.0148  1.0321  0.2563
 3720TIP3    H232652   6.470   0.665  11.764  0.6059 -0.2285 -0.9498
 3721TIP3   OH232653   2.658   5.265   5.889 -0.2797 -0.0001 -0.2226
 3721TIP3    H132654   2.722   5.262   5.960  1.0601  1.4270 -1.3641
 3721TIP3    H232655   2.584   5.214   5.922  0.4110  0.4644  2.1177
 3722TIP3   OH232656   1.309   2.048   4.858 -0.3512 -0.0093  0.0891
 3722TIP3    H132657   1.335   2.108   4.928 -0.8222 -0.5008  0.6846
 3722TIP3    H232658   1.235   1.999   4.894 -0.9007  0.0702 -0.9295
 3723TIP3   OH232659   3.717   2.353   3.275 -0.6989 -0.1306  0.6584
 3723TIP3    H132660   3.646   2.359   3.210 -0.7948  1.4918  0.9025
 3723TIP3    H232661   3.796   2.376   3.226 -0.6416  0.1437  0.8797
 3724TIP3   OH232662   0.891   3.559   4.341  0.0074  0.3991  0.1890
 3724TIP3    H132663   0.886   3.633   4.280  0.1466  2.3067  2.4676
 3724TIP3    H232664   0.863   3.484   4.288 -2.3285  2.4126 -1.5469
 3725TIP3   OH232665   2.742   3.188   4.812  0.2366  0.3483  0.2751
 3725TIP3    H132666   2.711   3.243   4.884  0.1088 -0.0211  0.5022
 3725TIP3    H232667   2.739   3.245   4.735 -0.6472  0.4357  0.3674
 3726TIP3   OH232668   2.243   1.839  17.195 -0.0106  0.2690 -0.5273
 3726TIP3    H132669   2.264   1.780  17.267  1.2882  0.6816 -0.5586
 3726TIP3    H232670   2.300   1.915  17.208 -1.4112  1.3797 -0.6764
 3727TIP3   OH232671   6.459   0.747  16.176  0.0638 -0.3743  0.2950
 3727TIP3    H132672   6.509   0.807  16.120 -1.3061 -1.6142 -2.3468
 3727TIP3    H232673   6.393   0.802  16.217  0.3561  0.3546 -0.2004
 3728TIP3   OH232674   2.587   2.131   5.235  0.4569  0.7410 -0.1582
 3728TIP3    H132675   2.496   2.160   5.231  0.7462  1.8132  0.5905
 3728TIP3    H232676   2.597   2.071   5.162 -0.7397  0.9461 -0.4992
 3729TIP3   OH232677   1.090   4.890   4.222 -0.1737 -0.2061 -0.0362
 3729TIP3    H132678   1.081   4.930   4.308  1.5869  1.7350 -0.7256
 3729TIP3    H232679   1.008   4.842   4.210 -0.7292  0.0261  2.4205
 3730TIP3   OH232680   2.840   3.376   1.781  0.0601  0.3103 -0.2025
 3730TIP3    H132681   2.808   3.347   1.866 -0.2945  0.3548 -0.3186
 3730TIP3    H232682   2.811   3.308   1.720  1.5668 -0.4641 -0.0817
 3731TIP3   OH232683   1.738   1.973   4.949  0.1430 -0.6713  0.1186
 3731TIP3    H132684   1.675   1.901   4.943  0.0407 -0.5966  0.2622
 3731TIP3    H232685   1.713   2.032   4.878 -0.8893  0.0792  1.0649
 3732TIP3   OH232686   4.285   3.215  13.343 -0.4315 -0.3829  0.0778
 3732TIP3    H132687   4.242   3.290  13.385  1.2607  0.8646 -0.3720
 3732TIP3    H232688   4.370   3.209  13.386  0.3201 -0.6727 -1.4399
 3733TIP3   OH232689   0.640   3.705  14.525  0.3131  0.6490 -0.1028
 3733TIP3    H132690   0.620   3.731  14.615  1.6093  3.2250 -0.5273
 3733TIP3    H232691   0.708   3.638  14.535 -1.2298 -0.8055  0.9044
 3734TIP3   OH232692   1.550   2.827   3.740  0.8186 -0.1955  0.3276
 3734TIP3    H132693   1.459   2.804   3.719  0.5812  0.3158  0.7940
 3734TIP3    H232694   1.544   2.875   3.822  1.4422  0.4419 -0.0003
 3735TIP3   OH232695   0.587   6.752  17.280 -0.5405 -0.0391  0.0818
 3735TIP3    H132696   0.531   6.675  17.277 -0.1617 -0.3011 -0.2774
 3735TIP3    H232697   0.553   6.803  17.353 -1.1263 -0.2892 -0.0101
 3736TIP3   OH232698   2.563   5.139  14.118 -0.0418 -0.7618  0.5015
 3736TIP3    H132699   2.470   5.141  14.138 -0.5030  1.8307 -1.6898
 3736TIP3    H232700   2.570   5.078  14.044 -0.1563 -0.2324  0.0476
 3737TIP3   OH232701   2.723   0.199   5.077 -0.0938 -0.3360 -0.3995
 3737TIP3    H132702   2.659   0.211   5.007  0.2499  0.7880 -0.5245
 3737TIP3    H232703   2.807   0.194   5.032 -0.0366 -1.3295 -0.1951
 3738TIP3   OH232704   2.335   0.730   1.518 -0.0165  0.4327 -0.4498
 3738TIP3    H132705   2.394   0.662   1.487 -0.2893 -0.2373  0.4508
 3738TIP3    H232706   2.248   0.704   1.486 -0.0487  0.5868 -0.4860
 3739TIP3   OH232707   3.832   5.696  11.112 -0.1821  0.0011  0.4719
 3739TIP3    H132708   3.887   5.619  11.095 -2.2051 -1.2862 -0.4377
 3739TIP3    H232709   3.766   5.694  11.043 -0.2566  2.5965  0.4322
 3740TIP3   OH232710   6.199   0.973  16.090 -0.1230  0.4393  0.1853
 3740TIP3    H132711   6.236   1.060  16.104 -0.5217  0.7286 -0.5326
 3740TIP3    H232712   6.106   0.988  16.076 -0.8687 -0.4805  3.8588
 3741TIP3   OH232713   3.971   0.027  15.449  0.2609 -0.7307  0.1777
 3741TIP3    H132714   4.046   0.067  15.404 -1.1869 -0.5623 -2.1980
 3741TIP3    H232715   3.984  -0.067  15.440  0.2480 -0.7016 -0.1464
 3742TIP3   OH232716   4.378   0.982  15.654  0.3985  0.1540 -0.3398
 3742TIP3    H132717   4.449   1.040  15.680  0.1748  0.1732  0.2256
 3742TIP3    H232718   4.350   1.015  15.568  1.3388 -0.0998 -0.7504
 3743TIP3   OH232719   0.292   0.935   1.367  0.7609  0.0213 -0.4409
 3743TIP3    H132720   0.377   0.957   1.405  1.3231  0.5842 -1.9770
 3743TIP3    H232721   0.311   0.916   1.275 -0.5965 -1.0585 -0.5138
 3744TIP3   OH232722   4.322   2.108  10.126  0.1216 -0.3355  0.0641
 3744TIP3    H132723   4.351   2.192  10.090  1.6345 -1.2352 -0.9026
 3744TIP3    H232724   4.376   2.043  10.080  0.0327 -1.7307  1.8847
 3745TIP3   OH232725   5.093   3.195   5.054 -0.9259  0.4392  0.4579
 3745TIP3    H132726   5.145   3.123   5.019  0.6994  2.5725 -1.6966
 3745TIP3    H232727   5.086   3.177   5.148 -0.3729 -2.3622 -0.0087
 3746TIP3   OH232728   3.859   1.729   3.427 -0.6135  0.0622 -0.9970
 3746TIP3    H132729   3.873   1.719   3.333  0.1813 -0.3634 -0.8352
 3746TIP3    H232730   3.900   1.813   3.448 -0.6309  0.0707 -0.9982
 3747TIP3   OH232731   3.136   5.934  13.987 -0.3154 -0.1084 -0.2876
 3747TIP3    H132732   3.078   6.010  13.998  0.2366  0.2862 -0.1070
 3747TIP3    H232733   3.218   5.960  14.028  0.0222 -0.6403 -0.6199
 3748TIP3   OH232734   4.801   3.655   0.683  0.0774  0.1962 -0.3136
 3748TIP3    H132735   4.772   3.582   0.628  2.1134  1.0996 -2.6647
 3748TIP3    H232736   4.785   3.733   0.630 -1.9674  1.5183  2.1332
 3749TIP3   OH232737   4.512   1.231   1.379  0.2998 -0.3159  0.1774
 3749TIP3    H132738   4.549   1.143   1.387  1.0375 -0.0483 -0.2238
 3749TIP3    H232739   4.540   1.276   1.459 -1.3001 -0.8812  1.0692
 3750TIP3   OH232740   1.179   6.437  11.129 -0.2064 -0.5784  0.1353
 3750TIP3    H132741   1.242   6.419  11.059  0.8654  0.1202  0.8998
 3750TIP3    H232742   1.154   6.528  11.116  0.2515 -0.3419  0.8428
 3751TIP3   OH232743   2.751   2.687  15.488  0.0437 -0.0631  0.0465
 3751TIP3    H132744   2.769   2.684  15.582 -0.8383  0.6535  0.2454
 3751TIP3    H232745   2.713   2.602  15.467  1.2294 -0.6220  0.1228
 3752TIP3   OH232746   4.646   4.269   4.208  0.3541 -0.4485 -0.0055
 3752TIP3    H132747   4.569   4.225   4.173  0.8673  0.2050 -1.9742
 3752TIP3    H232748   4.707   4.274   4.135  1.5833  0.6063  1.0666
 3753TIP3   OH232749   1.816   6.154  13.531  0.2324 -0.4070  0.1150
 3753TIP3    H132750   1.893   6.209  13.518 -1.0242  1.5056  0.4825
 3753TIP3    H232751   1.791   6.168  13.623 -1.5959  0.4661 -0.4703
 3754TIP3   OH232752   4.145   4.720  14.880  0.1542 -0.5724  0.3334
 3754TIP3    H132753   4.186   4.691  14.799  0.5778  2.0923 -0.4641
 3754TIP3    H232754   4.053   4.735  14.856 -0.1855 -1.7676  0.8717
 3755TIP3   OH232755   1.292   5.456  12.826  0.0315  0.3889  0.2861
 3755TIP3    H132756   1.235   5.466  12.750 -0.0297  0.9307  0.4070
 3755TIP3    H232757   1.258   5.518  12.890 -0.3118 -0.5061  0.9944
 3756TIP3   OH232758   5.730   1.297  15.887  0.9738  0.5072  0.0503
 3756TIP3    H132759   5.667   1.251  15.832  0.8630 -0.6253  1.1035
 3756TIP3    H232760   5.695   1.386  15.895 -0.8589 -0.2915  1.1891
 3757TIP3   OH232761   0.628   0.795   0.588 -0.3001  0.2689  0.0759
 3757TIP3    H132762   0.701   0.733   0.600  1.6187  2.2478 -0.9460
 3757TIP3    H232763   0.648   0.866   0.648 -0.2305  1.8358 -1.7704
 3758TIP3   OH232764   3.067   2.243   1.692  0.4520  0.7992 -0.0630
 3758TIP3    H132765   3.044   2.150   1.687 -2.1832  1.4214 -0.3674
 3758TIP3    H232766   3.010   2.278   1.761  0.8796  2.3121 -0.4569
 3759TIP3   OH232767   1.320   4.814  12.682 -0.6889  0.3442  0.2481
 3759TIP3    H132768   1.270   4.783  12.758  0.6411  2.0089  1.8251
 3759TIP3    H232769   1.396   4.756  12.678 -1.3766 -0.5204 -0.5754
 3760TIP3   OH232770   0.101   1.048  13.790 -0.2890  0.1339  0.6344
 3760TIP3    H132771   0.121   0.954  13.790  0.2231  0.2358 -0.2535
 3760TIP3    H232772   0.151   1.082  13.864  0.0020 -0.2055  0.5998
 3761TIP3   OH232773   3.928   1.675  14.915 -0.1900 -0.5343 -0.2485
 3761TIP3    H132774   3.948   1.664  14.822 -0.3699  1.1279 -0.4921
 3761TIP3    H232775   3.863   1.745  14.918 -0.2163 -0.6031  1.1310
 3762TIP3   OH232776   0.347   1.479  11.164  0.5432  0.1114  0.5206
 3762TIP3    H132777   0.276   1.475  11.229  0.6183 -1.7588  0.5158
 3762TIP3    H232778   0.307   1.448  11.083  0.8206  1.1036 -0.0010
 3763TIP3   OH232779   2.370   5.571   2.013  0.2443 -0.1976  0.2483
 3763TIP3    H132780   2.433   5.587   2.084  0.6343  1.0921 -0.3689
 3763TIP3    H232781   2.425   5.545   1.938  0.2597  2.6184 -0.8002
 3764TIP3   OH232782   0.681   6.342  17.191 -0.4397  0.8998 -0.0010
 3764TIP3    H132783   0.745   6.382  17.251  0.2200 -0.1546  0.0034
 3764TIP3    H232784   0.639   6.417  17.148 -1.2614  1.7058  2.1041
 3765TIP3   OH232785   2.508   0.094   1.556  0.0762 -0.1064 -0.4679
 3765TIP3    H132786   2.561   0.057   1.485  0.6465  0.5082 -0.3724
 3765TIP3    H232787   2.557   0.072   1.636  0.4545  0.9164 -0.4195
 3766TIP3   OH232788   4.627   6.697  17.275  0.2633  0.2678  0.4120
 3766TIP3    H132789   4.585   6.691  17.360  0.2613 -1.9057  0.2733
 3766TIP3    H232790   4.680   6.618  17.268  0.6051  0.6269 -1.4264
 3767TIP3   OH232791   3.174   4.052  14.205 -0.4257  0.2281  0.0501
 3767TIP3    H132792   3.206   3.971  14.165  2.3155  0.7457  1.0747
 3767TIP3    H232793   3.135   4.101  14.132 -0.9488 -1.4289 -0.8158
 3768TIP3   OH232794   4.969   0.873   4.060  0.5914 -0.2728  0.2411
 3768TIP3    H132795   4.961   0.894   3.967 -1.3978 -1.9368  0.0052
 3768TIP3    H232796   5.045   0.815   4.066  0.5446 -0.4035 -0.3958
 3769TIP3   OH232797   0.097   3.043  14.662  0.2188  0.1823 -0.3013
 3769TIP3    H132798   0.122   3.135  14.669 -0.2957  0.2506  0.9472
 3769TIP3    H232799   0.172   2.999  14.624  1.6419  0.6330  1.8963
 3770TIP3   OH232800   1.668   0.883   0.558 -0.1506  0.0646  0.3927
 3770TIP3    H132801   1.747   0.927   0.590  0.6441 -0.3840 -0.9171
 3770TIP3    H232802   1.667   0.799   0.604 -0.3570  0.4295  1.0714
 3771TIP3   OH232803   6.355   6.447  13.529 -0.2444 -0.0735  0.2290
 3771TIP3    H132804   6.297   6.455  13.453  0.7884  0.2211 -0.5351
 3771TIP3    H232805   6.415   6.521  13.521  0.6310 -0.7231  0.6829
 3772TIP3   OH232806   0.635   2.249   0.389  0.6616 -0.2449 -0.4150
 3772TIP3    H132807   0.556   2.203   0.415 -0.1214  0.3942 -1.6104
 3772TIP3    H232808   0.636   2.243   0.293  0.2016  2.7710 -0.6527
 3773TIP3   OH232809   0.318   3.434  12.412  0.0409  0.7272  0.3656
 3773TIP3    H132810   0.285   3.362  12.358  1.8080  0.1841 -0.0338
 3773TIP3    H232811   0.262   3.509  12.389  0.1291  0.2480 -1.4934
 3774TIP3   OH232812   3.233   0.278  13.347 -0.7091 -0.0234  0.1654
 3774TIP3    H132813   3.144   0.297  13.315 -0.8729  1.9597  1.6633
 3774TIP3    H232814   3.219   0.245  13.436 -0.0114 -1.0799 -0.1100
 3775TIP3   OH232815   4.181   4.849   2.254 -0.3174 -0.2140  0.1818
 3775TIP3    H132816   4.180   4.894   2.338  1.0052  0.6422 -0.2409
 3775TIP3    H232817   4.099   4.800   2.252  0.2981 -1.4128  2.5843
 3776TIP3   OH232818   4.983   5.118  13.877  0.1430  0.1746 -0.5643
 3776TIP3    H132819   4.902   5.148  13.918  1.2083 -0.2525  1.9866
 3776TIP3    H232820   5.029   5.072  13.948  0.6436 -3.3974 -3.0942
 3777TIP3   OH232821   0.420   4.806   1.120 -0.4666 -0.2520  0.2431
 3777TIP3    H132822   0.396   4.881   1.066 -0.3413  0.6187  1.3673
 3777TIP3    H232823   0.366   4.815   1.198 -0.5035 -1.3787  0.3550
 3778TIP3   OH232824   2.521   3.573   0.979  0.6353  0.3494 -0.1501
 3778TIP3    H132825   2.466   3.554   0.903  1.4174 -1.3294 -0.3080
 3778TIP3    H232826   2.574   3.494   0.991  1.1433  0.9384  1.6042
 3779TIP3   OH232827   4.267   3.127  11.987 -0.0389 -0.0682 -0.0295
 3779TIP3    H132828   4.233   3.143  11.899 -2.4687 -0.2958  0.8357
 3779TIP3    H232829   4.242   3.037  12.007  0.6815 -0.0867  0.8212
 3780TIP3   OH232830   6.690   0.074  16.592  0.0212 -0.1348 -0.1693
 3780TIP3    H132831   6.637   0.048  16.667 -0.5391  1.7686  0.1212
 3780TIP3    H232832   6.645   0.150  16.556  2.4503  1.4563  0.0150
 3781TIP3   OH232833   2.241   3.855  13.839  0.0203  0.5000 -0.4011
 3781TIP3    H132834   2.328   3.894  13.832 -0.5612  1.7312 -1.0355
 3781TIP3    H232835   2.255   3.771  13.883  1.5538  0.5636 -0.7478
 3782TIP3   OH232836   5.666   0.323  12.778 -0.9528 -0.3398  0.5552
 3782TIP3    H132837   5.697   0.238  12.746 -2.4240 -1.1030  1.1074
 3782TIP3    H232838   5.595   0.301  12.839 -0.6659  1.2493  1.4828
 3783TIP3   OH232839   6.077   4.423  15.699 -0.3147 -0.2987 -0.1721
 3783TIP3    H132840   5.984   4.417  15.719 -0.1469 -0.7767  0.4986
 3783TIP3    H232841   6.116   4.347  15.743  0.6698  0.9938  1.2556
 3784TIP3   OH232842   4.138   3.572  12.236  0.4995 -0.5212  0.2225
 3784TIP3    H132843   4.116   3.564  12.143  1.4515  2.0141 -0.2827
 3784TIP3    H232844   4.233   3.562  12.239  0.8194  2.1836  0.5015
 3785TIP3   OH232845   2.936   5.587   0.927  0.3630  0.0104  0.0701
 3785TIP3    H132846   2.942   5.577   1.022 -0.2701 -1.6185 -0.0282
 3785TIP3    H232847   2.997   5.656   0.905  1.5307 -0.5495  1.5254
 3786TIP3   OH232848   3.213   0.187   4.541 -0.4890  0.6816 -0.3085
 3786TIP3    H132849   3.212   0.139   4.459  1.5262  0.8806 -0.4618
 3786TIP3    H232850   3.182   0.124   4.606  1.7726 -0.7274 -0.5661
 3787TIP3   OH232851   6.358   5.878  15.902 -0.0289  0.7274 -0.2558
 3787TIP3    H132852   6.357   5.783  15.913 -0.3792  0.6762 -0.7572
 3787TIP3    H232853   6.335   5.912  15.989  1.3336  0.3767  0.2580
 3788TIP3   OH232854   2.330   6.392   3.318 -0.2741  0.6022 -0.1823
 3788TIP3    H132855   2.257   6.411   3.259 -0.4819  0.8066  0.1414
 3788TIP3    H232856   2.306   6.434   3.400 -0.1970 -0.0751  0.1921
 3789TIP3   OH232857   4.409   4.094   4.179  0.2648  0.1957 -0.1043
 3789TIP3    H132858   4.345   4.116   4.247  0.0712 -1.0493  0.1288
 3789TIP3    H232859   4.375   4.014   4.139  1.0902  0.1627 -0.7614
 3790TIP3   OH232860   6.631   5.404   6.342  0.4977 -0.2648  0.0242
 3790TIP3    H132861   6.631   5.491   6.383 -0.5973 -0.1685 -0.1662
 3790TIP3    H232862   6.575   5.415   6.265 -2.2218 -1.9249  1.6926
 3791TIP3   OH232863   5.040   4.324  15.453 -1.1388 -0.5779 -0.0888
 3791TIP3    H132864   5.085   4.391  15.402  0.6033 -0.7072  1.2232
 3791TIP3    H232865   5.078   4.241  15.424 -0.9348 -0.7302  0.5808
 3792TIP3   OH232866   2.005   5.953  12.811  0.0887 -0.3207 -0.3481
 3792TIP3    H132867   2.040   5.994  12.732 -0.5858 -1.7032 -1.3780
 3792TIP3    H232868   1.934   5.897  12.780 -0.8003 -0.1694  1.3399
 3793TIP3   OH232869   3.000   3.691  11.510 -0.2154  0.4400 -0.2507
 3793TIP3    H132870   3.004   3.623  11.577 -2.1071 -0.9991 -1.5460
 3793TIP3    H232871   2.995   3.642  11.427  2.3676  2.1736 -1.4855
 3794TIP3   OH232872   3.252   4.953  13.140 -0.6032 -0.1134  0.3208
 3794TIP3    H132873   3.203   5.023  13.183 -1.1581 -0.1326 -0.2709
 3794TIP3    H232874   3.187   4.884  13.126  0.0715 -0.9792  1.4271
 3795TIP3   OH232875   0.444   2.176   5.407  0.3588 -0.2467  0.3651
 3795TIP3    H132876   0.414   2.094   5.446 -0.4975 -0.3303 -0.4347
 3795TIP3    H232877   0.367   2.211   5.362  1.9882 -1.6047 -3.7312
 3796TIP3   OH232878   3.986   3.680  15.958 -0.4256 -0.1137  0.0420
 3796TIP3    H132879   3.916   3.689  15.893  0.1832 -0.8369 -0.7306
 3796TIP3    H232880   3.982   3.761  16.009 -0.0692  1.0595 -1.7355
 3797TIP3   OH232881   3.687   4.389   2.531 -0.2781 -0.2594  0.1424
 3797TIP3    H132882   3.703   4.297   2.554 -0.9503 -0.2415  0.6968
 3797TIP3    H232883   3.752   4.438   2.582 -1.4022 -0.2627  1.6179
 3798TIP3   OH232884   1.876   3.382   0.510 -0.5891 -0.4056  0.0412
 3798TIP3    H132885   1.808   3.361   0.447  0.3530  0.4018 -1.2628
 3798TIP3    H232886   1.956   3.388   0.458  0.4004 -0.8706  1.4836
 3799TIP3   OH232887   2.443   2.170   5.624 -0.2937  0.1193  0.3549
 3799TIP3    H132888   2.523   2.165   5.570 -1.9709 -1.1145 -2.1372
 3799TIP3    H232889   2.457   2.105   5.693  1.7381  1.4444  1.2317
 3800TIP3   OH232890   1.451   6.000  13.574 -0.2731  0.0301  0.4205
 3800TIP3    H132891   1.372   5.949  13.590  0.0243 -1.7434 -3.2309
 3800TIP3    H232892   1.523   5.937  13.581  0.6581  1.2024  1.7038
 3801TIP3   OH232893   1.898   2.631   3.206  0.1099  0.5520 -0.1548
 3801TIP3    H132894   1.990   2.655   3.206  0.2294  0.0945 -0.3588
 3801TIP3    H232895   1.872   2.633   3.298  0.7434 -0.9336  0.0734
 3802TIP3   OH232896   4.503   0.610   1.748  0.2411 -0.4882 -0.0195
 3802TIP3    H132897   4.469   0.544   1.808  1.7131 -0.2075  1.1655
 3802TIP3    H232898   4.491   0.693   1.794  1.1177 -0.2382 -0.2307
 3803TIP3   OH232899   3.313   1.481  13.128 -0.2063 -0.0048  0.6038
 3803TIP3    H132900   3.334   1.569  13.097 -1.2024  1.1637  3.1405
 3803TIP3    H232901   3.233   1.457  13.080  0.9443 -0.2146 -1.2615
 3804TIP3   OH232902   1.535   2.302   4.340 -0.5249  0.6851  0.0923
 3804TIP3    H132903   1.450   2.346   4.338 -0.6140  0.4918 -1.4173
 3804TIP3    H232904   1.573   2.320   4.253 -0.3315 -1.7517 -0.3584
 3805TIP3   OH232905   4.852   0.306   3.590  0.6180 -0.2180 -0.5637
 3805TIP3    H132906   4.820   0.276   3.505  0.2283 -0.2646 -0.4023
 3805TIP3    H232907   4.772   0.326   3.640  0.8192 -1.3305  0.2105
 3806TIP3   OH232908   6.819   5.884  17.154  0.3073 -0.5368 -0.5874
 3806TIP3    H132909   6.892   5.910  17.209 -0.4461  1.1879 -0.3754
 3806TIP3    H232910   6.856   5.877  17.066  0.9947 -0.9328 -0.2699
 3807TIP3   OH232911   3.185   3.866   2.357  0.6781 -0.5182 -0.4566
 3807TIP3    H132912   3.105   3.887   2.309  1.3083  1.3406 -0.7026
 3807TIP3    H232913   3.186   3.927   2.431  2.4745  0.2941 -1.1267
 3808TIP3   OH232914   4.576   1.201   0.758 -0.1804 -0.2807  0.2081
 3808TIP3    H132915   4.533   1.140   0.699  2.5524 -1.1942 -0.9202
 3808TIP3    H232916   4.637   1.147   0.809  1.8917  1.3501 -0.4297
 3809TIP3   OH232917   3.971   1.975  14.446 -0.9990  0.0238 -0.0188
 3809TIP3    H132918   3.961   2.029  14.367 -0.8567 -0.0960 -0.1195
 3809TIP3    H232919   3.881   1.959  14.475 -1.0031  3.1280  1.9547
 3810TIP3   OH232920   2.159   3.209  14.871  0.4399  0.1964 -0.1708
 3810TIP3    H132921   2.120   3.293  14.894  0.4999 -0.0313  0.7786
 3810TIP3    H232922   2.093   3.166  14.815 -0.5930 -0.0978  1.2516
 3811TIP3   OH232923   2.744   0.474  14.061  0.1076 -0.0694  0.3856
 3811TIP3    H132924   2.672   0.418  14.089  0.0783 -0.0593  0.3312
 3811TIP3    H232925   2.768   0.440  13.975  1.0627 -0.9254  0.9816
 3812TIP3   OH232926   0.277   4.560   2.691 -0.4096  0.4521  0.3787
 3812TIP3    H132927   0.289   4.654   2.673 -0.5774  0.4224  0.1040
 3812TIP3    H232928   0.341   4.540   2.759 -1.0180  0.9805  1.1253
 3813TIP3   OH232929   1.505   1.402  11.683  0.5756  0.1059 -0.3655
 3813TIP3    H132930   1.477   1.338  11.617  0.7267 -1.1868  0.8092
 3813TIP3    H232931   1.588   1.368  11.715 -0.5755 -0.4830  2.0904
 3814TIP3   OH232932   1.818   1.253   5.651  0.4171  0.2733  0.1048
 3814TIP3    H132933   1.814   1.164   5.616  1.0410  0.9529 -1.7671
 3814TIP3    H232934   1.844   1.241   5.743  0.3211 -1.4783 -0.0726
 3815TIP3   OH232935   5.060   5.801  13.489  0.2089  1.3326  0.0416
 3815TIP3    H132936   5.076   5.885  13.445 -0.1682  2.1403  1.4327
 3815TIP3    H232937   5.013   5.749  13.423  0.3098  2.2634 -0.7827
 3816TIP3   OH232938   2.203   2.349   1.227 -0.0365 -0.1817  0.0019
 3816TIP3    H132939   2.134   2.284   1.235  1.5823 -1.8589  0.8540
 3816TIP3    H232940   2.281   2.299   1.204  1.1636  1.5187  0.2070
 3817TIP3   OH232941   1.163   5.119  16.250 -0.7987  0.0077 -0.1025
 3817TIP3    H132942   1.216   5.083  16.322 -1.3861 -0.5043  0.0829
 3817TIP3    H232943   1.176   5.057  16.178  1.5022  1.6650 -1.1612
 3818TIP3   OH232944   1.777   2.215  12.430  0.4100  0.5554 -0.1986
 3818TIP3    H132945   1.715   2.156  12.473  1.8374  0.5297  1.9269
 3818TIP3    H232946   1.821   2.161  12.365  0.7557 -0.3905  0.8036
 3819TIP3   OH232947   5.402   3.193  11.131 -0.0766  0.3110  0.2870
 3819TIP3    H132948   5.479   3.163  11.083 -0.2086  1.0695 -0.4203
 3819TIP3    H232949   5.383   3.123  11.194  1.7318  0.5331  1.1065
 3820TIP3   OH232950   0.782   3.446  11.296 -0.0648  0.3301  0.4573
 3820TIP3    H132951   0.752   3.448  11.205  0.0897 -1.6103  0.3474
 3820TIP3    H232952   0.873   3.418  11.291 -0.5996 -1.5764  1.3280
 3821TIP3   OH232953   5.381   6.677   2.983 -0.3235  0.5374 -0.9434
 3821TIP3    H132954   5.285   6.685   2.977 -0.7671 -2.6498  0.7842
 3821TIP3    H232955   5.397   6.658   3.076  2.0408  1.4619 -1.1460
 3822TIP3   OH232956   1.917   1.348   0.102 -0.4008 -0.6890  0.4085
 3822TIP3    H132957   1.921   1.369   0.195 -1.6058  1.9169 -0.0615
 3822TIP3    H232958   1.849   1.280   0.095 -0.0869 -1.1175  1.4591
 3823TIP3   OH232959   6.170   4.879   4.584  0.4964  0.3409 -0.3230
 3823TIP3    H132960   6.186   4.903   4.675 -0.1037  0.6895 -0.3033
 3823TIP3    H232961   6.234   4.931   4.534  0.3357  0.7076 -0.1521
 3824TIP3   OH232962   2.274   5.859  11.247 -0.4692 -0.4390  0.5917
 3824TIP3    H132963   2.211   5.787  11.243  0.1269 -1.0712  2.2597
 3824TIP3    H232964   2.355   5.821  11.213 -0.4816 -0.1702  0.2545
 3825TIP3   OH232965   3.981   0.103   5.218 -0.2713 -0.1222  0.3210
 3825TIP3    H132966   4.044   0.048   5.266  0.4611  1.0409  0.7098
 3825TIP3    H232967   3.994   0.079   5.126  1.2984  0.6590  0.3215
 3826TIP3   OH232968   1.299   1.145  10.938 -0.2890  0.7389  0.4153
 3826TIP3    H132969   1.234   1.106  10.996  0.6793  3.0097  3.1315
 3826TIP3    H232970   1.360   1.190  10.997  2.6386  0.3158 -2.1714
 3827TIP3   OH232971   0.357   4.536   5.365 -0.5768 -0.1303  0.2542
 3827TIP3    H132972   0.348   4.604   5.431  2.6043  0.0606  0.5631
 3827TIP3    H232973   0.282   4.549   5.307 -1.8500  1.4875  2.1879
 3828TIP3   OH232974   1.796   1.651   4.282 -0.1555 -0.6499  0.3270
 3828TIP3    H132975   1.746   1.681   4.206 -1.1104 -1.4385  0.6317
 3828TIP3    H232976   1.846   1.576   4.249  0.7488  0.0637  0.0527
 3829TIP3   OH232977   4.304   2.569  11.611  0.7807 -0.3898  0.2875
 3829TIP3    H132978   4.226   2.614  11.644  0.7455  0.6389 -1.1419
 3829TIP3    H232979   4.320   2.500  11.675 -0.4625  0.2802  1.3643
 3830TIP3   OH232980   2.829   4.560  16.302 -0.4565 -0.5445 -0.0060
 3830TIP3    H132981   2.766   4.552  16.231  0.0767  1.3924 -0.7338
 3830TIP3    H232982   2.781   4.532  16.380 -1.1113 -2.4519 -1.0787
 3831TIP3   OH232983   3.427   1.386  16.859  0.1910 -0.0164  0.3665
 3831TIP3    H132984   3.451   1.456  16.798 -1.2154 -2.3087 -2.9485
 3831TIP3    H232985   3.345   1.415  16.897 -0.0795  0.4408 -0.5356
 3832TIP3   OH232986   5.007   6.506  12.885  0.1282  0.2407 -0.4664
 3832TIP3    H132987   5.056   6.509  12.802 -0.6047  2.6060 -0.8641
 3832TIP3    H232988   4.921   6.473  12.861  0.8599 -1.9601 -0.1166
 3833TIP3   OH232989   4.487   6.414   2.325 -0.2254 -0.1898 -0.0800
 3833TIP3    H132990   4.471   6.476   2.396  0.0566 -2.2207  1.8162
 3833TIP3    H232991   4.561   6.451   2.277 -0.4913  1.2834  0.6366
 3834TIP3   OH232992   5.847   0.342   3.738 -0.2164 -0.2193  0.3629
 3834TIP3    H132993   5.858   0.258   3.694 -0.3665 -0.3217  0.5208
 3834TIP3    H232994   5.933   0.362   3.775  0.2260  0.4501 -1.0118
 3835TIP3   OH232995   0.961   1.757   0.994 -0.2063 -0.4845  0.1555
 3835TIP3    H132996   0.965   1.700   0.917 -0.9192 -0.2784 -0.0445
 3835TIP3    H232997   0.983   1.700   1.067 -3.3710 -1.6832  0.2768
 3836TIP3   OH232998   2.237   5.943   2.006 -0.6031  0.4602  0.1819
 3836TIP3    H132999   2.201   5.897   1.930 -0.8755  0.6795  0.1785
 3836TIP3    H233000   2.169   6.005   2.031 -1.6165 -1.4045  2.2111
 3837TIP3   OH233001   5.622   4.877   2.829  0.2393  0.1552 -0.5469
 3837TIP3    H133002   5.610   4.886   2.734  1.0836  0.4562 -0.6345
 3837TIP3    H233003   5.579   4.795   2.851  1.9670 -1.0679 -1.5742
 3838TIP3   OH233004   4.919   0.464   0.812 -0.6255 -0.1952  0.2758
 3838TIP3    H133005   4.889   0.542   0.858 -0.2806  0.0194  0.1402
 3838TIP3    H233006   4.874   0.391   0.855 -2.2137  0.2142 -0.6861
 3839TIP3   OH233007   5.992   0.977   2.101 -0.4243  0.4970 -0.7705
 3839TIP3    H133008   5.949   1.047   2.150  2.2645 -0.9166  3.9179
 3839TIP3    H233009   6.080   1.010   2.085 -0.3106 -0.3211 -1.8942
 3840TIP3   OH233010   4.052   2.058  13.406 -0.2732 -0.2804  0.5034
 3840TIP3    H133011   4.147   2.068  13.402 -0.2762 -0.6621 -0.8627
 3840TIP3    H233012   4.038   1.982  13.462  0.2207 -0.0637  0.9190
 3841TIP3   OH233013   6.313   6.607   3.692 -0.0228  0.1708 -0.3372
 3841TIP3    H133014   6.254   6.638   3.761  1.2663 -1.2540  1.4735
 3841TIP3    H233015   6.259   6.553   3.635 -0.6663 -0.3616  0.7725
 3842TIP3   OH233016   5.471   1.239  15.316  0.0096 -0.0344  0.0605
 3842TIP3    H133017   5.378   1.262  15.320  0.2039  1.3098 -2.6553
 3842TIP3    H233018   5.515   1.320  15.292  1.9222 -0.6679  1.2999
 3843TIP3   OH233019   1.408   4.249  15.228  0.4430  0.2505  0.0744
 3843TIP3    H133020   1.373   4.246  15.317 -0.1549  1.0017 -0.1176
 3843TIP3    H233021   1.336   4.286  15.176  0.7369 -0.3184 -0.7411
 3844TIP3   OH233022   4.854   2.121   0.990 -0.3596 -0.3484 -0.5562
 3844TIP3    H133023   4.925   2.185   1.000  0.3122 -1.0454 -0.7723
 3844TIP3    H233024   4.831   2.098   1.080 -2.2026  1.8984 -0.4017
 3845TIP3   OH233025   0.888   4.246   3.921 -0.2148 -0.3340 -0.7906
 3845TIP3    H133026   0.963   4.299   3.895  0.6749 -0.8843  0.5846
 3845TIP3    H233027   0.890   4.170   3.862  1.1875 -1.0797  0.1968
 3846TIP3   OH233028   1.369   1.919   0.947 -0.0032  0.7360 -0.0889
 3846TIP3    H133029   1.349   1.831   0.915 -0.6380  0.7841  0.1741
 3846TIP3    H233030   1.310   1.931   1.021  3.4219 -0.4925  2.9594
 3847TIP3   OH233031   1.628   0.345  15.280 -0.0671  0.3999  0.0439
 3847TIP3    H133032   1.709   0.392  15.301 -0.8681  2.0263 -0.4635
 3847TIP3    H233033   1.633   0.265  15.332  1.3683  0.9792  0.8312
 3848TIP3   OH233034   5.719   3.348   0.592  0.1243  0.3601 -0.6656
 3848TIP3    H133035   5.722   3.253   0.596  0.7385  0.3882 -0.4661
 3848TIP3    H233036   5.668   3.374   0.670 -0.4716  0.1732 -0.9917
 3849TIP3   OH233037   3.794   2.865  16.172  0.0262 -0.3974 -0.2147
 3849TIP3    H133038   3.728   2.840  16.237  0.2447  0.5998  0.3976
 3849TIP3    H233039   3.776   2.809  16.097 -0.2014 -1.6010  0.7266
 3850TIP3   OH233040   4.601   4.257  11.240  0.2194  0.5592 -0.3703
 3850TIP3    H133041   4.639   4.178  11.202 -2.4461 -0.4622 -1.0634
 3850TIP3    H233042   4.668   4.325  11.229  1.3699 -0.8827 -2.4896
 3851TIP3   OH233043   6.361   1.448  14.923  0.3899 -0.5025  0.5007
 3851TIP3    H133044   6.371   1.358  14.953  1.2137 -0.9063 -0.9567
 3851TIP3    H233045   6.449   1.486  14.933 -0.6510  1.2057  4.3732
 3852TIP3   OH233046   5.727   3.121   4.042 -0.5373 -0.1273  0.3959
 3852TIP3    H133047   5.665   3.124   4.115  0.1149  0.1556  0.9574
 3852TIP3    H233048   5.713   3.203   3.995 -1.5886 -0.7201 -0.3375
 3853TIP3   OH233049   0.945   3.136  12.080 -0.1661 -0.2950  0.4011
 3853TIP3    H133050   0.915   3.046  12.095  0.4019 -0.5640 -0.0356
 3853TIP3    H233051   0.866   3.189  12.087 -0.3653 -0.7303  1.5052
 3854TIP3   OH233052   1.828   0.663  10.217 -0.0831 -0.3380 -0.2890
 3854TIP3    H133053   1.866   0.728  10.157  0.0114 -1.2791 -1.2579
 3854TIP3    H233054   1.735   0.660  10.194 -0.9729  2.4680  2.5395
 3855TIP3   OH233055   0.168   3.716  11.646 -0.0505  0.1666 -0.1253
 3855TIP3    H133056   0.084   3.705  11.691 -0.2231  0.8060 -0.2873
 3855TIP3    H233057   0.231   3.669  11.701 -0.5193 -0.3678 -0.0365
 3856TIP3   OH233058   1.880   1.008   3.854 -0.0471 -0.1912  0.1930
 3856TIP3    H133059   1.858   0.922   3.819  2.0785  0.6710 -3.5451
 3856TIP3    H233060   1.910   0.990   3.944 -1.3625 -3.0675  0.1208
 3857TIP3   OH233061   5.157   0.567  13.800  0.3791  0.7566 -0.9857
 3857TIP3    H133062   5.215   0.512  13.747  0.1455  1.0233 -1.5299
 3857TIP3    H233063   5.069   0.541  13.773  0.1985 -1.0898  1.3144
 3858TIP3   OH233064   2.905   4.428   3.076 -0.4488  1.2099  0.4710
 3858TIP3    H133065   2.866   4.509   3.044 -1.5600 -0.2019 -1.9105
 3858TIP3    H233066   2.899   4.434   3.171 -1.6679  3.3432  0.2903
 3859TIP3   OH233067   4.796   3.249  17.110  0.0948  0.7547 -0.1022
 3859TIP3    H133068   4.767   3.201  17.033  0.1011 -0.9802  0.9464
 3859TIP3    H233069   4.853   3.318  17.076 -1.6063  1.3630 -1.8124
 3860TIP3   OH233070   6.234   5.311  11.350  0.1803  0.2862 -0.2350
 3860TIP3    H133071   6.243   5.298  11.255 -0.9167 -0.2696 -0.2713
 3860TIP3    H233072   6.142   5.335  11.362  0.2133 -0.0615  0.7377
 3861TIP3   OH233073   3.601   0.805  15.901  0.2152  0.1244  0.0000
 3861TIP3    H133074   3.594   0.716  15.865 -0.5412  0.1788  0.0227
 3861TIP3    H233075   3.635   0.857  15.828 -0.5310  0.0682 -0.3930
 3862TIP3   OH233076   3.063   3.182   4.993  0.3855 -0.1589  0.0131
 3862TIP3    H133077   3.036   3.235   4.919  0.4869 -1.0435 -0.6699
 3862TIP3    H233078   3.132   3.125   4.958  0.4279 -0.5896  0.7761
 3863TIP3   OH233079   1.103   5.311   3.819  0.3175 -1.0798  0.3670
 3863TIP3    H133080   1.179   5.306   3.878 -0.1255  1.5360  1.2281
 3863TIP3    H233081   1.040   5.365   3.867 -0.8033 -0.5119 -1.7182
 3864TIP3   OH233082   3.404   3.295   2.279  0.2407 -0.4570 -0.2026
 3864TIP3    H133083   3.420   3.201   2.292 -1.6357 -0.5543  1.7464
 3864TIP3    H233084   3.489   3.336   2.295  0.9156 -1.7742 -0.3140
 3865TIP3   OH233085   4.633   2.031  13.334  0.1900 -0.4102  0.1248
 3865TIP3    H133086   4.633   1.942  13.299  0.0817 -0.2202 -0.3611
 3865TIP3    H233087   4.720   2.040  13.374  0.3196 -0.6319 -0.0986
 3866TIP3   OH233088   5.919   6.653   4.822  0.4910  0.5039  0.2737
 3866TIP3    H133089   5.832   6.689   4.840 -0.1080 -1.2150  0.9397
 3866TIP3    H233090   5.960   6.644   4.909  1.4876  1.6770 -0.0649
 3867TIP3   OH233091   4.448   5.754   2.152  0.1225 -0.0257  0.4095
 3867TIP3    H133092   4.467   5.721   2.064  0.4404 -0.9895  0.8233
 3867TIP3    H233093   4.386   5.690   2.188  0.6390 -0.1049  1.1798
 3868TIP3   OH233094   1.562   4.451   2.655 -0.1266  0.1252 -0.2438
 3868TIP3    H133095   1.610   4.433   2.736 -1.4186 -1.5507  0.1881
 3868TIP3    H233096   1.529   4.539   2.666  4.0744  1.9565 -1.2069
 3869TIP3   OH233097   0.475   2.005  12.694  0.6052 -0.5177  0.0345
 3869TIP3    H133098   0.485   1.910  12.681  1.3169 -0.6095  1.2075
 3869TIP3    H233099   0.560   2.041  12.668  0.0199 -0.1017 -1.3150
 3870TIP3   OH233100   4.268   4.347   4.271  0.0526 -0.3290 -0.5592
 3870TIP3    H133101   4.247   4.438   4.254 -2.1246 -1.1942 -2.7609
 3870TIP3    H233102   4.310   4.348   4.357  1.2094  2.8687 -1.0912
 3871TIP3   OH233103   5.231   2.386   2.367 -0.3772  0.5903 -0.0999
 3871TIP3    H133104   5.259   2.356   2.281  0.1244  0.1265  0.2208
 3871TIP3    H233105   5.267   2.321   2.428 -1.3640  0.5013  0.3940
 3872TIP3   OH233106   5.592   6.807   1.239  0.0134 -0.2116 -0.0737
 3872TIP3    H133107   5.666   6.777   1.291  0.7307 -1.6583 -1.8670
 3872TIP3    H233108   5.572   6.894   1.273  0.4361 -1.1061  2.6003
 3873TIP3   OH233109   3.942   4.662  13.468 -0.3303  0.2792  0.3494
 3873TIP3    H133110   4.029   4.699  13.486 -0.6255  1.1025  0.0942
 3873TIP3    H233111   3.915   4.703  13.386 -0.6256 -0.5847  0.0058
 3874TIP3   OH233112   0.189   3.765  15.747 -0.0814 -0.4866 -0.1263
 3874TIP3    H133113   0.185   3.812  15.663  0.2341  0.9723  0.6527
 3874TIP3    H233114   0.099   3.738  15.763  0.0334 -1.6866 -1.4354
 3875TIP3   OH233115   4.590   0.160  15.230 -0.5680  0.0113  0.0751
 3875TIP3    H133116   4.543   0.224  15.284 -0.6872 -0.2386  0.2646
 3875TIP3    H233117   4.521   0.104  15.194 -0.6250  1.0331 -1.4567
 3876TIP3   OH233118   4.383   6.726  12.560 -0.1104 -0.4850 -0.1367
 3876TIP3    H133119   4.369   6.781  12.637 -2.1483 -0.6410 -0.3774
 3876TIP3    H233120   4.347   6.641  12.584 -1.4709 -0.3242 -1.4999
 3877TIP3   OH233121   6.077   4.187   2.866  0.0406  0.1147  0.2550
 3877TIP3    H133122   6.153   4.184   2.924  0.8521 -0.0997 -0.8114
 3877TIP3    H233123   6.037   4.101   2.875 -0.4880  0.4703  1.3582
 3878TIP3   OH233124   4.950   0.626   4.779 -0.5283 -0.4657 -0.2608
 3878TIP3    H133125   4.889   0.564   4.820  0.0990  0.0332  1.4690
 3878TIP3    H233126   4.900   0.707   4.771 -0.7495 -0.6482 -0.8119
 3879TIP3   OH233127   5.594   6.449  11.876 -0.2768 -0.0042  0.3390
 3879TIP3    H133128   5.551   6.425  11.793  0.3756  1.6445 -0.5036
 3879TIP3    H233129   5.568   6.540  11.891  2.5517  0.9002  0.0103
 3880TIP3   OH233130   2.971   2.174   6.222 -0.2303 -0.0086  0.0582
 3880TIP3    H133131   3.048   2.205   6.269 -1.0099  0.5550  0.9714
 3880TIP3    H233132   2.997   2.177   6.130  0.5002  1.1302  0.2878
 3881TIP3   OH233133   3.560   4.349  14.870 -0.3664  0.2011 -0.1957
 3881TIP3    H133134   3.638   4.376  14.920  0.0517 -3.0795  1.0587
 3881TIP3    H233135   3.588   4.353  14.779  0.5499  1.2519  0.1168
 3882TIP3   OH233136   0.816   6.249   3.232  0.0015  0.5528 -0.6499
 3882TIP3    H133137   0.807   6.213   3.320 -1.2572  3.4088  0.4762
 3882TIP3    H233138   0.732   6.229   3.190  1.1494 -2.1018 -1.7469
 3883TIP3   OH233139   3.963   2.693   0.026  0.6815 -0.4885 -1.0972
 3883TIP3    H133140   3.911   2.613   0.019  2.0304 -1.4741  0.0449
 3883TIP3    H233141   3.898   2.763   0.029 -0.5229 -1.5463 -1.8737
 3884TIP3   OH233142   5.320   6.110   0.569  0.2499 -0.3843  0.0092
 3884TIP3    H133143   5.331   6.053   0.646 -0.5785  0.7217  0.9526
 3884TIP3    H233144   5.283   6.191   0.604 -0.5681 -0.0378 -1.6214
 3885TIP3   OH233145   4.692   2.183   4.010  0.3127 -0.4668  0.1942
 3885TIP3    H133146   4.763   2.166   3.948  0.1550  0.7145 -0.3179
 3885TIP3    H233147   4.661   2.271   3.988  0.1615 -0.0876  1.8538
 3886TIP3   OH233148   1.289   3.542   5.896  0.0264  0.4910  0.0114
 3886TIP3    H133149   1.320   3.474   5.835 -0.7362  0.3049 -0.1759
 3886TIP3    H233150   1.296   3.501   5.982  0.4645  0.5157 -0.0083
 3887TIP3   OH233151   2.942   4.774   0.272 -0.3210  0.1677  0.0013
 3887TIP3    H133152   3.033   4.749   0.259 -1.4476 -4.6983  0.1619
 3887TIP3    H233153   2.929   4.772   0.366 -1.1263 -1.8132 -0.1063
 3888TIP3   OH233154   0.383   0.511  11.774 -0.3881 -0.3803  0.5057
 3888TIP3    H133155   0.388   0.519  11.869  0.9576 -1.2906  0.5295
 3888TIP3    H233156   0.473   0.521  11.744 -0.7547 -0.3937 -0.6539
 3889TIP3   OH233157   5.319   4.592  10.385 -0.0518 -0.0975  0.0728
 3889TIP3    H133158   5.412   4.612  10.389 -0.2094  0.4793  0.8516
 3889TIP3    H233159   5.285   4.648  10.315  0.2118 -0.4437 -0.3395
 3890TIP3   OH233160   1.750   6.526  12.446 -0.0993  0.0991  0.6164
 3890TIP3    H133161   1.694   6.493  12.376  0.0113 -1.2953  1.1762
 3890TIP3    H233162   1.836   6.486  12.429  0.5107  1.5117  0.2808
 3891TIP3   OH233163   3.248   1.075  12.435  0.1954 -0.5499  0.0178
 3891TIP3    H133164   3.208   1.160  12.452  1.0094 -0.2094  0.2240
 3891TIP3    H233165   3.339   1.095  12.414  0.4133 -1.3737  0.1709
 3892TIP3   OH233166   5.941   1.840   5.865  0.0489 -0.1328  0.2108
 3892TIP3    H133167   5.959   1.855   5.957  1.3164 -1.3989  0.1879
 3892TIP3    H233168   5.846   1.845   5.858 -0.0853 -0.3872  1.6503
 3893TIP3   OH233169   5.535   5.226  12.775  0.2901  0.2447 -0.2861
 3893TIP3    H133170   5.510   5.273  12.696 -1.7592  1.0025  0.7430
 3893TIP3    H233171   5.451   5.209  12.819  1.5166  3.0420  3.4638
 3894TIP3   OH233172   5.430   2.647  16.132 -0.1647 -0.0078  0.0445
 3894TIP3    H133173   5.403   2.700  16.207  0.9456  0.8837 -0.1618
 3894TIP3    H233174   5.356   2.588  16.116 -1.5329  1.6045  0.1788
 3895TIP3   OH233175   5.801   4.997  12.162  0.2001  0.0630  0.1551
 3895TIP3    H133176   5.773   4.938  12.232  1.6746 -0.6743  0.1487
 3895TIP3    H233177   5.759   4.962  12.084 -1.7064  1.0778  0.6975
 3896TIP3   OH233178   1.640   4.359  14.740 -0.2751  0.0076 -0.0382
 3896TIP3    H133179   1.576   4.314  14.795 -0.5739 -1.9988 -2.0068
 3896TIP3    H233180   1.721   4.309  14.751  0.0129  0.3858 -0.4010
 3897TIP3   OH233181   0.651   1.036   1.665 -0.8649  0.1944 -0.2034
 3897TIP3    H133182   0.616   0.995   1.586  0.0012 -1.5060  0.2720
 3897TIP3    H233183   0.580   1.090   1.698 -1.6512 -0.0593 -1.4653
 3898TIP3   OH233184   0.282   2.338  13.111  0.2690 -0.6504 -0.2848
 3898TIP3    H133185   0.300   2.352  13.018 -1.3304  0.2753 -0.4589
 3898TIP3    H233186   0.341   2.398  13.156 -0.4418  0.4121 -0.7678
 3899TIP3   OH233187   5.639   3.086  12.586 -1.0472 -0.2306  0.1159
 3899TIP3    H133188   5.635   3.174  12.547 -0.6718 -1.5647 -3.1406
 3899TIP3    H233189   5.691   3.097  12.665  0.5200  2.1659 -1.1887
 3900TIP3   OH233190   0.399   2.715  12.644 -0.5822 -0.9900 -0.0965
 3900TIP3    H133191   0.394   2.792  12.587  0.4059 -1.4615 -0.8308
 3900TIP3    H233192   0.413   2.751  12.731  1.2771 -0.3630 -0.6290
 3901TIP3   OH233193   5.026   3.017   3.887 -0.4988 -0.3518 -0.2447
 3901TIP3    H133194   5.072   3.093   3.921 -2.0102  0.4420  0.0605
 3901TIP3    H233195   4.938   3.024   3.923 -0.5108 -2.5312  0.2157
 3902TIP3   OH233196   3.164   5.743  11.841 -0.2652  0.4622  0.4350
 3902TIP3    H133197   3.223   5.727  11.914 -1.3007  0.1067  1.1982
 3902TIP3    H233198   3.192   5.682  11.773  2.0544  2.2309 -0.2723
 3903TIP3   OH233199   3.732   4.642   4.319 -0.6874 -0.0799  0.6311
 3903TIP3    H133200   3.791   4.716   4.337  0.4902 -0.5746 -1.1246
 3903TIP3    H233201   3.727   4.596   4.403  2.4023 -0.6971  0.5475
 3904TIP3   OH233202   3.004   1.361   3.452  0.1607 -0.2673 -0.5508
 3904TIP3    H133203   3.045   1.376   3.367  0.9277 -1.0977 -0.3297
 3904TIP3    H233204   2.944   1.288   3.437 -1.2329  0.9130 -0.8634
 3905TIP3   OH233205   4.310   6.101  11.343  0.2376  0.3106 -0.1297
 3905TIP3    H133206   4.351   6.030  11.391 -0.0100 -0.4301 -0.9958
 3905TIP3    H233207   4.217   6.093  11.363  0.1084 -0.1258 -0.8828
 3906TIP3   OH233208   2.002   3.848   6.084 -0.2867  0.6433 -0.6200
 3906TIP3    H133209   2.094   3.868   6.100 -0.2172 -0.5887  0.5925
 3906TIP3    H233210   1.967   3.927   6.043  0.6416  2.1745  1.4505
 3907TIP3   OH233211   3.743   3.983   4.583 -0.3543 -0.2135  0.2607
 3907TIP3    H133212   3.756   3.909   4.643  0.8581  1.7753  2.5667
 3907TIP3    H233213   3.664   4.026   4.615 -0.5117  0.0580 -0.4881
 3908TIP3   OH233214   3.427   6.597  14.354  0.1824  1.0037  0.1223
 3908TIP3    H133215   3.505   6.609  14.301  0.1957  1.8638  0.3272
 3908TIP3    H233216   3.393   6.686  14.367 -1.7295  0.5036 -1.3064
 3909TIP3   OH233217   5.709   0.087   2.288  0.1424 -0.4490  0.0723
 3909TIP3    H133218   5.706   0.063   2.380  0.8944  2.2929  0.8434
 3909TIP3    H233219   5.690   0.181   2.286 -2.4576 -0.9484 -2.8054
 3910TIP3   OH233220   1.650   6.716  14.297 -0.5199 -0.2956  0.0823
 3910TIP3    H133221   1.629   6.623  14.288 -0.4288 -0.2754 -0.3366
 3910TIP3    H233222   1.729   6.727  14.245 -0.3704 -0.0408  0.3667
 3911TIP3   OH233223   5.648   4.334  14.738 -0.2611  0.1996 -0.1866
 3911TIP3    H133224   5.687   4.385  14.667  1.1931 -0.4331  0.1371
 3911TIP3    H233225   5.621   4.252  14.697  2.6104 -1.0929  0.3696
 3912TIP3   OH233226   6.485   1.581   5.443 -0.1776 -0.0571 -0.6165
 3912TIP3    H133227   6.393   1.594   5.466 -0.3050 -0.1324 -1.0755
 3912TIP3    H233228   6.484   1.508   5.381  0.0566  0.6972 -1.5325
 3913TIP3   OH233229   2.500   3.232   5.144 -0.0532  0.1440  0.0857
 3913TIP3    H133230   2.557   3.296   5.101  0.3982  0.3976  1.0373
 3913TIP3    H233231   2.437   3.285   5.193  1.1153 -0.1183  1.9129
 3914TIP3   OH233232   0.014   5.982  14.999  0.5406  0.3620 -0.0918
 3914TIP3    H133233  -0.081   5.976  15.004  0.4982 -1.6825 -2.2547
 3914TIP3    H233234   0.039   6.041  15.070 -2.2603  0.2154  1.0557
 3915TIP3   OH233235   4.443   4.854  14.652 -0.1526  0.1662 -0.1529
 3915TIP3    H133236   4.403   4.772  14.680  3.4019 -1.7009 -0.3356
 3915TIP3    H233237   4.443   4.850  14.557 -0.9836  0.9120 -0.1924
 3916TIP3   OH233238   2.065   6.598  11.708  0.3244 -0.1189 -0.0169
 3916TIP3    H133239   1.993   6.651  11.673  0.2554 -0.7490 -0.8655
 3916TIP3    H233240   2.144   6.647  11.686  0.1926  0.2249  0.2795
 3917TIP3   OH233241   3.959   0.451   4.882 -0.0590 -0.1615  0.2897
 3917TIP3    H133242   3.967   0.541   4.850 -0.0411 -0.9058 -1.8908
 3917TIP3    H233243   4.031   0.441   4.944  0.1631  1.2090  0.2646
 3918TIP3   OH233244   3.326   2.299  12.464 -0.2929 -0.2267 -0.4674
 3918TIP3    H133245   3.235   2.269  12.454 -0.5459 -0.4274  2.0246
 3918TIP3    H233246   3.320   2.370  12.528  1.4624 -1.1837  0.7841
 3919TIP3   OH233247   4.186   1.564   4.430  0.2451  0.4649 -0.1446
 3919TIP3    H133248   4.174   1.649   4.387 -0.0520 -0.7219 -2.5341
 3919TIP3    H233249   4.247   1.517   4.373 -2.6045 -2.3347 -1.0153
 3920TIP3   OH233250   5.832   1.060   3.533 -0.8412  0.2090 -0.0316
 3920TIP3    H133251   5.763   1.052   3.467  0.2168 -0.9892 -1.0400
 3920TIP3    H233252   5.877   0.976   3.530  0.5816  0.9274  0.6790
 3921TIP3   OH233253   3.717   1.447  13.786  0.1737 -0.1003 -0.1711
 3921TIP3    H133254   3.793   1.459  13.730  0.5131 -0.0522  0.2925
 3921TIP3    H233255   3.653   1.403  13.731  0.2054  0.6810 -0.8365
 3922TIP3   OH233256   1.437   1.923  16.771 -0.0783  0.1108  0.3550
 3922TIP3    H133257   1.358   1.877  16.798 -1.0326  1.3841 -0.2150
 3922TIP3    H233258   1.427   1.936  16.677  0.4189  1.0146  0.4182
 3923TIP3   OH233259   4.693   4.696  15.501 -0.1735 -0.0687  0.2111
 3923TIP3    H133260   4.772   4.750  15.507 -0.8038  0.9067 -0.2570
 3923TIP3    H233261   4.725   4.610  15.474  0.8729 -0.0365  1.2953
 3924TIP3   OH233262   5.515   6.106   4.395 -0.1830 -0.1952  0.1734
 3924TIP3    H133263   5.483   6.027   4.350 -0.4548  0.1899 -0.3159
 3924TIP3    H233264   5.519   6.081   4.487 -3.4111  0.2080  0.4746
 3925TIP3   OH233265   4.173   3.611  13.255 -0.2662 -0.2508  0.4811
 3925TIP3    H133266   4.126   3.556  13.317 -0.1008  0.7377  1.4955
 3925TIP3    H233267   4.111   3.679  13.231  0.6512  1.0742  1.8480
 3926TIP3   OH233268   6.301   5.088   2.272  0.1922  0.0085 -0.2293
 3926TIP3    H133269   6.323   5.181   2.272 -0.4388  0.1701 -0.7290
 3926TIP3    H233270   6.240   5.078   2.345 -0.0686  0.0728 -0.4373
 3927TIP3   OH233271   4.602   0.765  12.201 -0.0867  0.4166 -1.1567
 3927TIP3    H133272   4.633   0.827  12.135 -0.1368  0.0667 -1.5078
 3927TIP3    H233273   4.654   0.784  12.279 -1.1370  1.9303 -0.7896
 3928TIP3   OH233274   3.526   6.044  15.435 -0.2361 -0.6676 -0.9213
 3928TIP3    H133275   3.563   6.025  15.349  2.2730  1.9670 -0.4880
 3928TIP3    H233276   3.600   6.077  15.486 -2.2244  0.2311  1.4502
 3929TIP3   OH233277   1.003   4.542   1.423 -0.0606  0.0243  0.0075
 3929TIP3    H133278   1.082   4.595   1.433  0.2432 -0.2750 -0.7993
 3929TIP3    H233279   1.032   4.452   1.441 -0.3873  0.0176  0.4991
 3930TIP3   OH233280   0.830   4.836   0.158 -0.5405 -0.0976 -0.3705
 3930TIP3    H133281   0.922   4.846   0.134 -0.1994  1.1312  1.2928
 3930TIP3    H233282   0.829   4.849   0.253 -2.5085  0.6030 -0.4628
 3931TIP3   OH233283   4.645   0.762   1.104 -0.4281 -0.5219 -0.5586
 3931TIP3    H133284   4.726   0.747   1.055 -1.1035 -1.1088 -1.5281
 3931TIP3    H233285   4.657   0.713   1.185  1.1361  1.3157  0.3771
 3932TIP3   OH233286   0.369   5.122  16.331 -0.0191 -0.2936  0.0412
 3932TIP3    H133287   0.289   5.152  16.374 -0.3098  0.1042 -0.7537
 3932TIP3    H233288   0.394   5.042  16.377  0.0103  0.4541  1.3204
 3933TIP3   OH233289   1.338   3.690  12.950  0.4745 -0.2852 -0.8796
 3933TIP3    H133290   1.384   3.610  12.976 -1.7980 -1.1256  0.8130
 3933TIP3    H233291   1.342   3.746  13.027 -0.7076 -0.1060 -0.9388
 3934TIP3   OH233292   2.772   4.840   5.501  0.0598  0.1758  0.3235
 3934TIP3    H133293   2.739   4.929   5.517  0.3230  0.3582 -0.1283
 3934TIP3    H233294   2.693   4.787   5.492 -0.0934  0.1231  1.9081
 3935TIP3   OH233295   0.894   3.347  12.698  0.4115 -1.0590  0.2364
 3935TIP3    H133296   0.823   3.284  12.708 -0.0115 -0.4057  1.5700
 3935TIP3    H233297   0.901   3.361  12.604 -2.8055  0.5964  0.1533
 3936TIP3   OH233298   1.334   5.930  14.919  0.5563  0.0342  0.3645
 3936TIP3    H133299   1.328   6.022  14.892  1.7889 -0.1882 -0.7457
 3936TIP3    H233300   1.347   5.882  14.837  0.3960 -1.0757  0.9864
 3937TIP3   OH233301   6.725   6.789  14.391  0.3162  0.0999  0.8590
 3937TIP3    H133302   6.719   6.882  14.412  0.4667  0.5684 -1.1014
 3937TIP3    H233303   6.802   6.782  14.335 -1.1074 -0.8024 -1.0387
 3938TIP3   OH233304   0.887   1.188  12.270 -0.2527  0.1408  0.7061
 3938TIP3    H133305   0.874   1.208  12.363  0.2590 -0.1933  0.8552
 3938TIP3    H233306   0.899   1.093  12.267 -1.6946 -0.0311  0.1202
 3939TIP3   OH233307   5.397   2.147   4.962  0.0120 -0.0731  0.0500
 3939TIP3    H133308   5.316   2.104   4.933  0.0106 -0.0373 -0.0014
 3939TIP3    H233309   5.465   2.082   4.949 -0.3304 -0.8813  2.1980
 3940TIP3   OH233310   1.672   0.883  15.557  0.4803 -0.2703  0.2959
 3940TIP3    H133311   1.760   0.920  15.566  0.0924  0.3624  1.5132
 3940TIP3    H233312   1.685   0.788  15.564  0.9738 -0.1346  1.3084
 3941TIP3   OH233313   5.501   6.496  13.844 -0.2255  0.3072 -0.4380
 3941TIP3    H133314   5.550   6.497  13.762 -0.2706  1.3177 -0.4562
 3941TIP3    H233315   5.412   6.521  13.820 -0.4106 -0.1182 -0.1929
 3942TIP3   OH233316   6.207   3.868   5.717  0.0640  0.1764 -0.1310
 3942TIP3    H133317   6.174   3.808   5.650 -1.3997 -2.4293  2.8344
 3942TIP3    H233318   6.147   3.943   5.713 -0.9877 -0.6790 -0.6483
 3943TIP3   OH233319   2.135   2.727   0.883 -0.0388 -0.2099  0.1302
 3943TIP3    H133320   2.135   2.775   0.801  1.0657  1.2170  0.9575
 3943TIP3    H233321   2.077   2.652   0.866 -0.5008  0.5205 -1.6619
 3944TIP3   OH233322   2.070   5.725  14.229 -0.5460  0.1469  0.1109
 3944TIP3    H133323   1.992   5.670  14.219 -0.2496 -0.4025  0.7916
 3944TIP3    H233324   2.142   5.664  14.238 -0.1389  0.6473  0.3176
 3945TIP3   OH233325   0.281   1.990   4.525 -0.7579  0.1277  0.1676
 3945TIP3    H133326   0.339   2.045   4.578  1.0117 -2.5991  1.2137
 3945TIP3    H233327   0.318   1.992   4.437 -0.1944 -0.0714  0.3999
 3946TIP3   OH233328   6.578   5.688   3.499 -0.0369 -0.2361  0.0779
 3946TIP3    H133329   6.559   5.769   3.547 -1.2531 -1.6358  2.0498
 3946TIP3    H233330   6.494   5.662   3.461  0.1820 -0.9893  0.0995
 3947TIP3   OH233331   0.126   0.070  16.543  0.2139  0.1801  0.2448
 3947TIP3    H133332   0.039   0.094  16.576  0.6631  0.5534  1.1842
 3947TIP3    H233333   0.113  -0.014  16.500 -1.2070  1.6491 -2.2705
 3948TIP3   OH233334   6.377   1.641   2.393 -0.0417  0.0623 -0.4171
 3948TIP3    H133335   6.413   1.706   2.454 -1.5813  1.4661 -0.9716
 3948TIP3    H233336   6.282   1.646   2.407 -0.2403 -1.3770 -1.1828
 3949TIP3   OH233337   4.336   1.924  15.503 -0.2681  0.4864  0.5535
 3949TIP3    H133338   4.392   1.850  15.480 -0.3335  0.6899 -0.2986
 3949TIP3    H233339   4.378   1.964  15.579 -0.0991 -0.2737  0.8684
 3950TIP3   OH233340   0.234   6.461  16.641 -0.2124  0.5302 -0.3346
 3950TIP3    H133341   0.174   6.443  16.569 -0.2395 -2.1259  0.3021
 3950TIP3    H233342   0.205   6.545  16.676 -2.4148  0.1681 -1.2089
 3951TIP3   OH233343   2.606   5.291  13.165 -0.3585 -0.5856  0.3585
 3951TIP3    H133344   2.544   5.312  13.095 -1.2752 -2.1199  0.6976
 3951TIP3    H233345   2.577   5.344  13.239 -1.8316 -1.9472  0.7902
 3952TIP3   OH233346   1.821   5.405   2.273  0.0350 -0.4988 -0.1557
 3952TIP3    H133347   1.900   5.443   2.310  0.2139 -0.0463 -0.9907
 3952TIP3    H233348   1.756   5.475   2.277  0.2511 -0.2153 -1.3218
 3953TIP3   OH233349   0.716   1.864   4.391  0.8863 -0.2803 -0.4561
 3953TIP3    H133350   0.654   1.937   4.390  2.3068  0.9419 -1.7448
 3953TIP3    H233351   0.767   1.876   4.471  0.2321 -0.6328  0.0166
 3954TIP3   OH233352   0.150   4.180  13.159 -0.1912 -0.4758  0.2637
 3954TIP3    H133353   0.138   4.198  13.252 -0.9289 -1.2687  0.3268
 3954TIP3    H233354   0.062   4.177  13.123  0.0453 -1.1842 -0.2664
 3955TIP3   OH233355   2.297   6.735   5.383  0.0623 -0.3617  0.1289
 3955TIP3    H133356   2.279   6.753   5.476 -1.7821  0.0390 -0.2802
 3955TIP3    H233357   2.368   6.671   5.384 -0.4327 -0.9027  1.8276
 3956TIP3   OH233358   4.330   0.663   2.355 -0.2662  0.2409  0.1684
 3956TIP3    H133359   4.272   0.714   2.298 -0.8437  2.4673  2.6843
 3956TIP3    H233360   4.404   0.722   2.373  0.6098 -0.9627  0.5823
 3957TIP3   OH233361   3.488   3.978  16.059  0.7074 -0.0399 -0.4847
 3957TIP3    H133362   3.439   3.947  15.983  0.7356 -1.9195  0.2258
 3957TIP3    H233363   3.540   3.903  16.086  0.1919  0.3677  1.7859
 3958TIP3   OH233364   6.612   0.057   2.087  0.0771 -0.1562 -0.2894
 3958TIP3    H133365   6.675   0.103   2.142  1.2300 -0.3768 -1.3971
 3958TIP3    H233366   6.563   0.002   2.148 -0.8557  1.9856  0.9475
 3959TIP3   OH233367   0.781   4.878   2.019 -0.1323  0.0281  0.4371
 3959TIP3    H133368   0.692   4.842   2.016 -0.0339 -0.0507 -2.1470
 3959TIP3    H233369   0.768   4.968   2.049 -1.0176 -0.1995  0.7717
 3960TIP3   OH233370   6.686   0.855  12.749  0.0321  0.1375 -0.1340
 3960TIP3    H133371   6.696   0.886  12.659 -1.8264 -1.5751 -0.9738
 3960TIP3    H233372   6.765   0.803  12.766  1.2536  1.9634 -0.1093
 3961TIP3   OH233373   1.664   4.409  13.627 -0.0817 -0.6138 -0.2717
 3961TIP3    H133374   1.598   4.437  13.690 -0.9707 -0.0998 -1.3974
 3961TIP3    H233375   1.734   4.370  13.680 -1.1171 -0.8264  0.9635
 3962TIP3   OH233376   0.730   6.115   6.862 -0.0532  0.7189  0.3433
 3962TIP3    H133377   0.709   6.129   6.955  0.7183 -0.8837  0.7673
 3962TIP3    H233378   0.764   6.200   6.833  0.6413  0.9489  1.7852
 3963TIP3   OH233379   0.024   5.225   3.533  0.1879 -0.2284  0.3276
 3963TIP3    H133380   0.089   5.249   3.466 -2.0220 -1.0159 -2.1702
 3963TIP3    H233381  -0.029   5.304   3.542 -1.3735 -1.0795 -1.1135
 3964TIP3   OH233382   5.242   6.214  12.918 -0.0098 -0.6014 -0.0056
 3964TIP3    H133383   5.280   6.134  12.881 -0.7164 -1.1135  0.3674
 3964TIP3    H233384   5.147   6.201  12.911 -0.1291  0.2523 -0.0429
 3965TIP3   OH233385   6.381   5.622  16.021 -0.3436  0.7604 -0.4458
 3965TIP3    H133386   6.390   5.620  16.116 -0.3048  0.1045 -0.4686
 3965TIP3    H233387   6.311   5.559  16.002  0.5672 -0.0971 -0.9671
 3966TIP3   OH233388   5.672   3.642   6.261  0.0504  0.3045 -0.3335
 3966TIP3    H133389   5.749   3.651   6.205  0.9229  0.4706  0.8578
 3966TIP3    H233390   5.675   3.719   6.318 -0.3999 -0.2446  0.4416
 3967TIP3   OH233391   0.165   0.041  15.211 -1.1264  0.1585 -0.5301
 3967TIP3    H133392   0.211   0.122  15.189 -1.1962  0.3770  0.1051
 3967TIP3    H233393   0.165  -0.010  15.130  2.5758 -1.0090  0.0936
 3968TIP3   OH233394   4.460   5.019  11.469  0.0762 -0.0367 -0.1148
 3968TIP3    H133395   4.411   4.955  11.417 -1.2528  0.6105  0.3295
 3968TIP3    H233396   4.521   4.966  11.520 -0.4088 -0.8809 -0.3933
 3969TIP3   OH233397   0.566   1.801   2.379 -0.0362 -0.5059 -0.2788
 3969TIP3    H133398   0.581   1.798   2.285  1.0479  1.2315 -0.1876
 3969TIP3    H233399   0.472   1.786   2.390 -0.4240  0.7472 -1.7425
 3970TIP3   OH233400   0.730   4.933  13.325 -0.4100  0.5563 -0.8385
 3970TIP3    H133401   0.793   4.861  13.326  1.9259  2.5758  0.7183
 3970TIP3    H233402   0.755   4.986  13.249 -0.4605  1.1794 -0.4185
 3971TIP3   OH233403   1.485   1.565  14.027  0.5452 -0.4941 -0.0292
 3971TIP3    H133404   1.570   1.603  14.051  0.1987  0.2098  0.0946
 3971TIP3    H233405   1.440   1.635  13.980  0.1068 -0.9345 -0.2636
 3972TIP3   OH233406   0.306   3.395  16.045  0.1158  0.4513 -0.0077
 3972TIP3    H133407   0.296   3.446  15.965  0.4475  0.6250  0.0639
 3972TIP3    H233408   0.221   3.403  16.089  0.6740  2.3233  0.8147
 3973TIP3   OH233409   6.622   6.310   1.210 -0.2504  0.0284 -0.3175
 3973TIP3    H133410   6.530   6.305   1.235 -0.5331  0.0856 -1.2986
 3973TIP3    H233411   6.620   6.338   1.118  0.7992  1.7245  0.1486
 3974TIP3   OH233412   4.922   1.677  13.061  0.1854  0.1793  0.0612
 3974TIP3    H133413   5.006   1.637  13.084  0.1045 -0.8313 -1.3548
 3974TIP3    H233414   4.905   1.648  12.972  0.3487  3.7817 -1.2407
 3975TIP3   OH233415   0.114   4.726   1.224 -0.0430 -0.6304  0.5762
 3975TIP3    H133416   0.073   4.669   1.289 -0.0111 -1.1668  0.1225
 3975TIP3    H233417   0.067   4.707   1.142  0.1578 -0.2154  0.3627
 3976TIP3   OH233418   4.985   4.604  13.235 -0.4430 -0.6953  0.3754
 3976TIP3    H133419   5.014   4.597  13.143  0.2074 -1.2077  0.6098
 3976TIP3    H233420   4.896   4.639  13.230  0.5130  1.7677 -0.3362
 3977TIP3   OH233421   6.130   2.154  17.085  0.3394 -0.4705  0.1637
 3977TIP3    H133422   6.090   2.217  17.025 -0.0480 -0.5034  0.3821
 3977TIP3    H233423   6.195   2.108  17.031 -0.5764 -1.0636 -0.4657
 3978TIP3   OH233424   3.975   5.858   1.202  0.5841  0.2750 -0.4691
 3978TIP3    H133425   3.950   5.828   1.115  1.2034  0.7745 -0.8281
 3978TIP3    H233426   3.911   5.819   1.261 -0.2118  0.4479 -1.2162
 3979TIP3   OH233427   0.787   4.451  13.568 -0.2967 -0.2895 -0.3545
 3979TIP3    H133428   0.828   4.516  13.627  1.0412 -1.4120 -0.0212
 3979TIP3    H233429   0.701   4.435  13.606  0.1616 -0.2334  0.7241
 3980TIP3   OH233430   5.898   0.767   5.831  0.2485 -0.9612  0.2893
 3980TIP3    H133431   5.898   0.840   5.892 -0.9469  0.9465 -1.9314
 3980TIP3    H233432   5.915   0.806   5.746 -0.2051 -3.2872 -0.9279
 3981TIP3   OH233433   5.593   5.159  15.201  0.0564 -0.1695 -0.5727
 3981TIP3    H133434   5.584   5.251  15.180  0.0345  0.3097  1.4022
 3981TIP3    H233435   5.678   5.153  15.246  1.4105 -1.6088 -3.1987
 3982TIP3   OH233436   0.130   2.999  13.700 -0.3808  0.2554  0.9558
 3982TIP3    H133437   0.119   3.050  13.620 -0.3608  1.1146  1.4987
 3982TIP3    H233438   0.043   2.995  13.738 -0.1975  0.7386  1.4295
 3983TIP3   OH233439   0.038   4.611   0.740 -0.2583 -0.2639 -0.1765
 3983TIP3    H133440  -0.007   4.679   0.690 -0.8109  0.3356  1.0957
 3983TIP3    H233441   0.131   4.631   0.729 -0.2993 -1.2632 -2.4862
 3984TIP3   OH233442   3.336   0.385   3.718  0.2730  0.4791 -0.1965
 3984TIP3    H133443   3.406   0.359   3.658 -0.0432  1.5941 -1.0769
 3984TIP3    H233444   3.257   0.347   3.681  0.2292  0.2994  0.0834
 3985TIP3   OH233445   1.795   4.145  12.502  0.7074  0.8021  0.8883
 3985TIP3    H133446   1.758   4.228  12.533  0.9912  1.4102 -0.3756
 3985TIP3    H233447   1.839   4.109  12.579 -3.0932 -0.3174  2.6152
 3986TIP3   OH233448   2.428   0.786  16.074 -0.1523  0.1296  0.4048
 3986TIP3    H133449   2.455   0.878  16.082 -0.2777  0.2050  0.0021
 3986TIP3    H233450   2.351   0.778  16.130 -0.6084  0.4683 -0.1650
 3987TIP3   OH233451   4.508   4.544  10.999  0.3702  0.0729  0.2199
 3987TIP3    H133452   4.441   4.611  11.015 -1.1692 -1.5840  0.9645
 3987TIP3    H233453   4.461   4.475  10.951  1.6092 -1.0518  0.5976
 3988TIP3   OH233454   3.079   3.876  11.198 -0.1968  0.8391 -1.1032
 3988TIP3    H133455   3.088   3.889  11.104  0.1550 -1.0047 -1.3242
 3988TIP3    H233456   3.156   3.918  11.236  0.9436 -0.6087 -1.8146
 3989TIP3   OH233457   0.006   5.801  14.370  0.5726  0.2979  0.6381
 3989TIP3    H133458   0.090   5.755  14.373  0.2660 -0.2558  0.9202
 3989TIP3    H233459   0.030   5.893  14.363  1.1798  0.0087 -1.2754
 3990TIP3   OH233460   4.132   3.390  13.495  0.6179  0.0721 -0.3222
 3990TIP3    H133461   4.083   3.431  13.566  2.2361  1.3618  0.0553
 3990TIP3    H233462   4.081   3.312  13.474 -1.4165  1.1733  0.3170
 3991TIP3   OH233463   0.691   3.859   1.844 -0.0663 -0.0200 -0.4923
 3991TIP3    H133464   0.739   3.917   1.903 -1.3984  1.0147 -0.3913
 3991TIP3    H233465   0.612   3.836   1.893 -0.3927 -0.4745 -1.2299
 3992TIP3   OH233466   3.810   0.891  12.284  0.3236  1.0772 -0.2564
 3992TIP3    H133467   3.851   0.816  12.242 -0.0097  0.8599 -0.1905
 3992TIP3    H233468   3.751   0.927  12.217  0.5815  1.3626 -0.3345
 3993TIP3   OH233469   5.073   5.410  13.617 -0.0047  0.0630 -0.2234
 3993TIP3    H133470   5.095   5.366  13.535 -0.3935 -0.5606  0.0002
 3993TIP3    H233471   4.977   5.413  13.618 -0.0219 -0.5006  0.5018
 3994TIP3   OH233472   6.237   1.162   4.455  0.1208 -0.2409  0.2095
 3994TIP3    H133473   6.157   1.118   4.483 -0.1821 -1.3672 -2.3200
 3994TIP3    H233474   6.288   1.095   4.410  2.0959  0.6944  0.9663
 3995TIP3   OH233475   0.244   0.787  11.502 -0.0290 -0.1725  0.1887
 3995TIP3    H133476   0.229   0.878  11.476  1.8335  0.6592  1.8255
 3995TIP3    H233477   0.211   0.783  11.592  3.6512  0.1081  1.6763
 3996TIP3   OH233478   3.906   3.363  14.864 -0.3190  0.3678 -0.4140
 3996TIP3    H133479   3.974   3.301  14.840 -0.8185 -0.3719  0.0337
 3996TIP3    H233480   3.844   3.360  14.790 -1.0056 -0.6572  0.1851
 3997TIP3   OH233481   5.579   0.716   3.168  0.1123  0.1146 -0.5793
 3997TIP3    H133482   5.577   0.629   3.209  0.3941  0.2803 -0.2218
 3997TIP3    H233483   5.515   0.767   3.216 -0.1056  0.0888 -0.8371
 3998TIP3   OH233484   1.030   3.541   0.801  0.2670  0.0447  0.1014
 3998TIP3    H133485   0.981   3.467   0.837  2.2381 -1.5800 -0.4242
 3998TIP3    H233486   1.000   3.547   0.710  1.1386 -1.0590 -0.2723
 3999TIP3   OH233487   1.285   5.426  15.724  0.7222 -0.1641  0.1995
 3999TIP3    H133488   1.273   5.452  15.816 -2.2084 -0.8780  0.0629
 3999TIP3    H233489   1.253   5.501  15.674 -2.7135 -1.7620 -0.1775
 4000TIP3   OH233490   3.440   5.582   0.293  0.1175  0.2746 -0.3539
 4000TIP3    H133491   3.474   5.656   0.344  0.8930  0.6003 -1.3375
 4000TIP3    H233492   3.504   5.570   0.223 -0.9998 -0.1062 -1.3142
 4001TIP3   OH233493   1.834   0.746   3.723 -0.0163 -0.1986  0.3637
 4001TIP3    H133494   1.760   0.730   3.665  0.9364 -1.0337 -0.6453
 4001TIP3    H233495   1.845   0.664   3.771  1.7685 -0.9366 -1.2502
 4002TIP3   OH233496   2.949   3.071   2.827  0.1100  0.0538 -0.2026
 4002TIP3    H133497   2.862   3.033   2.812  0.5326 -0.6490 -0.8943
 4002TIP3    H233498   2.933   3.142   2.889 -1.1249  0.6158 -1.1345
 4003TIP3   OH233499   1.212   6.817  11.325  0.5178 -0.5609  0.0024
 4003TIP3    H133500   1.244   6.857  11.406 -1.2250 -0.5261  0.6944
 4003TIP3    H233501   1.179   6.890  11.273  2.2565 -0.4984 -1.0642
 4004TIP3   OH233502   3.648   4.117   1.116  0.0800  0.2734  0.0123
 4004TIP3    H133503   3.733   4.122   1.072  0.1107  0.1890  0.0623
 4004TIP3    H233504   3.584   4.136   1.047  0.0809 -0.5968 -0.2362
 4005TIP3   OH233505   2.033   2.829  13.066 -0.0458  0.3934 -0.0735
 4005TIP3    H133506   1.962   2.793  13.119 -0.1954  1.5312  0.5340
 4005TIP3    H233507   1.992   2.851  12.982  0.3973 -2.2795 -1.0195
 4006TIP3   OH233508   4.880   6.005   1.993 -0.1361  0.4421 -0.8493
 4006TIP3    H133509   4.893   5.947   2.068 -1.4086  0.7931 -0.3380
 4006TIP3    H233510   4.865   6.091   2.032 -1.5356  0.4938 -1.4704
 4007TIP3   OH233511   4.697   4.553  16.712 -0.3797  0.2548 -0.3491
 4007TIP3    H133512   4.759   4.518  16.776 -0.0144  2.4545  0.5443
 4007TIP3    H233513   4.750   4.570  16.634  0.2448  2.2368  0.4495
 4008TIP3   OH233514   5.176   2.074  14.601 -0.1948  0.8768  0.1478
 4008TIP3    H133515   5.178   1.985  14.638 -0.0316  0.3294 -1.1593
 4008TIP3    H233516   5.131   2.126  14.668  1.7028  0.2987  1.9425
 4009TIP3   OH233517   6.568   6.150  14.398 -0.4359 -0.1528  0.1907
 4009TIP3    H133518   6.543   6.077  14.454  0.6953 -0.4617  0.3041
 4009TIP3    H233519   6.660   6.135  14.378 -0.2663  1.0848 -0.0246
 4010TIP3   OH233520   5.857   1.500  11.164  0.2885  0.0814 -0.1909
 4010TIP3    H133521   5.765   1.515  11.145  0.6144  1.8175 -0.4210
 4010TIP3    H233522   5.866   1.404  11.165 -1.7421 -0.1140  1.0432
 4011TIP3   OH233523   3.720   6.255  17.138  0.4973 -0.0357  0.2903
 4011TIP3    H133524   3.659   6.234  17.067  0.7472 -0.8579  0.3191
 4011TIP3    H233525   3.807   6.250  17.097  0.5928  0.3521  0.4444
 4012TIP3   OH233526   4.630   1.563  16.055 -0.1258  0.6668 -0.2483
 4012TIP3    H133527   4.568   1.608  16.113 -1.2061 -0.6797 -0.3460
 4012TIP3    H233528   4.578   1.496  16.012  0.8264  1.2468 -2.3333
 4013TIP3   OH233529   4.601   0.744  13.094  0.4242  0.0444 -0.3381
 4013TIP3    H133530   4.628   0.791  13.173  1.0777 -0.1201 -0.4651
 4013TIP3    H233531   4.587   0.654  13.124  1.0386 -0.1024 -0.4802
 4014TIP3   OH233532   1.486   3.208   4.168  0.1386  0.2811  0.3872
 4014TIP3    H133533   1.517   3.295   4.195 -1.6661  1.0184  0.1416
 4014TIP3    H233534   1.458   3.166   4.250 -2.0789  1.1973  0.1168
 4015TIP3   OH233535   6.678   1.472   0.048  0.5932 -0.2196 -0.5182
 4015TIP3    H133536   6.589   1.507   0.046  0.7512  0.1821 -0.5690
 4015TIP3    H233537   6.672   1.395   0.105  0.5274  0.7024  0.7356
 4016TIP3   OH233538   6.026   0.072   3.316 -0.5933 -0.1421  0.4334
 4016TIP3    H133539   6.016   0.032   3.230  1.6836  0.9948 -0.4308
 4016TIP3    H233540   6.014   0.001   3.378 -1.3010 -1.1715 -0.8785
 4017TIP3   OH233541   6.056   0.553   5.682  0.4495 -0.4144 -0.7804
 4017TIP3    H133542   6.015   0.607   5.750 -0.9287 -0.9849 -1.1289
 4017TIP3    H233543   6.115   0.613   5.636 -1.3722  0.9507 -1.4402
 4018TIP3   OH233544   4.823   3.852  16.577 -0.0173  0.8294 -0.2041
 4018TIP3    H133545   4.892   3.918  16.575 -0.2575  1.0883 -0.0413
 4018TIP3    H233546   4.742   3.901  16.561 -0.3674  0.7977  1.3178
 4019TIP3   OH233547   2.477   0.240  15.289  0.4004  0.6863  0.0652
 4019TIP3    H133548   2.568   0.210  15.289  0.0506 -0.4088 -0.5693
 4019TIP3    H233549   2.481   0.330  15.321  1.5464  0.1739  1.3825
 4020TIP3   OH233550   1.720   3.131   0.001  0.5070  0.2027  0.3560
 4020TIP3    H133551   1.735   3.219   0.038  4.1670  0.7171 -2.0682
 4020TIP3    H233552   1.646   3.143  -0.058 -0.5981  1.0617  1.8640
 4021TIP3   OH233553   1.435   4.462  12.403  0.2868 -0.1475 -0.5993
 4021TIP3    H133554   1.483   4.431  12.480  0.5667  0.0975 -0.6739
 4021TIP3    H233555   1.370   4.523  12.437  2.0822  1.9389 -0.7951
 4022TIP3   OH233556   1.971   0.973   4.114 -0.2307  0.2469 -0.0867
 4022TIP3    H133557   2.000   1.040   4.177 -1.4752  0.4410  0.2915
 4022TIP3    H233558   1.912   0.917   4.164  1.7405 -1.8633 -0.0885
 4023TIP3   OH233559   6.075   4.056  12.051  0.0279 -0.4522 -0.6369
 4023TIP3    H133560   6.045   4.113  11.980 -1.4007  0.4950  0.7169
 4023TIP3    H233561   6.013   3.983  12.051  0.2253 -0.6228 -0.5651
 4024TIP3   OH233562   0.424   6.498   5.673 -0.3665  0.4024  0.1354
 4024TIP3    H133563   0.353   6.496   5.609  0.2187 -0.2920 -0.5037
 4024TIP3    H233564   0.427   6.590   5.702 -1.1975  0.5374 -0.1857
 4025TIP3   OH233565   6.472   2.410  13.886  0.1110  0.2299 -0.4993
 4025TIP3    H133566   6.430   2.352  13.822 -0.3593 -0.1016  0.1136
 4025TIP3    H233567   6.563   2.382  13.887  0.7741  2.0091 -3.0512
 4026TIP3   OH233568   2.570   0.602  12.268 -0.0052  0.3267 -0.4977
 4026TIP3    H133569   2.578   0.641  12.354 -2.4667  0.0905 -0.1336
 4026TIP3    H233570   2.660   0.593  12.237  1.0579 -1.4692  2.8701
 4027TIP3   OH233571   3.341   3.271   3.141  0.2066  0.2488  0.2703
 4027TIP3    H133572   3.303   3.194   3.098 -0.7891  0.3192  1.0205
 4027TIP3    H233573   3.436   3.259   3.131  0.0775 -1.2235  0.6344
 4028TIP3   OH233574   6.041   6.818  15.128 -0.6032 -0.0555  0.3167
 4028TIP3    H133575   6.122   6.797  15.081 -0.1686 -0.5269  1.2657
 4028TIP3    H233576   5.982   6.746  15.106 -0.4502 -0.1966  0.3592
 4029TIP3   OH233577   4.150   3.743   1.954  0.1872 -0.4924  0.0815
 4029TIP3    H133578   4.111   3.662   1.987 -0.5862 -1.0872 -2.1772
 4029TIP3    H233579   4.189   3.718   1.870  1.1068  1.2019 -0.0235
 4030TIP3   OH233580   6.717   1.315   2.203  0.2507 -0.1459  0.4487
 4030TIP3    H133581   6.735   1.394   2.255  2.8640 -0.2223 -0.2476
 4030TIP3    H233582   6.762   1.245   2.250  0.8120 -0.6002 -0.7481
 4031TIP3   OH233583   0.539   2.615   1.190 -0.2789  0.0769  0.5140
 4031TIP3    H133584   0.578   2.692   1.233 -0.0974 -0.3256  1.0714
 4031TIP3    H233585   0.608   2.583   1.133 -0.0135 -0.2506  1.0155
 4032TIP3   OH233586   6.333   5.641   5.897  0.1010 -0.0705  0.3314
 4032TIP3    H133587   6.276   5.577   5.938 -0.5138  0.6188  0.5758
 4032TIP3    H233588   6.390   5.671   5.968  2.6529 -2.7495 -0.5027
 4033TIP3   OH233589   5.179   1.426  15.899  0.6090  0.3386  0.2755
 4033TIP3    H133590   5.135   1.501  15.939 -0.3165 -0.4361  0.7180
 4033TIP3    H233591   5.120   1.352  15.912  0.2526  0.0444 -2.5356
 4034TIP3   OH233592   3.659   2.724  11.014 -0.2822 -0.5196  0.0797
 4034TIP3    H133593   3.722   2.741  11.083  0.4069  1.9188 -1.0996
 4034TIP3    H233594   3.640   2.630  11.021 -0.0373 -0.3838  3.3538
 4035TIP3   OH233595   6.180   2.440   0.607  0.3218 -0.1272 -0.3648
 4035TIP3    H133596   6.224   2.466   0.525 -0.2032  0.8330 -0.3527
 4035TIP3    H233597   6.195   2.514   0.666  0.8620 -0.9022  0.4723
 4036TIP3   OH233598   5.644   0.121   1.516  0.1865 -0.1651  0.0100
 4036TIP3    H133599   5.597   0.194   1.557  0.7118  0.4840 -0.5338
 4036TIP3    H233600   5.719   0.161   1.473  0.9021 -1.1273  0.3407
 4037TIP3   OH233601   3.350   5.173   1.610  0.4292  0.2592 -0.1120
 4037TIP3    H133602   3.280   5.128   1.658  0.5289 -0.2977 -0.4779
 4037TIP3    H233603   3.385   5.106   1.551  0.3000  0.9477 -0.9687
 4038TIP3   OH233604   3.630   6.042   1.595 -0.0226  0.1139  0.3074
 4038TIP3    H133605   3.629   5.947   1.609 -1.9506 -0.4514 -2.9983
 4038TIP3    H233606   3.540   6.070   1.611  0.1915  1.1194 -0.1814
 4039TIP3   OH233607   5.743   0.580  12.792  0.1231  0.5456  0.0246
 4039TIP3    H133608   5.722   0.490  12.765  0.4508  0.7648 -0.9733
 4039TIP3    H233609   5.774   0.571  12.882  0.0582 -0.3367 -0.0360
 4040TIP3   OH233610   3.205   5.592  12.932 -0.0553 -0.3686  0.6517
 4040TIP3    H133611   3.146   5.613  12.859  2.7777  1.2392 -1.3065
 4040TIP3    H233612   3.204   5.496  12.937 -3.3217 -0.3482  1.1391
 4041TIP3   OH233613   0.082   4.759  12.425 -0.6392 -0.3642  0.5346
 4041TIP3    H133614   0.011   4.755  12.361  0.7854  0.0360 -1.0910
 4041TIP3    H233615   0.127   4.841  12.407  2.8388 -2.5170 -1.3169
 4042TIP3   OH233616   5.792   3.817   0.049  0.2740 -0.2862 -0.2272
 4042TIP3    H133617   5.703   3.798   0.020 -0.8957  1.5801  1.9387
 4042TIP3    H233618   5.833   3.861  -0.026 -0.8563 -0.5337 -1.0034
 4043TIP3   OH233619   5.552   5.260  11.068  0.8294  0.1200 -0.1975
 4043TIP3    H133620   5.583   5.218  11.148  2.4027  0.0109 -0.8592
 4043TIP3    H233621   5.504   5.337  11.099  0.4110 -0.5637  0.8881
 4044TIP3   OH233622   1.920   1.461   4.559 -0.3054 -0.1789  0.0824
 4044TIP3    H133623   1.831   1.456   4.593 -0.8300  2.4734 -0.7890
 4044TIP3    H233624   1.967   1.516   4.623  0.3584 -0.4430 -0.1730
 4045TIP3   OH233625   2.017   6.790   2.071 -0.5762 -0.2853  0.4971
 4045TIP3    H133626   1.939   6.842   2.087 -0.6064  0.2215 -1.1205
 4045TIP3    H233627   2.068   6.843   2.009  1.0659 -0.5848  1.5564
 4046TIP3   OH233628   4.734   4.796  12.843 -0.4691  0.2121  0.0752
 4046TIP3    H133629   4.752   4.848  12.921 -0.4366  0.2219  0.0625
 4046TIP3    H233630   4.770   4.710  12.863  0.3440  0.4611 -0.2698
 4047TIP3   OH233631   2.487   0.865   2.765  0.0867  0.3862  0.6575
 4047TIP3    H133632   2.491   0.924   2.689  0.4204  0.0983  0.4515
 4047TIP3    H233633   2.432   0.912   2.828 -0.2741  0.5901  0.2034
 4048TIP3   OH233634   5.281   5.269  16.172  0.4267 -0.3445 -0.2271
 4048TIP3    H133635   5.229   5.347  16.185  1.8591  0.3812  1.3257
 4048TIP3    H233636   5.266   5.216  16.250 -0.3994 -1.5530 -1.1903
 4049TIP3   OH233637   4.375   1.882   1.800 -0.2762 -0.3532 -0.3448
 4049TIP3    H133638   4.326   1.806   1.832 -0.8124  0.1978  0.1422
 4049TIP3    H233639   4.311   1.933   1.751 -0.4739  0.9640  1.2770
 4050TIP3   OH233640   4.333   5.391   3.843 -0.2053  0.7771  0.1396
 4050TIP3    H133641   4.390   5.318   3.819 -1.3676  0.2655 -1.1568
 4050TIP3    H233642   4.392   5.459   3.873  0.9387 -0.5054  0.8573
 4051TIP3   OH233643   5.904   2.881  15.848 -0.0335  0.0289 -0.3491
 4051TIP3    H133644   5.911   2.895  15.753 -1.3461  0.2404 -0.4174
 4051TIP3    H233645   5.835   2.815  15.857 -0.5302  0.6612  0.5149
 4052TIP3   OH233646   6.488   3.907   3.149  0.3481  0.1314  0.1122
 4052TIP3    H133647   6.542   3.828   3.151 -0.5257 -0.4684  0.7406
 4052TIP3    H233648   6.432   3.898   3.226 -0.0604  1.1518 -0.0710
 4053TIP3   OH233649   1.014   2.076  15.217 -0.3295 -0.2073  0.2140
 4053TIP3    H133650   1.057   2.127  15.149  2.8173 -2.0852  0.6815
 4053TIP3    H233651   0.979   2.142  15.277  1.5183  1.4386 -0.4479
 4054TIP3   OH233652   6.179   0.733  15.926 -0.1592  0.1838  0.1592
 4054TIP3    H133653   6.188   0.794  16.000  1.0258  1.4060 -0.9558
 4054TIP3    H233654   6.114   0.669  15.955  0.8242  0.2189  2.5321
 4055TIP3   OH233655   5.378   6.058  12.736  0.8463 -0.2405  0.1023
 4055TIP3    H133656   5.378   6.126  12.668  1.7777 -0.5281 -0.1842
 4055TIP3    H233657   5.413   5.981  12.693 -2.2267 -1.5665 -0.1903
 4056TIP3   OH233658   1.063   5.021  15.287 -0.2994  0.4324 -0.2072
 4056TIP3    H133659   0.984   5.007  15.340 -1.9098  3.1090 -1.7593
 4056TIP3    H233660   1.128   5.052  15.350 -1.2250  0.5586  0.7183
 4057TIP3   OH233661   1.068   0.782  12.065 -0.3138  0.7185 -0.6677
 4057TIP3    H133662   1.132   0.736  12.011 -0.2939  1.2097 -1.0673
 4057TIP3    H233663   0.994   0.722  12.069 -0.0923  0.4323 -0.7625
 4058TIP3   OH233664   3.095   2.802   1.004  0.1435  0.1417 -0.4141
 4058TIP3    H133665   3.128   2.886   1.035 -0.7751  0.8469 -1.3318
 4058TIP3    H233666   3.141   2.786   0.922  1.5917 -1.0964  0.6015
 4059TIP3   OH233667   2.000   4.794  15.601  0.1341  0.7864 -0.1109
 4059TIP3    H133668   2.041   4.851  15.535  3.3572 -0.6801  0.5039
 4059TIP3    H233669   2.039   4.821  15.684  1.2866 -1.8454  0.2703
 4060TIP3   OH233670   4.149   4.391  15.767 -0.0640  0.0667 -0.2142
 4060TIP3    H133671   4.163   4.461  15.703  0.8211 -0.0736 -0.1886
 4060TIP3    H233672   4.111   4.319  15.717 -2.5455  1.1194  0.0667
 4061TIP3   OH233673   0.797   4.554   5.393 -0.1358 -0.3004 -0.3446
 4061TIP3    H133674   0.734   4.519   5.330  0.9047 -0.4793 -1.3200
 4061TIP3    H233675   0.877   4.504   5.375  0.1284 -0.4529  1.2329
 4062TIP3   OH233676   1.064   6.650  11.804  0.0611  0.0201 -0.4689
 4062TIP3    H133677   0.976   6.644  11.841  0.4236  1.3130  0.6252
 4062TIP3    H233678   1.096   6.560  11.804 -1.4954 -0.5577 -1.4835
 4063TIP3   OH233679   5.621   2.526  14.880  0.7334  1.0494 -0.0316
 4063TIP3    H133680   5.692   2.586  14.859  2.3782 -1.1029 -0.8773
 4063TIP3    H233681   5.622   2.519  14.976  0.7769  2.0506  0.0409
 4064TIP3   OH233682   0.655   6.601   2.277  0.0083 -0.2868  0.2549
 4064TIP3    H133683   0.739   6.597   2.323 -0.5819  0.4894  1.4140
 4064TIP3    H233684   0.657   6.684   2.230  0.3777 -0.8227 -0.6961
 4065TIP3   OH233685   1.414   6.276   4.658  0.2590  0.3153  0.1699
 4065TIP3    H133686   1.349   6.327   4.705  0.7727  2.4797 -1.4018
 4065TIP3    H233687   1.414   6.191   4.702 -3.0338  0.5289  0.7156
 4066TIP3   OH233688   4.413   5.550  15.687  0.0806 -0.0546  0.1030
 4066TIP3    H133689   4.337   5.533  15.632  0.7540  0.0012 -0.8657
 4066TIP3    H233690   4.392   5.511  15.771  0.3414 -3.0324 -1.1531
 4067TIP3   OH233691   1.572   2.420  14.751  0.0502  0.2629 -0.0470
 4067TIP3    H133692   1.649   2.421  14.694  0.0233  0.6430 -0.0771
 4067TIP3    H233693   1.528   2.338  14.729  0.4107  0.0728 -0.0755
 4068TIP3   OH233694   5.162   1.750  13.744 -0.1098 -0.1817 -0.1188
 4068TIP3    H133695   5.221   1.788  13.809 -0.0541  0.7520 -0.7134
 4068TIP3    H233696   5.210   1.756  13.661 -0.8878  0.2430 -0.5427
 4069TIP3   OH233697   1.606   2.053   1.213  0.3636 -0.3949  0.0175
 4069TIP3    H133698   1.579   2.126   1.158  0.2575 -0.5622 -0.1575
 4069TIP3    H233699   1.528   2.031   1.264  0.1034 -0.9941 -0.6187
 4070TIP3   OH233700   4.741   3.333  11.788  0.4795  0.4145  0.2991
 4070TIP3    H133701   4.799   3.369  11.855  0.8575 -2.1827  1.4376
 4070TIP3    H233702   4.656   3.373  11.807  1.1617  1.7405  0.6556
 4071TIP3   OH233703   5.729   2.548   2.748 -0.8897 -0.5970 -0.3043
 4071TIP3    H133704   5.801   2.541   2.685  1.1824 -3.1798  2.2601
 4071TIP3    H233705   5.696   2.459   2.758 -2.1937  0.0243  1.1409
 4072TIP3   OH233706   3.849   5.859  11.649 -0.5669 -1.0136  0.1785
 4072TIP3    H133707   3.763   5.842  11.690 -0.7244  1.2127  0.8538
 4072TIP3    H233708   3.828   5.901  11.566 -0.1538 -1.3237 -0.0799
 4073TIP3   OH233709   2.801   1.589  13.631  0.0885 -1.1695 -0.0702
 4073TIP3    H133710   2.816   1.672  13.586 -1.3777 -0.2117  1.1482
 4073TIP3    H233711   2.730   1.548  13.582 -0.3952 -0.8814  0.3864
 4074TIP3   OH233712   1.821   2.302   3.101  0.3947 -0.1003  0.2815
 4074TIP3    H133713   1.841   2.229   3.158  2.3666  0.0161 -0.2145
 4074TIP3    H233714   1.906   2.329   3.065 -0.5003  1.3310 -0.8583
 4075TIP3   OH233715   0.705   5.554  12.733  0.5456  0.5143  0.1928
 4075TIP3    H133716   0.655   5.632  12.759 -1.4316 -0.8480  0.6367
 4075TIP3    H233717   0.700   5.496  12.809  0.8569 -0.5907 -0.6154
 4076TIP3   OH233718   1.603   2.783   5.274  0.3681  0.2669  0.1136
 4076TIP3    H133719   1.548   2.861   5.278 -0.9907 -0.6625  0.1614
 4076TIP3    H233720   1.660   2.791   5.350  0.0278  1.0607  0.2973
 4077TIP3   OH233721   1.736   2.639   5.867  0.3966  0.1850 -0.0376
 4077TIP3    H133722   1.761   2.731   5.855  0.1437  0.2325 -0.1879
 4077TIP3    H233723   1.817   2.596   5.894  0.6460  0.3452 -0.5186
 4078TIP3   OH233724   4.814   1.372   6.060  0.1887  0.4471  0.4283
 4078TIP3    H133725   4.904   1.397   6.079  0.6294  0.6624 -1.7634
 4078TIP3    H233726   4.762   1.418   6.126  1.7078 -0.1915  2.1290
 4079TIP3   OH233727   5.407   1.853  13.878  0.4159  0.2142  0.0686
 4079TIP3    H133728   5.475   1.802  13.921  0.1898 -0.2855 -0.1612
 4079TIP3    H233729   5.455   1.914  13.822  0.6672 -1.4666 -1.6144
 4080TIP3   OH233730   5.502   3.455  13.632 -0.3851  0.1147  0.3865
 4080TIP3    H133731   5.597   3.457  13.645 -0.4694 -1.8974  1.6029
 4080TIP3    H233732   5.469   3.404  13.706 -2.5151  1.5133  0.4414
 4081TIP3   OH233733   2.348   0.756   3.195  0.5156  0.3663 -0.1858
 4081TIP3    H133734   2.360   0.850   3.203  1.1681  0.2587  0.1348
 4081TIP3    H233735   2.346   0.740   3.101  2.6490  0.4354 -0.2730
 4082TIP3   OH233736   0.238   5.276   3.356  0.3698  0.2736 -0.2234
 4082TIP3    H133737   0.287   5.354   3.383  0.1008 -0.3565  2.2426
 4082TIP3    H233738   0.306   5.212   3.334  0.6406  0.2829  0.5639
 4083TIP3   OH233739   1.932   5.071   5.420 -0.7979  0.3111  0.3588
 4083TIP3    H133740   1.916   5.007   5.350  0.6049  2.1451 -1.6673
 4083TIP3    H233741   2.007   5.035   5.468 -1.4142 -0.6628  0.6263
 4084TIP3   OH233742   2.026   1.435  14.939 -0.1671  0.1835  0.1869
 4084TIP3    H133743   1.947   1.395  14.904  0.0852 -0.6221  0.5101
 4084TIP3    H233744   2.059   1.370  15.001 -0.7828  1.7176  2.1531
 4085TIP3   OH233745   4.995   1.495   4.188  0.5779 -0.2969 -0.1274
 4085TIP3    H133746   5.086   1.476   4.212  0.4584  0.7219  1.1677
 4085TIP3    H233747   4.983   1.587   4.211 -1.0007 -0.6204  0.3647
 4086TIP3   OH233748   6.504   1.759  13.685  0.3300  0.0887  0.4283
 4086TIP3    H133749   6.472   1.778  13.597  0.8305 -1.3559 -0.0946
 4086TIP3    H233750   6.433   1.710  13.726  0.1312  0.6892  0.7965
 4087TIP3   OH233751   0.335   4.582  16.052  1.0054 -0.1216  0.0574
 4087TIP3    H133752   0.338   4.647  16.123 -0.6923 -1.5714  1.5075
 4087TIP3    H233753   0.330   4.634  15.972 -2.5025  1.6075  1.2941
 4088TIP3   OH233754   1.056   2.950   4.027 -0.0907 -0.6291  0.0381
 4088TIP3    H133755   0.969   2.977   4.058  0.8942  3.0159 -0.1333
 4088TIP3    H233756   1.108   2.941   4.107 -0.3966 -2.0483  0.0891
 4089TIP3   OH233757   2.826   3.392  12.094  0.3336 -0.4960 -0.3712
 4089TIP3    H133758   2.795   3.317  12.042  0.0050 -0.5446 -0.1009
 4089TIP3    H233759   2.860   3.353  12.174  0.8916 -0.4244 -0.5678
 4090TIP3   OH233760   4.831   6.423   3.495 -0.0364  0.3296  0.8850
 4090TIP3    H133761   4.912   6.373   3.486 -0.3798 -0.2258  0.8624
 4090TIP3    H233762   4.832   6.455   3.585 -0.3873 -0.7217  1.2677
 4091TIP3   OH233763   2.065   1.718   4.703  0.7287 -0.0399 -0.5727
 4091TIP3    H133764   2.070   1.734   4.797 -0.0555 -1.8579 -0.1973
 4091TIP3    H233765   2.058   1.805   4.664 -2.2718  0.6223  1.2878
 4092TIP3   OH233766   1.768   3.165   1.736 -0.3559 -0.1109 -0.0904
 4092TIP3    H133767   1.828   3.091   1.725  0.0207  0.1920 -0.0391
 4092TIP3    H233768   1.814   3.240   1.699 -0.5453  0.1931  0.2893
 4093TIP3   OH233769   6.509   4.225  12.759  0.0136  0.0999  0.1938
 4093TIP3    H133770   6.589   4.185  12.725 -0.5960 -1.2944  0.3845
 4093TIP3    H233771   6.464   4.155  12.804 -1.7846  0.6340 -0.7007
 4094TIP3   OH233772   0.299   3.649   4.394 -0.4657 -0.3537  0.1533
 4094TIP3    H133773   0.359   3.617   4.326 -1.7840  0.5355 -1.4782
 4094TIP3    H233774   0.231   3.582   4.398 -0.0031 -0.7629  1.1239
 4095TIP3   OH233775   5.655   0.049   0.990 -0.5106  0.4658 -0.3545
 4095TIP3    H133776   5.624   0.140   0.989  0.7386  0.8968 -1.0740
 4095TIP3    H233777   5.646   0.022   1.081 -3.0007  0.5675 -0.5486
 4096TIP3   OH233778   3.369   2.183   0.207 -0.1304  0.2853 -0.1210
 4096TIP3    H133779   3.416   2.143   0.134  0.9080  0.7916  0.2706
 4096TIP3    H233780   3.342   2.269   0.173  1.8770  1.2491  0.6589
 4097TIP3   OH233781   1.690   0.828  15.889 -0.2173  0.0895 -0.2506
 4097TIP3    H133782   1.643   0.762  15.837 -0.5524  0.5038 -0.4838
 4097TIP3    H233783   1.776   0.790  15.905 -0.5488 -0.5782 -0.0343
 4098TIP3   OH233784   6.239   3.746  11.894  0.1045 -0.1263 -0.0872
 4098TIP3    H133785   6.163   3.713  11.846 -0.5684  2.5844 -0.9717
 4098TIP3    H233786   6.308   3.753  11.829  0.2060  0.3337  0.0693
 4099TIP3   OH233787   4.912   4.449   3.985 -0.1974  0.3668 -0.1268
 4099TIP3    H133788   4.940   4.531   4.026  1.5182 -1.2559  2.0033
 4099TIP3    H233789   4.955   4.380   4.035 -1.2422 -1.8577 -2.1745
 4100TIP3   OH233790   6.460   5.583   6.701 -0.0037  0.2688  0.0809
 4100TIP3    H133791   6.510   5.502   6.707  0.0445  0.2443 -0.5557
 4100TIP3    H233792   6.514   5.649   6.744 -1.0373 -0.4759  2.6102
 4101TIP3   OH233793   4.230   0.431  15.534  0.1191 -0.2634  0.3649
 4101TIP3    H133794   4.235   0.503  15.598  1.0402 -0.2698  0.3164
 4101TIP3    H233795   4.167   0.370  15.570 -0.8806  0.7076  0.2765
 4102TIP3   OH233796   2.668   5.196   4.547  0.3426 -0.7452 -0.1213
 4102TIP3    H133797   2.594   5.245   4.583  1.3284  0.3047  0.5208
 4102TIP3    H233798   2.665   5.215   4.453 -0.1315 -0.6071 -0.0803
 4103TIP3   OH233799   5.085   5.040  10.319  0.2315 -0.1721 -0.0280
 4103TIP3    H133800   5.055   5.129  10.299 -0.4889 -0.8427 -2.1056
 4103TIP3    H233801   5.073   5.031  10.413  0.9845  2.1727  0.3036
 4104TIP3   OH233802   0.324   1.241  14.373  0.2543 -0.8321 -0.2119
 4104TIP3    H133803   0.236   1.222  14.340  0.4306 -0.0420 -1.1547
 4104TIP3    H233804   0.310   1.288  14.455 -0.2332  1.4161 -1.5488
 4105TIP3   OH233805   1.880   0.234  12.739 -0.0560 -0.6333 -0.5470
 4105TIP3    H133806   1.844   0.311  12.783  1.2558 -0.9248  1.0804
 4105TIP3    H233807   1.975   0.248  12.740  0.1364 -1.8743 -0.9772
 4106TIP3   OH233808   5.997   6.785  14.089  0.6029  0.8748 -0.0995
 4106TIP3    H133809   6.064   6.724  14.121  1.1388  0.9390 -1.0845
 4106TIP3    H233810   6.045   6.848  14.035 -0.2985  0.7456 -1.0646
 4107TIP3   OH233811   6.041   5.765   6.042  0.2943  0.3367 -0.0285
 4107TIP3    H133812   6.025   5.804   5.956 -1.0538 -1.1124 -0.4595
 4107TIP3    H233813   5.988   5.685   6.042  1.3583 -0.3851  1.6344
 4108TIP3   OH233814   1.025   5.409  14.604 -0.3463  0.1449  0.4555
 4108TIP3    H133815   0.954   5.348  14.623  0.5595 -1.3373 -0.8124
 4108TIP3    H233816   1.101   5.372  14.648 -0.1220  1.2221  1.0006
 4109TIP3   OH233817   0.315   6.030  17.043  0.1890 -0.3341 -0.0083
 4109TIP3    H133818   0.360   6.087  17.106  0.4261  1.1840 -1.5084
 4109TIP3    H233819   0.282   6.090  16.977 -0.9812 -1.8108 -0.7741
 4110TIP3   OH233820   6.119   5.688   5.188  0.1102  0.2591  0.0320
 4110TIP3    H133821   6.186   5.722   5.248 -0.0951  0.1461  0.3258
 4110TIP3    H233822   6.064   5.632   5.243  0.8423 -1.0816 -0.5772
 4111TIP3   OH233823   5.714   0.764   1.637  0.3322  0.1239  0.2959
 4111TIP3    H133824   5.780   0.793   1.574  1.3721 -0.5729  1.0583
 4111TIP3    H233825   5.694   0.843   1.689  1.5187  0.0345  0.9036
 4112TIP3   OH233826   0.856   5.697  11.506  0.5258  0.8104 -0.4994
 4112TIP3    H133827   0.764   5.697  11.534  0.9536 -0.2450  0.9542
 4112TIP3    H233828   0.870   5.610  11.470  0.9939  0.9391 -0.6327
 4113TIP3   OH233829   0.281   4.247   3.720 -0.4590  0.5108  0.0090
 4113TIP3    H133830   0.268   4.295   3.802  1.1942  1.0654 -0.0336
 4113TIP3    H233831   0.353   4.187   3.739  0.4442  1.1727 -1.2531
 4114TIP3   OH233832   5.363   5.182   3.192  0.0474 -0.6813  0.0733
 4114TIP3    H133833   5.453   5.162   3.166 -0.4567 -2.8674 -0.0957
 4114TIP3    H233834   5.371   5.254   3.254  2.1444 -2.6313  2.1395
 4115TIP3   OH233835   3.304   0.089   3.846 -0.0055 -0.3946  0.4417
 4115TIP3    H133836   3.295   0.182   3.864 -1.3464 -0.9090  2.6430
 4115TIP3    H233837   3.396   0.070   3.860  0.2009  0.5251  0.3200
 4116TIP3   OH233838   1.091   1.071   0.674 -0.1812  0.1616 -0.6906
 4116TIP3    H133839   1.151   1.070   0.599  0.0850  2.2222 -0.5358
 4116TIP3    H233840   1.008   1.039   0.640 -0.2371  1.7201 -2.0245
 4117TIP3   OH233841   4.787   0.198   4.728  0.5424 -0.5167  0.1788
 4117TIP3    H133842   4.791   0.252   4.648  1.0985 -1.9910 -0.8026
 4117TIP3    H233843   4.822   0.255   4.796  2.0439  0.0761 -1.0321
 4118TIP3   OH233844   0.787   1.210   5.935 -0.0651 -0.3836  1.0351
 4118TIP3    H133845   0.760   1.245   6.020 -0.8690  1.6063 -0.0133
 4118TIP3    H233846   0.729   1.253   5.872  2.8950  0.9034 -0.8878
 4119TIP3   OH233847   2.473   3.753   2.871 -0.0320 -0.1498 -0.3345
 4119TIP3    H133848   2.450   3.685   2.808 -0.2852  1.0296 -1.5547
 4119TIP3    H233849   2.394   3.805   2.881  0.6711  1.0706 -0.8764
 4120TIP3   OH233850   0.293   4.271   0.763  0.5161 -0.3787  0.3949
 4120TIP3    H133851   0.378   4.252   0.803  0.0864 -1.8043  0.6387
 4120TIP3    H233852   0.278   4.199   0.702  0.3853  0.9151 -1.1298
 4121TIP3   OH233853   0.364   6.660  13.567  0.7723 -0.3955  0.4352
 4121TIP3    H133854   0.412   6.713  13.630 -1.2635  2.1459 -0.1017
 4121TIP3    H233855   0.368   6.709  13.485 -1.1036 -1.0675 -0.0886
 4122TIP3   OH233856   6.403   1.357   1.237  0.2693 -0.5816  0.2176
 4122TIP3    H133857   6.368   1.390   1.320  0.7145 -1.1629  0.6348
 4122TIP3    H233858   6.476   1.301   1.262  0.5348 -0.5946 -0.5808
 4123TIP3   OH233859   4.623   0.968  13.643 -0.4180  0.5887 -0.5035
 4123TIP3    H133860   4.606   1.034  13.710 -1.2670 -1.5035  1.3875
 4123TIP3    H233861   4.553   0.981  13.579  0.0778  2.2338 -0.7362
 4124TIP3   OH233862   3.761   0.232   0.863  0.4655  0.1881  0.0104
 4124TIP3    H133863   3.756   0.170   0.790 -0.9434  0.1217  0.1449
 4124TIP3    H233864   3.823   0.192   0.924  1.0457 -0.1369 -0.7875
 4125TIP3   OH233865   5.756   1.033   5.682 -0.1409 -0.3291 -0.4076
 4125TIP3    H133866   5.736   1.065   5.594 -0.6700 -0.5493 -0.3733
 4125TIP3    H233867   5.684   0.973   5.702  1.2838 -2.2076 -0.8228
 4126TIP3   OH233868   1.536   5.247  14.790 -0.1175 -0.5022  0.6423
 4126TIP3    H133869   1.598   5.321  14.784  0.9992 -1.4192  0.7192
 4126TIP3    H233870   1.519   5.238  14.883 -0.0178 -0.5333  0.6567
 4127TIP3   OH233871   1.548   1.949  14.853 -0.6484  0.0603 -0.3103
 4127TIP3    H133872   1.629   1.917  14.813 -0.0883  1.2236 -0.1267
 4127TIP3    H233873   1.535   1.893  14.930 -1.5795 -1.9975 -1.9241
 4128TIP3   OH233874   1.451   1.270  15.974 -0.6394  0.2323 -0.0507
 4128TIP3    H133875   1.455   1.249  15.881 -0.4972 -0.1787  0.0458
 4128TIP3    H233876   1.491   1.195  16.018 -1.7909 -0.1199  0.4158
 4129TIP3   OH233877   1.622   5.969  16.328 -0.3938  0.4840  0.0663
 4129TIP3    H133878   1.715   5.947  16.322 -0.4325  0.3904 -0.1955
 4129TIP3    H233879   1.582   5.890  16.365 -0.1455  1.0883  1.6410
 4130TIP3   OH233880   0.275   0.192  14.838 -0.1486  0.4851 -0.3791
 4130TIP3    H133881   0.269   0.114  14.783  1.4227  0.3723 -0.4079
 4130TIP3    H233882   0.342   0.171  14.903 -0.5154  1.3873  0.3012
 4131TIP3   OH233883   1.910   3.777   0.795 -0.2545  0.7630 -0.0179
 4131TIP3    H133884   1.983   3.818   0.842 -0.4331 -0.0396  0.9662
 4131TIP3    H233885   1.947   3.697   0.758 -0.1801  1.2625 -1.0692
 4132TIP3   OH233886   5.385   0.976  15.591  0.3162 -0.1182 -0.3376
 4132TIP3    H133887   5.368   0.924  15.512  0.3429 -0.0594 -0.3833
 4132TIP3    H233888   5.419   0.914  15.655  0.7778 -0.0792 -0.5415
 4133TIP3   OH233889   3.647   3.695   1.335  0.2269 -0.0303  0.3113
 4133TIP3    H133890   3.640   3.675   1.241  0.4322 -0.4423  0.3785
 4133TIP3    H233891   3.600   3.624   1.378  1.1022 -0.4743  0.5634
 4134TIP3   OH233892   2.712   5.197   3.545  0.6558 -0.4070  0.4714
 4134TIP3    H133893   2.771   5.262   3.505  1.0782 -0.2697  1.2982
 4134TIP3    H233894   2.681   5.240   3.625 -0.2447 -0.6455  0.2535
 4135TIP3   OH233895   2.767   1.507   0.139  0.5141  0.3783  0.0525
 4135TIP3    H133896   2.727   1.464   0.214  0.4414 -0.6903 -0.5915
 4135TIP3    H233897   2.790   1.595   0.171 -3.1360  1.3712  0.1973
 4136TIP3   OH233898   2.499   1.798   1.930 -0.1044  0.5180  0.0427
 4136TIP3    H133899   2.414   1.757   1.914 -0.0231  0.9023 -1.3966
 4136TIP3    H233900   2.563   1.730   1.907 -0.0089 -0.7173  3.6737
 4137TIP3   OH233901   4.636   1.787  14.728  0.4133  0.1039  0.0108
 4137TIP3    H133902   4.571   1.855  14.743  1.0420  0.3165  1.9135
 4137TIP3    H233903   4.701   1.828  14.671  0.3630  0.8352  0.4749
 4138TIP3   OH233904   2.725   4.146  11.813  0.5967  0.0139 -0.2267
 4138TIP3    H133905   2.808   4.125  11.770  1.0483  0.1301  0.5879
 4138TIP3    H233906   2.749   4.167  11.903  0.0195  2.7253 -0.6524
 4139TIP3   OH233907   3.374   3.983  12.483 -0.3266 -0.3608  0.1856
 4139TIP3    H133908   3.333   3.899  12.463  1.2581 -0.5087 -2.7013
 4139TIP3    H233909   3.468   3.964  12.484 -0.0476  1.0079  1.3605
 4140TIP3   OH233910   2.779   4.642  14.310  0.0263  0.4495  0.2832
 4140TIP3    H133911   2.768   4.548  14.327 -0.0507 -0.4183 -4.1721
 4140TIP3    H233912   2.871   4.652  14.289 -0.4448  0.9516 -1.6071
 4141TIP3   OH233913   4.078   1.352  12.306  0.0780  0.0379  0.1562
 4141TIP3    H133914   4.016   1.424  12.294 -1.0839 -0.9390  0.2676
 4141TIP3    H233915   4.105   1.358  12.398  0.1136  0.4272  0.1223
 4142TIP3   OH233916   2.471   4.816   5.880  0.0197 -0.3406  0.0467
 4142TIP3    H133917   2.495   4.887   5.820  0.1089  0.6064  1.1930
 4142TIP3    H233918   2.553   4.793   5.924 -0.2478 -0.3116  0.5632
 4143TIP3   OH233919   6.288   5.395   2.761  0.3335 -0.1412  0.3506
 4143TIP3    H133920   6.381   5.404   2.781  0.0989 -0.7335  1.7737
 4143TIP3    H233921   6.275   5.302   2.745 -0.1525 -0.1634  0.8709
 4144TIP3   OH233922   5.773   0.761   5.385  0.7270  0.5950 -0.2258
 4144TIP3    H133923   5.698   0.745   5.442  1.0206  0.8257  0.2269
 4144TIP3    H233924   5.738   0.751   5.297 -0.0427  1.5596 -0.0422
 4145TIP3   OH233925   0.453   0.122   4.922  0.8123  0.4281 -0.2870
 4145TIP3    H133926   0.440   0.169   5.004  2.4490 -2.2519  1.5916
 4145TIP3    H233927   0.374   0.139   4.871 -0.5334  1.5822  2.1105
 4146TIP3   OH233928   0.398   3.507   6.063 -0.0289  0.4044 -0.3597
 4146TIP3    H133929   0.423   3.434   6.007 -3.1895  1.0916 -2.8271
 4146TIP3    H233930   0.414   3.585   6.010 -0.1068  1.2675  0.8665
 4147TIP3   OH233931   4.504   1.984   3.925  0.3523  0.2373  0.0307
 4147TIP3    H133932   4.408   1.976   3.926  0.3244  0.5598 -0.1191
 4147TIP3    H233933   4.523   2.052   3.990  0.5003 -0.0380  0.2790
 4148TIP3   OH233934   3.951   2.486   2.199 -0.6389  0.5628  0.0015
 4148TIP3    H133935   4.039   2.456   2.177 -1.2116 -0.3644 -1.0873
 4148TIP3    H233936   3.931   2.444   2.282 -0.3004  0.2675 -0.0665
 4149TIP3   OH233937   1.433   2.221  15.420  0.1750 -0.0082 -0.0114
 4149TIP3    H133938   1.465   2.283  15.354 -0.1485  0.8311  0.6102
 4149TIP3    H233939   1.359   2.266  15.461 -0.2869 -0.9515  0.2071
 4150TIP3   OH233940   6.374   1.524   0.541 -0.2018 -0.2796  0.4010
 4150TIP3    H133941   6.465   1.532   0.567  0.1545 -0.1877 -0.8237
 4150TIP3    H233942   6.332   1.475   0.611  1.4068 -2.8342 -0.3815
 4151TIP3   OH233943   2.901   2.204  16.069  0.0137  0.2202 -0.3687
 4151TIP3    H133944   2.857   2.233  15.988  2.4697  1.6147 -1.2757
 4151TIP3    H233945   2.990   2.183  16.041  0.2510 -1.5403  1.6036
 4152TIP3   OH233946   6.291   1.043  10.937  0.7369  0.1808 -0.0295
 4152TIP3    H133947   6.270   0.952  10.917  2.4928  0.2235 -2.2586
 4152TIP3    H233948   6.228   1.068  11.005 -1.9359 -1.6705 -1.7251
 4153TIP3   OH233949   5.003   0.265  12.835 -0.3212  0.4106 -0.5281
 4153TIP3    H133950   4.908   0.251  12.834 -0.3714  0.1160  2.9096
 4153TIP3    H233951   5.018   0.326  12.907  2.1886 -0.1425 -0.5321
 4154TIP3   OH233952   5.802   2.577  15.860 -0.0797 -0.4517  0.4554
 4154TIP3    H133953   5.763   2.495  15.830 -1.1458  0.2889 -0.2180
 4154TIP3    H233954   5.737   2.614  15.919  0.6519 -0.3651  1.2142
 4155TIP3   OH233955   3.760   3.470   4.579 -0.4495  0.7095 -0.1000
 4155TIP3    H133956   3.841   3.481   4.628 -0.1480  0.5338 -0.5592
 4155TIP3    H233957   3.707   3.547   4.602 -0.1653  0.8090  0.2171
 4156TIP3   OH233958   2.608   0.211   3.149 -0.4478 -0.5965  0.1586
 4156TIP3    H133959   2.518   0.214   3.182 -0.5401  1.2641 -0.2290
 4156TIP3    H233960   2.618   0.291   3.098  1.2820 -1.0345 -0.2278
 4157TIP3   OH233961   6.510   3.069   4.180  0.0457  0.1126 -0.2016
 4157TIP3    H133962   6.433   3.050   4.234  0.2836  0.8366  0.4038
 4157TIP3    H233963   6.567   2.994   4.193  0.4714  0.6643  1.2356
 4158TIP3   OH233964   6.343   1.457   1.736  0.1595  0.8115  0.3844
 4158TIP3    H133965   6.348   1.445   1.831  0.9311 -0.9807  0.1237
 4158TIP3    H233966   6.282   1.531   1.725 -0.2294  0.7978  2.2496
 4159TIP3   OH233967   3.403   4.117  11.488 -0.3775  0.8530  0.0571
 4159TIP3    H133968   3.381   4.117  11.581 -1.3997  0.0251 -0.1648
 4159TIP3    H233969   3.358   4.194  11.453  0.6721  1.6309  0.3775
 4160TIP3   OH233970   4.979   2.709  12.012 -0.0477 -0.3450  0.1239
 4160TIP3    H133971   5.063   2.663  12.022 -0.5420 -1.4288 -0.5790
 4160TIP3    H233972   5.002   2.791  11.969  0.8385  0.0427  1.2971
 4161TIP3   OH233973   4.954   6.022   5.733 -0.9139  0.3329 -0.0977
 4161TIP3    H133974   4.971   5.930   5.714  1.5042  0.7827 -0.2334
 4161TIP3    H233975   5.035   6.067   5.709 -2.3460  2.6103 -0.8073
 4162TIP3   OH233976   1.326   1.845  15.916  0.1064 -0.0667  0.2414
 4162TIP3    H133977   1.272   1.778  15.957  1.5601 -2.1030 -1.0746
 4162TIP3    H233978   1.416   1.817  15.934  0.7377  2.0703  0.4941
 4163TIP3   OH233979   0.574   4.077   2.287  0.2185  0.2845  0.2114
 4163TIP3    H133980   0.507   4.119   2.233 -0.2299 -0.2945  0.3140
 4163TIP3    H233981   0.582   4.134   2.364 -1.1988 -0.4219  0.8818
 4164TIP3   OH233982   4.883   5.815  13.770  0.3687  0.5194 -0.2326
 4164TIP3    H133983   4.962   5.816  13.825 -0.3538  2.8872  0.8222
 4164TIP3    H233984   4.912   5.852  13.687  0.6213  0.2902 -0.2500
 4165TIP3   OH233985   2.291   0.756   4.124 -0.6865  0.1833  0.0688
 4165TIP3    H133986   2.260   0.728   4.210 -0.5923  1.0901  0.4077
 4165TIP3    H233987   2.265   0.685   4.065 -2.4702  0.4138  0.5205
 4166TIP3   OH233988   1.762   3.155  15.171  0.3976  0.1490  0.2968
 4166TIP3    H133989   1.800   3.105  15.243  1.7239 -2.3016 -1.9987
 4166TIP3    H233990   1.700   3.095  15.130 -0.6921  1.6699 -0.3032
 4167TIP3   OH233991   5.010   3.376  15.290  0.0073 -0.3558  0.4556
 4167TIP3    H133992   5.072   3.447  15.275 -0.6589  0.0996 -0.1967
 4167TIP3    H233993   4.945   3.413  15.350  1.6514 -1.5855  3.0321
 4168TIP3   OH233994   4.342   4.779   1.499  0.1498  0.1439  0.2248
 4168TIP3    H133995   4.388   4.851   1.545 -0.0299  0.6140 -0.3288
 4168TIP3    H233996   4.284   4.742   1.565  0.1580  0.5849  0.4806
 4169TIP3   OH233997   3.041   0.951  13.314 -0.3425  0.4278 -0.1837
 4169TIP3    H133998   2.948   0.934  13.325 -0.4647  0.8852 -0.4709
 4169TIP3    H233999   3.056   1.035  13.357 -0.0998  0.4458 -0.2984
 4170TIP3   OH234000   4.138   2.258   0.774  0.9535 -0.2488  0.2215
 4170TIP3    H134001   4.229   2.264   0.745  0.3360  1.5101 -1.5490
 4170TIP3    H234002   4.091   2.225   0.697 -0.0578 -0.0843  0.7633
 4171TIP3   OH234003   5.520   1.916   4.325 -1.0493 -0.1417 -0.0822
 4171TIP3    H134004   5.539   1.823   4.311  0.1111 -0.2565  2.0442
 4171TIP3    H234005   5.464   1.918   4.402 -1.1874  0.9315 -0.1986
 4172TIP3   OH234006   6.379   3.205   3.981  0.5955 -0.4221  0.1517
 4172TIP3    H134007   6.431   3.153   4.041  1.4434  0.1561 -0.0716
 4172TIP3    H234008   6.410   3.180   3.894  0.5453 -0.0226  0.0179
 4173TIP3   OH234009   3.944   4.385   3.090  0.4017 -0.2190  0.0218
 4173TIP3    H134010   3.963   4.465   3.041 -1.8049 -0.9442 -2.0995
 4173TIP3    H234011   3.959   4.409   3.182  3.6166  1.4577 -0.8393
 4174TIP3   OH234012   4.869   3.699   3.338  0.1859  0.4638 -0.1283
 4174TIP3    H134013   4.875   3.768   3.405 -0.5076 -0.0942  0.5100
 4174TIP3    H234014   4.959   3.665   3.332  0.5469  1.4641 -0.4991
 4175TIP3   OH234015   5.697   5.099  16.481  0.0748  0.2358  0.0457
 4175TIP3    H134016   5.610   5.083  16.443 -0.0525 -1.7161  1.1205
 4175TIP3    H234017   5.679   5.152  16.559 -0.3188 -1.2761  1.0142
 4176TIP3   OH234018   1.595   0.010  17.066 -0.1125  0.6305 -0.3078
 4176TIP3    H134019   1.575  -0.069  17.116  0.7885 -0.4244 -1.5754
 4176TIP3    H234020   1.512   0.056  17.058 -0.6867 -0.3067  0.2255
 4177TIP3   OH234021   2.885   0.949  16.043 -0.4878  0.2325 -0.1224
 4177TIP3    H134022   2.904   0.902  15.962 -0.2648 -0.4322  0.3082
 4177TIP3    H234023   2.905   0.886  16.113 -0.6666  0.7989  0.4459
 4178TIP3   OH234024   0.414   4.537   3.650 -0.2265 -0.4768 -0.2487
 4178TIP3    H134025   0.410   4.458   3.596 -0.0729  0.3471 -1.4713
 4178TIP3    H234026   0.323   4.564   3.660 -0.6036 -2.4434  2.6760
 4179TIP3   OH234027   6.422   1.923   5.140 -0.4771 -0.5315 -0.1340
 4179TIP3    H134028   6.376   1.918   5.056  0.1385 -1.7771 -0.4102
 4179TIP3    H234029   6.494   1.984   5.125 -0.8245 -0.1508 -0.2752
 4180TIP3   OH234030   4.555   3.914   2.713 -0.0863  0.7067 -0.0048
 4180TIP3    H134031   4.624   3.863   2.672 -0.9628 -0.5627  0.0659
 4180TIP3    H234032   4.599   3.993   2.746  1.3153 -0.0898  0.0628
 4181TIP3   OH234033   4.223   6.323   3.107 -0.7163 -0.4756  0.2016
 4181TIP3    H134034   4.292   6.269   3.070 -0.3947 -0.9015  1.3996
 4181TIP3    H234035   4.265   6.369   3.180 -1.5508 -0.3131  0.5919
 4182TIP3   OH234036   6.411   2.037   4.285  0.8081 -0.2809 -0.4591
 4182TIP3    H134037   6.401   2.118   4.236  2.4332 -0.2092 -0.6880
 4182TIP3    H234038   6.340   1.980   4.253 -2.4255  2.1372  2.0098
 4183TIP3   OH234039   3.691   5.390   2.454 -0.6185  0.6746 -0.5282
 4183TIP3    H134040   3.779   5.404   2.487 -1.5635  1.7865  1.6314
 4183TIP3    H234041   3.654   5.323   2.510 -0.3722 -1.5644 -2.9547
 4184TIP3   OH234042   1.480   3.389  12.008 -0.3615 -0.2864  0.2368
 4184TIP3    H134043   1.571   3.360  12.002 -0.4933 -0.6229 -0.1001
 4184TIP3    H234044   1.452   3.400  11.917 -0.6855 -0.2707  0.3370
 4185TIP3   OH234045   0.591   2.933   3.439 -0.2489 -0.5489 -0.1946
 4185TIP3    H134046   0.632   2.905   3.357 -0.6183 -1.0427 -0.2087
 4185TIP3    H234047   0.516   2.875   3.450 -1.6781  1.1510 -0.8056
 4186TIP3   OH234048   0.976   4.588  13.018 -0.5123  0.2808 -0.0942
 4186TIP3    H134049   1.069   4.579  13.041  0.0308  0.5468 -2.1132
 4186TIP3    H234050   0.931   4.534  13.083  1.2683 -1.9251 -0.5906
 4187TIP3   OH234051   4.038   1.252   5.314  0.0426  0.5704 -0.1084
 4187TIP3    H134052   4.067   1.183   5.373  1.1421  0.3321 -0.9241
 4187TIP3    H234053   3.969   1.212   5.262 -0.1412  0.4451  0.2294
 4188TIP3   OH234054   0.667   0.832   3.779 -0.0465  0.1077 -0.3380
 4188TIP3    H134055   0.597   0.866   3.835 -0.3320  1.5613 -1.5361
 4188TIP3    H234056   0.745   0.834   3.834 -0.9423 -1.5683  1.0276
 4189TIP3   OH234057   1.123   2.899   6.191 -0.4018  0.3250  0.3522
 4189TIP3    H134058   1.208   2.898   6.234 -0.4788  0.8950  0.5272
 4189TIP3    H234059   1.064   2.854   6.251 -0.2768  0.1556  0.3463
 4190TIP3   OH234060   0.191   2.685  15.783 -0.1691  0.1943 -0.6037
 4190TIP3    H134061   0.158   2.653  15.867  3.2084 -0.5492  0.5319
 4190TIP3    H234062   0.142   2.766  15.767 -0.2055  0.8598  2.5866
 4191TIP3   OH234063   0.882   1.968   6.015 -0.1200 -0.4342 -0.3771
 4191TIP3    H134064   0.969   1.929   6.013 -0.1353 -0.6757  2.0069
 4191TIP3    H234065   0.825   1.901   5.976  0.1194 -2.1813  2.1160
 4192TIP3   OH234066   5.699   2.281   4.800 -0.4631  0.0864  0.2587
 4192TIP3    H134067   5.677   2.223   4.726 -1.1593  1.1352 -0.3634
 4192TIP3    H234068   5.794   2.285   4.800 -0.5038  2.3411 -2.3643
 4193TIP3   OH234069   5.159   1.756  12.040  0.5762  0.0127  0.4846
 4193TIP3    H134070   5.170   1.662  12.056  0.2257 -0.3898 -1.5027
 4193TIP3    H234071   5.248   1.791  12.040  0.6038  0.0674  3.2778
 4194TIP3   OH234072   5.772   3.373   4.542  0.4696  0.4277  0.3445
 4194TIP3    H134073   5.748   3.310   4.475 -1.1575 -0.4081  1.6749
 4194TIP3    H234074   5.865   3.389   4.528  0.0205  0.7269 -2.4525
 4195TIP3   OH234075   3.955   2.418   5.495 -0.0159 -0.6619  0.0145
 4195TIP3    H134076   3.957   2.469   5.414  2.6079  0.5519  0.7623
 4195TIP3    H234077   4.007   2.341   5.476  0.6288 -0.3616  0.5293
 4196TIP3   OH234078   2.447   6.275  16.594 -0.3809  0.2053  0.4903
 4196TIP3    H134079   2.469   6.193  16.552  0.7808  0.0313  1.4177
 4196TIP3    H234080   2.502   6.340  16.551 -0.1994  0.2480  0.7823
 4197TIP3   OH234081   2.580   0.687  14.229 -0.3676  0.5592  0.3477
 4197TIP3    H134082   2.533   0.604  14.234 -1.8128  1.3564  0.5250
 4197TIP3    H234083   2.571   0.715  14.138  1.0122  0.0293  0.0400
 4198TIP3   OH234084   6.812   1.630   2.111 -0.1336 -0.7419 -0.2217
 4198TIP3    H134085   6.897   1.595   2.139  0.3085  0.7880  0.4468
 4198TIP3    H234086   6.818   1.724   2.132 -2.0602 -0.6579  0.0006
 4199TIP3   OH234087   3.329   0.814   3.661  0.9160 -0.1722  0.0343
 4199TIP3    H134088   3.280   0.750   3.713  0.9427 -0.6729 -0.5478
 4199TIP3    H234089   3.324   0.780   3.571  0.1051  1.1500 -0.4315
 4200TIP3   OH234090   3.933   5.702   0.342  0.2041  0.0255 -0.0964
 4200TIP3    H134091   3.996   5.756   0.295 -0.9085  1.8524  0.4680
 4200TIP3    H234092   3.856   5.759   0.354 -0.9857 -1.6682  0.5267
 4201TIP3   OH234093   2.443   0.176   5.903 -0.0081 -0.2154  0.0107
 4201TIP3    H134094   2.513   0.230   5.940 -0.5204 -0.6931  1.7266
 4201TIP3    H234095   2.364   0.229   5.916  0.1236  0.7293 -2.7554
 4202TIP3   OH234096   0.060   4.427   4.525 -0.1703  0.2130 -0.1010
 4202TIP3    H134097   0.148   4.453   4.553 -0.2668 -0.9577  1.3836
 4202TIP3    H234098   0.010   4.421   4.607 -2.0285  2.2669 -1.0459
 4203TIP3   OH234099   3.603   3.711  12.908  0.2129 -0.0974 -0.1996
 4203TIP3    H134100   3.511   3.734  12.922 -0.3451 -1.2602 -1.9257
 4203TIP3    H234101   3.631   3.675  12.992 -0.4375  1.7681  0.8493
 4204TIP3   OH234102   2.616   6.598  13.893 -0.2292 -0.0049 -0.0907
 4204TIP3    H134103   2.651   6.509  13.898  1.0829  0.5208  0.4867
 4204TIP3    H234104   2.687   6.653  13.928 -1.1953  1.2156 -0.0209
 4205TIP3   OH234105   4.439   1.786  13.992 -0.2380 -0.3354  0.1172
 4205TIP3    H134106   4.401   1.830  14.068 -1.7038  0.4513 -1.0496
 4205TIP3    H234107   4.365   1.738  13.953  0.4222 -0.4797 -0.9813
 4206TIP3   OH234108   1.899   2.101   5.913  0.0063  0.2676 -0.2203
 4206TIP3    H134109   1.953   2.177   5.896 -0.4845  1.0269  1.4413
 4206TIP3    H234110   1.906   2.088   6.008 -2.5991  0.3277  0.0203
 4207TIP3   OH234111   0.576   2.775  14.157 -0.5154 -0.1614 -0.0271
 4207TIP3    H134112   0.493   2.728  14.167 -1.4172  1.0422 -1.6478
 4207TIP3    H234113   0.576   2.805  14.066  0.5285  2.0475  0.6649
 4208TIP3   OH234114   6.516   5.735   6.071 -0.1510  0.2141  0.3863
 4208TIP3    H134115   6.470   5.728   6.155  0.4773 -0.5333  0.6786
 4208TIP3    H234116   6.608   5.740   6.096 -0.0220  1.0630 -0.2235
 4209TIP3   OH234117   2.456   2.674  16.476 -0.0721  0.2619 -0.1330
 4209TIP3    H134118   2.517   2.612  16.515 -0.3192  0.4925  0.6415
 4209TIP3    H234119   2.380   2.674  16.535 -0.7632  0.0857 -1.0040
 4210TIP3   OH234120   2.371   6.797   3.222 -0.3688 -0.1400  0.1862
 4210TIP3    H134121   2.300   6.805   3.157 -0.2320 -0.8352 -0.0561
 4210TIP3    H234122   2.451   6.804   3.170 -0.2560 -1.0532  0.2181
 4211TIP3   OH234123   1.820   0.072   4.605  0.2737  0.6064  0.4264
 4211TIP3    H134124   1.796   0.162   4.583  1.9691  0.7272 -1.0266
 4211TIP3    H234125   1.754   0.044   4.669 -2.2521  1.7220 -1.6346
 4212TIP3   OH234126   5.971   4.709   2.266 -0.3677 -0.1194 -0.3925
 4212TIP3    H134127   5.878   4.699   2.247 -0.1413  0.5194 -1.8808
 4212TIP3    H234128   6.011   4.728   2.181  0.9211  0.9774  0.4421
 4213TIP3   OH234129   1.865   3.650   1.600 -0.5032 -0.2597 -0.4038
 4213TIP3    H134130   1.831   3.643   1.689  0.1972 -1.1673 -0.1971
 4213TIP3    H234131   1.934   3.716   1.606 -1.1992  0.4869 -0.5118
 4214TIP3   OH234132   5.168   1.568   0.798  0.2191  0.0130  0.3537
 4214TIP3    H134133   5.205   1.502   0.857  0.4842 -0.2953 -0.1497
 4214TIP3    H234134   5.078   1.580   0.829  0.4767  0.1585  1.0746
 4215TIP3   OH234135   3.898   5.136   6.519  0.2263  0.3187 -0.1862
 4215TIP3    H134136   3.816   5.123   6.471 -0.1473 -1.1482  0.8070
 4215TIP3    H234137   3.904   5.230   6.531 -1.1747  0.4665 -0.5177
 4216TIP3   OH234138   3.555   5.520   4.234 -0.6167 -0.1491 -0.4073
 4216TIP3    H134139   3.646   5.522   4.207 -0.4389 -0.3584  0.1600
 4216TIP3    H234140   3.519   5.605   4.208  0.4456  1.0133  1.7670
 4217TIP3   OH234141   5.973   3.880   3.627  0.1128  0.0297 -0.1425
 4217TIP3    H134142   5.911   3.916   3.689  1.2487  0.9462  0.4839
 4217TIP3    H234143   6.055   3.927   3.644  0.9930 -1.1728 -0.9165
 4218TIP3   OH234144   4.255   2.705  16.939 -0.5136  0.6655  0.0421
 4218TIP3    H134145   4.351   2.703  16.936 -0.4783  0.5695  0.9838
 4218TIP3    H234146   4.235   2.756  17.018 -1.2513  2.0867 -1.0391
 4219TIP3   OH234147   6.182   2.913   3.996  0.3953  0.1360 -0.2968
 4219TIP3    H134148   6.140   2.953   4.072 -1.6005 -0.9104 -0.8115
 4219TIP3    H234149   6.208   2.988   3.942 -0.0899  0.8415  0.4244
 4220TIP3   OH234150   0.869   4.175   1.001  0.2853 -0.3375  0.9957
 4220TIP3    H134151   0.818   4.122   0.940  2.4162 -0.8206 -0.4233
 4220TIP3    H234152   0.918   4.112   1.054  0.7472  0.1462  1.1531
 4221TIP3   OH234153   4.121   0.820   5.316  0.6317  0.0786 -0.1609
 4221TIP3    H134154   4.103   0.827   5.222  1.3039  0.3842 -0.2694
 4221TIP3    H234155   4.035   0.804   5.356  0.3805 -0.2771 -0.8483
 4222TIP3   OH234156   5.214   2.962  12.229 -0.3347 -0.8045  0.0937
 4222TIP3    H134157   5.253   2.875  12.222  1.7691  0.1270 -0.1463
 4222TIP3    H234158   5.229   3.002  12.144 -0.1473  0.2609  0.6177
 4223TIP3   OH234159   4.112   5.244  13.784 -0.1578 -0.1258  0.0683
 4223TIP3    H134160   4.051   5.218  13.715  0.2960  0.1391 -0.4300
 4223TIP3    H234161   4.176   5.299  13.740  0.6078 -0.6347  0.5372
 4224TIP3   OH234162   4.433   6.082  14.692  0.4447  0.5998  0.0065
 4224TIP3    H134163   4.502   6.149  14.693  0.2104  0.9084 -2.0021
 4224TIP3    H234164   4.361   6.121  14.742  0.7937  1.3410 -0.0608
 4225TIP3   OH234165   0.170   2.119   1.699  0.0209 -0.6935 -0.3842
 4225TIP3    H134166   0.130   2.061   1.635 -0.6585  0.5007 -1.0571
 4225TIP3    H234167   0.100   2.138   1.762  0.0816 -0.1717 -0.4684
 4226TIP3   OH234168   2.396   2.022  11.981 -0.7377 -0.0649 -0.3600
 4226TIP3    H134169   2.414   2.112  12.009  0.2218 -0.2371 -0.4087
 4226TIP3    H234170   2.382   1.974  12.062 -0.0681 -0.1209 -0.2782
 4227TIP3   OH234171   5.868   4.982  11.297  0.5258  0.2788  0.4464
 4227TIP3    H134172   5.793   4.966  11.354 -0.3804 -0.2578 -0.8640
 4227TIP3    H234173   5.835   5.042  11.230  1.5286  0.7937  0.4130
 4228TIP3   OH234174   3.173   5.079   1.805 -0.0870 -0.2680  0.0667
 4228TIP3    H134175   3.122   5.014   1.757  0.9094 -2.7951  2.2787
 4228TIP3    H234176   3.113   5.113   1.871  0.4344 -1.7031  1.3081
 4229TIP3   OH234177   2.351   2.833   4.935 -0.1411 -0.8766 -0.3275
 4229TIP3    H134178   2.406   2.879   4.998 -1.0075  0.6900 -0.6795
 4229TIP3    H234179   2.269   2.883   4.933 -0.5694 -1.5924 -1.7919
 4230TIP3   OH234180   6.596   0.491   2.836 -0.3013 -0.0412  0.0758
 4230TIP3    H134181   6.541   0.517   2.910 -0.7717  0.5725 -0.4758
 4230TIP3    H234182   6.616   0.399   2.852  0.1444  0.2521  1.2987
 4231TIP3   OH234183   4.769   3.776  15.394  0.4186  0.4834 -0.2683
 4231TIP3    H134184   4.829   3.774  15.319  0.1802  0.5602 -0.4603
 4231TIP3    H234185   4.739   3.867  15.399  0.3737  0.4613 -0.1254
 4232TIP3   OH234186   1.162   5.547  16.917  0.3441 -0.6174 -0.5593
 4232TIP3    H134187   1.073   5.543  16.951  0.6869 -0.3174  0.3655
 4232TIP3    H234188   1.187   5.455  16.904 -0.8184 -0.6641 -2.7116
 4233TIP3   OH234189   5.047   6.515  15.819  0.1954  0.2654  0.7478
 4233TIP3    H134190   5.112   6.451  15.846 -0.0157 -0.6807 -0.9279
 4233TIP3    H234191   5.083   6.554  15.739 -1.5467 -0.7185 -0.5619
 4234TIP3   OH234192   4.748   3.043  13.851  0.1239 -0.2440 -0.4120
 4234TIP3    H134193   4.743   3.122  13.796 -0.9935 -0.4496 -0.6156
 4234TIP3    H234194   4.803   2.983  13.801  1.7021  0.6926  0.1277
 4235TIP3   OH234195   3.395   0.955   6.005  0.1383  0.4702  0.3907
 4235TIP3    H134196   3.390   0.901   6.084 -1.2410 -1.0491 -0.6936
 4235TIP3    H234197   3.468   0.916   5.955 -1.6637 -1.2464 -0.9714
 4236TIP3   OH234198   5.189   2.652   2.292 -0.8886 -0.2233  0.5397
 4236TIP3    H134199   5.277   2.678   2.319  0.2478 -1.5175 -1.8042
 4236TIP3    H234200   5.185   2.559   2.311 -0.5539 -0.8696 -2.3089
 4237TIP3   OH234201   3.968   2.430  14.710 -0.0471  0.0422  0.1317
 4237TIP3    H134202   4.031   2.492  14.747  0.7679 -0.4179 -0.4768
 4237TIP3    H234203   4.001   2.412  14.622  0.5018 -2.3264  0.8024
 4238TIP3   OH234204   1.857   6.294   3.612  0.1573 -0.1486 -0.7245
 4238TIP3    H134205   1.850   6.207   3.651 -0.2169  0.0589 -0.3221
 4238TIP3    H234206   1.872   6.278   3.519  0.8677 -0.6478 -0.5241
 4239TIP3   OH234207   1.874   2.009   3.704 -0.1996  0.3780 -0.4024
 4239TIP3    H134208   1.875   1.920   3.738 -1.6209  0.9670  1.2159
 4239TIP3    H234209   1.885   1.998   3.609 -0.5421 -1.5334 -0.2440
 4240TIP3   OH234210   6.258   5.774  15.510  0.1723 -0.2447 -0.4675
 4240TIP3    H134211   6.233   5.810  15.596  0.3660 -0.4490 -0.3270
 4240TIP3    H234212   6.353   5.783  15.507 -0.0736  2.2809 -1.7899
 4241TIP3   OH234213   2.138   1.675  13.285 -0.7057 -0.2222  0.3064
 4241TIP3    H134214   2.097   1.720  13.211  0.3114 -0.3404 -0.3389
 4241TIP3    H234215   2.072   1.614  13.316 -0.7877 -0.8948 -1.1567
 4242TIP3   OH234216   6.057   3.050  11.691  0.2608  0.0005  0.1955
 4242TIP3    H134217   6.032   3.056  11.784  1.4029 -1.6995  0.6516
 4242TIP3    H234218   6.092   3.136  11.670  0.5396  0.2261  1.5086
 4243TIP3   OH234219   2.488   0.998   5.338  0.1162 -0.6250 -1.0643
 4243TIP3    H134220   2.464   0.906   5.350  0.4071 -0.3396  2.0854
 4243TIP3    H234221   2.583   0.999   5.340  0.1280 -0.2913 -1.5902
 4244TIP3   OH234222   2.829   0.559  11.291  0.1717 -0.8109 -0.2289
 4244TIP3    H134223   2.757   0.511  11.250 -0.0658 -1.0513  0.4551
 4244TIP3    H234224   2.822   0.648  11.257  0.0099 -1.0218 -0.7427
 4245TIP3   OH234225   4.246   3.199   4.931  0.1094 -0.2170  0.0152
 4245TIP3    H134226   4.167   3.145   4.930 -0.3309  0.3766  1.5928
 4245TIP3    H234227   4.274   3.200   5.022  1.5673  0.1276 -0.4230
 4246TIP3   OH234228   0.944   1.786  12.951  0.0330  0.2152 -0.1984
 4246TIP3    H134229   0.942   1.701  12.906  0.0105  0.3994 -0.5469
 4246TIP3    H234230   0.853   1.800  12.979 -0.5169  1.3179 -2.3986
 4247TIP3   OH234231   2.922   2.533  15.995 -0.2096  0.3965  0.1940
 4247TIP3    H134232   2.865   2.463  16.025 -1.1639  0.7437 -0.7454
 4247TIP3    H234233   2.903   2.540  15.901  0.9909  0.8769 -0.0152
 4248TIP3   OH234234   5.985   3.646   0.076 -0.5503  0.4462  0.2481
 4248TIP3    H134235   6.010   3.607   0.160  0.2627  1.2422  0.3798
 4248TIP3    H234236   5.915   3.708   0.098 -0.6955  0.2748  0.2677
 4249TIP3   OH234237   6.599   4.259  11.817 -0.4031 -0.3564 -0.6167
 4249TIP3    H134238   6.635   4.176  11.847 -0.3553  0.0944  0.5939
 4249TIP3    H234239   6.661   4.289  11.750 -0.6693 -1.5070 -1.3889
 4250TIP3   OH234240   1.253   6.257   4.379  0.5034 -0.6437 -0.1598
 4250TIP3    H134241   1.203   6.225   4.304 -1.3549 -1.2572  1.2839
 4250TIP3    H234242   1.338   6.281   4.343 -0.0992 -1.6107 -2.3218
 4251TIP3   OH234243   2.440   5.294  11.682 -0.0765  0.0244  0.0840
 4251TIP3    H134244   2.503   5.325  11.618 -0.2188 -0.7936 -0.4563
 4251TIP3    H234245   2.489   5.293  11.765  0.9753 -1.6611 -0.5139
 4252TIP3   OH234246   5.500   6.737  14.491 -0.7059 -0.1433  0.3416
 4252TIP3    H134247   5.534   6.682  14.561 -1.6886 -0.7876  0.3194
 4252TIP3    H234248   5.500   6.826  14.527  1.7848  0.0348  0.0553
 4253TIP3   OH234249   2.459   1.911   3.295  0.3410  0.0155  0.0587
 4253TIP3    H134250   2.405   1.990   3.292 -2.1872 -1.6159  0.1048
 4253TIP3    H234251   2.510   1.914   3.214 -1.9758  0.2304 -1.4653
 4254TIP3   OH234252   2.567   5.097  14.697 -0.0815  0.3389 -0.1289
 4254TIP3    H134253   2.481   5.055  14.702 -0.1777  0.6527  0.8805
 4254TIP3    H234254   2.593   5.086  14.605 -0.2151 -1.6836  0.0402
 4255TIP3   OH234255   1.525   0.440  15.980 -0.3119  0.0933  0.4826
 4255TIP3    H134256   1.534   0.366  15.920 -1.5400  0.1412  0.2315
 4255TIP3    H234257   1.525   0.400  16.067  1.4515  0.0238  0.4659
 4256TIP3   OH234258   0.513   4.021  16.927  0.1080  0.2376 -0.4215
 4256TIP3    H134259   0.556   3.956  16.872 -0.2000 -0.0783 -0.2859
 4256TIP3    H234260   0.428   4.036  16.886 -0.2336 -0.2051  0.1242
 4257TIP3   OH234261   3.258   4.539  15.840  0.1041  0.2644  0.4267
 4257TIP3    H134262   3.309   4.458  15.845  0.4292  0.4941  0.8259
 4257TIP3    H234263   3.185   4.525  15.900  0.1211  0.2440  0.4429
 4258TIP3   OH234264   6.625   4.851  16.129  0.3650  0.0783 -0.1887
 4258TIP3    H134265   6.591   4.781  16.184 -1.5989  0.4871 -0.8615
 4258TIP3    H234266   6.696   4.890  16.180 -1.5532  0.5827  2.1211
 4259TIP3   OH234267   3.776   0.291  11.050  0.0934 -0.0990 -0.2315
 4259TIP3    H134268   3.860   0.328  11.078  0.8017 -0.7435 -1.4684
 4259TIP3    H234269   3.744   0.353  10.984  0.3922 -0.6973 -0.9466
 4260TIP3   OH234270   2.434   0.656  12.823  0.5862  0.4152 -0.4056
 4260TIP3    H134271   2.464   0.583  12.877 -0.0725 -0.1769 -0.8330
 4260TIP3    H234272   2.392   0.615  12.747 -0.5394  1.2329 -0.2338
 4261TIP3   OH234273   4.175   2.997   4.485  0.2561 -0.4957 -0.5556
 4261TIP3    H134274   4.165   2.909   4.521 -1.6032 -0.2434 -0.4009
 4261TIP3    H234275   4.213   2.983   4.398  0.8677 -1.3854 -0.1541
 4262TIP3   OH234276   0.881   0.765   0.244 -0.0838  0.6997  0.0337
 4262TIP3    H134277   0.929   0.696   0.290 -0.0248  0.4068 -0.4718
 4262TIP3    H234278   0.808   0.720   0.202  1.4374  0.5056 -2.5166
 4263TIP3   OH234279   2.679   1.090  14.778 -0.3119 -0.4309  0.7980
 4263TIP3    H134280   2.681   1.001  14.811  0.3642 -0.7569 -0.1061
 4263TIP3    H234281   2.610   1.091  14.712  0.2997 -0.5164  0.1574
 4264TIP3   OH234282   1.886   0.754  13.950 -0.1902  0.3371 -0.4310
 4264TIP3    H134283   1.835   0.763  14.030  0.3650  0.7317 -0.1149
 4264TIP3    H234284   1.957   0.817  13.960  1.4851 -1.5539  0.0106
 4265TIP3   OH234285   3.485   6.472   2.135 -0.1869  0.1321 -0.2887
 4265TIP3    H134286   3.448   6.550   2.176  1.6428  1.4606 -1.0964
 4265TIP3    H234287   3.418   6.443   2.073 -1.4265  0.2617  0.9870
 4266TIP3   OH234288   1.474   5.758   5.713  0.3659 -0.2785  0.3855
 4266TIP3    H134289   1.453   5.735   5.623 -1.6419  0.9453  0.5059
 4266TIP3    H234290   1.465   5.853   5.717  1.0213 -0.2587  1.7283
 4267TIP3   OH234291   4.075   2.878   3.212  0.4477 -0.4817 -0.1913
 4267TIP3    H134292   4.144   2.825   3.172  1.6654  1.2979 -0.5044
 4267TIP3    H234293   4.053   2.942   3.145  0.0259  0.3139  0.7046
 4268TIP3   OH234294   0.969   0.282   2.784  0.6787  0.0336 -0.5913
 4268TIP3    H134295   1.022   0.291   2.863 -2.0453  1.1746  1.1927
 4268TIP3    H234296   0.895   0.228   2.811  0.8698 -1.5612 -3.0270
 4269TIP3   OH234297   3.219   2.834   3.835  0.3435 -0.4442  0.0337
 4269TIP3    H134298   3.257   2.760   3.789 -1.1124 -0.5036 -1.1001
 4269TIP3    H234299   3.131   2.842   3.799  0.0078  0.9813  1.1289
 4270TIP3   OH234300   4.144   3.330  15.811  0.0421  0.4409  0.1132
 4270TIP3    H134301   4.211   3.370  15.756 -0.2189 -0.0531 -0.5672
 4270TIP3    H234302   4.063   3.340  15.762 -0.3508  0.8560  0.8438
 4271TIP3   OH234303   5.330   3.910  16.280 -0.0072 -0.3241 -0.7072
 4271TIP3    H134304   5.237   3.892  16.274  0.2598 -1.3644 -2.1392
 4271TIP3    H234305   5.344   3.984  16.220 -0.2768  1.3465  1.2691
 4272TIP3   OH234306   1.396   1.742   2.644 -0.3795 -0.2068 -0.1617
 4272TIP3    H134307   1.335   1.771   2.576 -0.3261  2.9021  1.0622
 4272TIP3    H234308   1.479   1.733   2.598 -0.9791 -1.0884 -1.1135
 4273TIP3   OH234309   5.978   3.652  16.708  0.1621 -0.4135  0.0454
 4273TIP3    H134310   5.932   3.585  16.759 -5.1146  0.2499 -3.4514
 4273TIP3    H234311   5.961   3.733  16.755  2.2364 -0.7605  1.4912
 4274TIP3   OH234312   1.359   0.470   6.387  0.0817  0.1015 -0.0574
 4274TIP3    H134313   1.375   0.378   6.408 -0.1457  0.0160 -0.2447
 4274TIP3    H234314   1.380   0.517   6.467 -0.6510 -0.2017  0.3170
 4275TIP3   OH234315   1.612   2.010   3.494 -0.1491  0.2773  0.0658
 4275TIP3    H134316   1.528   1.967   3.508  0.9383 -1.4502  1.4980
 4275TIP3    H234317   1.668   1.979   3.565  1.5107  1.9176 -0.4648
 4276TIP3   OH234318   0.830   6.457   0.979  0.3395  0.0451 -0.3616
 4276TIP3    H134319   0.854   6.397   1.049 -1.7777  0.1270  0.4739
 4276TIP3    H234320   0.878   6.537   0.998 -0.2905  0.0894  1.0684
 4277TIP3   OH234321   1.999   0.636  14.479 -0.0036 -0.1896 -0.0914
 4277TIP3    H134322   1.949   0.590  14.411 -0.4522 -0.4094  0.3879
 4277TIP3    H234323   1.967   0.600  14.561 -0.0153  0.6310  0.2704
 4278TIP3   OH234324   4.690   6.478   4.992 -0.2061  0.0208  0.3088
 4278TIP3    H134325   4.629   6.517   5.055 -1.2538  0.4144 -0.9180
 4278TIP3    H234326   4.644   6.484   4.909  1.1107 -0.6203 -0.4692
 4279TIP3   OH234327   3.691   5.975   2.189  0.0459  0.1534  0.4156
 4279TIP3    H134328   3.650   6.061   2.177 -0.7970 -0.4947 -1.4614
 4279TIP3    H234329   3.785   5.992   2.177 -0.2799  0.5006 -1.8954
 4280TIP3   OH234330   0.254   3.931  11.142 -0.0681  0.4591  0.1656
 4280TIP3    H134331   0.191   4.002  11.153  0.3592  1.1988 -1.8676
 4280TIP3    H234332   0.209   3.868  11.087 -0.1151 -0.4430  1.2286
 4281TIP3   OH234333   2.497   2.911  16.632  0.0514  0.0250 -0.3192
 4281TIP3    H134334   2.459   2.869  16.554 -0.1018  1.5399 -1.0758
 4281TIP3    H234335   2.438   2.887  16.703 -1.7946  1.5139 -1.2959
 4282TIP3   OH234336   0.445   1.295  15.379  0.0265  0.1523 -0.4253
 4282TIP3    H134337   0.507   1.290  15.451  1.2453 -5.2279 -1.6213
 4282TIP3    H234338   0.487   1.354  15.315  0.5553  2.1427  1.7053
 4283TIP3   OH234339   2.922   0.087  13.090  0.2419 -0.0786  0.0960
 4283TIP3    H134340   2.995   0.034  13.059  1.8825  2.0906  0.0527
 4283TIP3    H234341   2.963   0.171  13.115 -2.0292  0.6808  1.4372
 4284TIP3   OH234342   4.846   5.974  12.351  0.1316 -0.1945  0.1989
 4284TIP3    H134343   4.931   6.014  12.334 -0.1304  0.8145  1.1557
 4284TIP3    H234344   4.841   5.970  12.447 -1.0467  0.0863  0.1551
 4285TIP3   OH234345   3.318   4.263   0.343 -0.0565  0.2221 -0.2224
 4285TIP3    H134346   3.359   4.306   0.418 -0.5080  0.5616 -0.1698
 4285TIP3    H234347   3.261   4.330   0.305  2.3206  0.9723 -2.5678
 4286TIP3   OH234348   1.221   4.507  11.295  0.3352 -0.2616  0.2936
 4286TIP3    H134349   1.310   4.483  11.268  1.0900  0.3913  2.1092
 4286TIP3    H234350   1.234   4.576  11.360 -1.4150 -1.4532  1.9499
 4287TIP3   OH234351   4.480   3.803  14.441 -0.8276  0.1928  0.1512
 4287TIP3    H134352   4.517   3.763  14.520  0.4757 -1.0909 -1.0695
 4287TIP3    H234353   4.399   3.754  14.425 -1.0010  0.3371  0.6007
 4288TIP3   OH234354   3.916   2.415   3.925 -0.0206  0.3507 -0.7130
 4288TIP3    H134355   3.913   2.467   4.005  1.4368  0.7351 -0.8857
 4288TIP3    H234356   3.855   2.458   3.865  0.0952  1.0053 -0.3594
 4289TIP3   OH234357   0.529   5.571   0.950  0.8742  0.4420 -0.2188
 4289TIP3    H134358   0.619   5.600   0.969  0.8876  0.0909  0.2691
 4289TIP3    H234359   0.505   5.518   1.026  0.2187  0.6118 -0.3095
 4290TIP3   OH234360   1.989   1.282   2.686  0.7207  0.5864  0.0185
 4290TIP3    H134361   2.024   1.237   2.762 -0.9439 -0.8894 -0.0681
 4290TIP3    H234362   1.940   1.356   2.722  1.4032  0.9284  0.2652
 4291TIP3   OH234363   2.995   0.535   0.730  0.2448  0.3190 -0.3065
 4291TIP3    H134364   2.992   0.443   0.704  3.1465  0.7196 -2.3037
 4291TIP3    H234365   3.062   0.538   0.799  1.0758  1.0872 -1.1270
 4292TIP3   OH234366   4.441   1.261   6.218  0.1932  0.1693  0.4568
 4292TIP3    H134367   4.487   1.297   6.143  1.9822 -0.6809  1.1225
 4292TIP3    H234368   4.403   1.338   6.262 -0.7255  0.6762 -1.2042
 4293TIP3   OH234369   6.660   5.214  17.160 -0.0459 -0.3177  0.0795
 4293TIP3    H134370   6.671   5.273  17.235 -1.4504 -1.8347  1.5013
 4293TIP3    H234371   6.728   5.147  17.172  0.3969  0.0089 -0.5725
 4294TIP3   OH234372   0.884   2.495  15.028  0.2776  0.2503 -0.0508
 4294TIP3    H134373   0.950   2.559  15.054  1.7752 -1.6730  1.0100
 4294TIP3    H234374   0.930   2.434  14.971 -0.2396 -1.7393  1.5659
 4295TIP3   OH234375   1.154   0.055  14.438  0.2038  0.0909 -0.0690
 4295TIP3    H134376   1.104  -0.025  14.459  0.9993 -0.1304  1.0200
 4295TIP3    H234377   1.237   0.023  14.403  0.9566  0.4153  1.3776
 4296TIP3   OH234378   5.208   0.676  13.452 -0.2633  0.1684  0.3806
 4296TIP3    H134379   5.260   0.608  13.496  1.3146  0.6204 -0.7384
 4296TIP3    H234380   5.195   0.743  13.518  1.9106  0.7451  0.2614
 4297TIP3   OH234381   1.995   3.050   0.765  0.2954 -0.5726  0.2727
 4297TIP3    H134382   2.078   3.022   0.727  0.9255  0.6836  0.6920
 4297TIP3    H234383   2.006   3.036   0.859  0.2567  0.1395  0.3860
 4298TIP3   OH234384   0.877   1.010   2.800  0.1314  0.0739 -0.7198
 4298TIP3    H134385   0.791   1.051   2.808  0.1967  0.0991 -0.0567
 4298TIP3    H234386   0.914   1.045   2.719 -0.8869 -0.7111 -1.5399
 4299TIP3   OH234387   6.807   4.724   3.309  0.0890  0.4185 -0.3185
 4299TIP3    H134388   6.787   4.664   3.381  1.5521 -0.8023 -0.9000
 4299TIP3    H234389   6.721   4.746   3.272 -0.5530 -0.3434  0.6731
 4300TIP3   OH234390   3.488   5.397  13.420 -0.6243 -0.0989 -0.1881
 4300TIP3    H134391   3.536   5.456  13.361  0.4552 -0.2500  0.5363
 4300TIP3    H234392   3.482   5.445  13.502 -1.1182 -0.3701 -0.0665
 4301TIP3   OH234393   6.396   1.818  14.148 -0.3814 -0.7208  0.2547
 4301TIP3    H134394   6.334   1.879  14.188  0.6413  1.4980 -1.4533
 4301TIP3    H234395   6.360   1.801  14.061  0.2799 -1.1580  0.0689
 4302TIP3   OH234396   4.303   6.466   1.828  0.2017 -0.3431  0.5753
 4302TIP3    H134397   4.322   6.559   1.838  0.4978 -0.3513  0.0811
 4302TIP3    H234398   4.210   6.463   1.804 -1.0402 -0.3888  4.8057
 4303TIP3   OH234399   0.550   4.738  11.551 -0.2588 -0.5276  0.7186
 4303TIP3    H134400   0.513   4.826  11.560 -1.6394 -1.0502  0.3024
 4303TIP3    H234401   0.498   4.697  11.481  0.9639 -1.3679  0.2785
 4304TIP3   OH234402   6.423   0.597   3.572  0.5022  0.3160  0.0996
 4304TIP3    H134403   6.513   0.563   3.573  0.5152  0.2765 -1.3269
 4304TIP3    H234404   6.405   0.621   3.663  1.7584 -0.2062  0.4912
 4305TIP3   OH234405   2.503   4.632  16.212  0.0479 -0.2015  0.6992
 4305TIP3    H134406   2.409   4.648  16.222 -0.1026  0.2802 -1.2367
 4305TIP3    H234407   2.542   4.672  16.290 -1.4084 -1.2123  1.9850
 4306TIP3   OH234408   6.320   5.685   2.075  0.1218 -0.3826  0.8925
 4306TIP3    H134409   6.408   5.648   2.082 -0.5327 -2.0450  0.4572
 4306TIP3    H234410   6.266   5.631   2.134 -1.1319 -1.0889 -0.8510
 4307TIP3   OH234411   2.766   4.230   5.882  0.0068 -0.1872  0.8684
 4307TIP3    H134412   2.834   4.268   5.938 -1.7227  1.7336  1.7253
 4307TIP3    H234413   2.813   4.203   5.803  1.9629 -0.0408  1.9455
 4308TIP3   OH234414   2.627   6.553   4.876  0.1985 -0.6175 -0.7171
 4308TIP3    H134415   2.657   6.462   4.880 -1.3021 -1.0547  1.3186
 4308TIP3    H234416   2.551   6.556   4.935 -1.1685  1.4256 -2.4957
 4309TIP3   OH234417   0.878   0.154   5.698 -0.5163  0.5852  0.1925
 4309TIP3    H134418   0.912   0.164   5.609  0.0759  0.9569  0.4510
 4309TIP3    H234419   0.783   0.152   5.688 -0.4499  0.5373 -0.4559
 4310TIP3   OH234420   0.097   3.890   0.153 -0.3915 -0.0710  0.7637
 4310TIP3    H134421   0.057   3.977   0.152 -0.2864 -0.0139 -1.1194
 4310TIP3    H234422   0.029   3.832   0.121  0.5557 -0.1672 -1.1927
 4311TIP3   OH234423   6.641   3.314   4.076  0.0848 -0.5448  0.5590
 4311TIP3    H134424   6.642   3.409   4.089 -2.0386 -0.3762 -0.4623
 4311TIP3    H234425   6.549   3.292   4.063  0.8119 -2.4081 -1.7445
 4312TIP3   OH234426   1.694   2.692  15.610  0.4183  0.4495  0.0831
 4312TIP3    H134427   1.682   2.719  15.519  0.3430 -0.5412 -0.2070
 4312TIP3    H234428   1.680   2.598  15.609  0.3658  0.4410  1.1356
 4313TIP3   OH234429   2.283   4.944  13.098  0.4139 -0.2408 -0.1237
 4313TIP3    H134430   2.221   4.871  13.106  0.6389 -0.2502  1.8621
 4313TIP3    H234431   2.304   4.967  13.189  0.9415  1.7902 -0.7469
 4314TIP3   OH234432   5.517   3.083   2.641  0.2498  0.2125  0.5733
 4314TIP3    H134433   5.532   3.120   2.554  0.0810  0.7481  0.7682
 4314TIP3    H234434   5.450   3.017   2.629  1.1665 -0.6384  0.0682
 4315TIP3   OH234435   4.193   1.296   4.291 -0.0695  0.3876  0.1016
 4315TIP3    H134436   4.123   1.301   4.357  0.5371  1.2732  0.6948
 4315TIP3    H234437   4.148   1.306   4.207 -1.0406 -2.2061  0.2680
 4316TIP3   OH234438   5.585   0.009  11.085  0.2715 -0.2664  0.1383
 4316TIP3    H134439   5.517   0.074  11.105  0.4175  0.0413 -0.3427
 4316TIP3    H234440   5.655   0.060  11.045  0.9918 -0.5135  1.0700
 4317TIP3   OH234441   6.315   4.185  11.652  0.1929 -0.3475  0.1578
 4317TIP3    H134442   6.250   4.166  11.584  1.4737  0.4042 -1.3296
 4317TIP3    H234443   6.394   4.140  11.622  0.0986 -2.1423  2.4788
 4318TIP3   OH234444   5.273   2.425   4.150  0.0569 -0.1347  0.2357
 4318TIP3    H134445   5.260   2.330   4.147  0.8310 -0.2228 -0.4354
 4318TIP3    H234446   5.185   2.460   4.163 -0.2680 -0.9371  0.2376
 4319TIP3   OH234447   3.662   1.275  12.466  0.1744  0.0003 -0.1341
 4319TIP3    H134448   3.586   1.260  12.410  0.1266  2.6286 -0.8499
 4319TIP3    H234449   3.712   1.343  12.420  1.2260  0.6636  1.9385
 4320TIP3   OH234450   6.504   0.362  14.863  0.6022 -0.3189 -0.3436
 4320TIP3    H134451   6.511   0.444  14.814  0.9423 -0.7650 -1.0519
 4320TIP3    H234452   6.531   0.295  14.800 -0.4298 -1.0524 -0.0041
 4321TIP3   OH234453   5.700   1.278   0.968 -0.1544  0.6393 -0.4318
 4321TIP3    H134454   5.725   1.354   1.021 -0.1465  0.9566 -0.8855
 4321TIP3    H234455   5.701   1.204   1.029  0.6265  0.8720 -0.1696
 4322TIP3   OH234456   5.850   4.850  15.768  0.4282 -0.3012 -0.0114
 4322TIP3    H134457   5.911   4.911  15.728  2.0605 -1.1032  1.2034
 4322TIP3    H234458   5.895   4.819  15.847 -2.5125  0.9259  2.2236
 4323TIP3   OH234459   3.273   3.749  17.042 -0.1747 -0.1530  0.6387
 4323TIP3    H134460   3.340   3.808  17.008  1.3483 -2.4247 -0.3892
 4323TIP3    H234461   3.241   3.702  16.965 -0.3068 -1.7392  1.6334
 4324TIP3   OH234462   5.122   3.643   5.058 -0.4674 -0.4890 -0.5674
 4324TIP3    H134463   5.185   3.625   5.128 -1.3375 -0.3956  0.2597
 4324TIP3    H234464   5.134   3.571   4.996 -2.7713 -3.1733  1.8966
 4325TIP3   OH234465   0.052   2.461  12.198 -0.6414 -0.5535  0.2290
 4325TIP3    H134466   0.143   2.432  12.208 -0.4520 -0.5902 -1.3823
 4325TIP3    H234467   0.003   2.380  12.185 -0.9634 -0.5604  1.4801
 4326TIP3   OH234468   1.671   4.262   4.438 -0.0640  0.5990  0.5490
 4326TIP3    H134469   1.653   4.184   4.490  2.3344 -0.3160  0.0472
 4326TIP3    H234470   1.594   4.270   4.380 -0.2714 -1.4848  0.4974
 4327TIP3   OH234471   5.062   1.025  15.571 -0.0495  0.0951  0.4438
 4327TIP3    H134472   5.123   0.958  15.541  0.6763 -0.1975  2.4773
 4327TIP3    H234473   5.099   1.056  15.654 -0.5791  2.7597 -0.2852
 4328TIP3   OH234474   2.433   3.330   1.951 -0.2063 -0.1430 -0.1334
 4328TIP3    H134475   2.457   3.281   1.872  0.9500 -1.5554  1.0868
 4328TIP3    H234476   2.473   3.416   1.939  1.7788 -1.0539 -0.1204
 4329TIP3   OH234477   2.362   6.605  14.080  0.0159 -0.5283  0.3832
 4329TIP3    H134478   2.319   6.524  14.051 -0.0417 -0.2105 -0.4336
 4329TIP3    H234479   2.435   6.617  14.019 -1.1411  1.0658 -0.7434
 4330TIP3   OH234480   1.133   5.100  17.244  0.1074  0.2709 -0.8147
 4330TIP3    H134481   1.164   5.032  17.184  0.0886 -0.3479 -0.1349
 4330TIP3    H234482   1.208   5.119  17.299 -0.2752 -0.1519 -0.1436
 4331TIP3   OH234483   2.445   1.025   3.186 -0.1841  0.3237 -0.4214
 4331TIP3    H134484   2.480   1.011   3.273 -0.6430  1.9426  0.0444
 4331TIP3    H234485   2.508   1.083   3.143  0.6011 -1.3300 -1.5589
 4332TIP3   OH234486   5.595   3.411  11.726 -0.3963  0.3209 -0.1548
 4332TIP3    H134487   5.663   3.452  11.672 -1.1322 -0.3894 -1.6572
 4332TIP3    H234488   5.515   3.423  11.675 -0.7114 -2.5231 -0.3891
 4333TIP3   OH234489   4.394   3.850  15.474 -0.3024 -0.1444 -0.2497
 4333TIP3    H134490   4.427   3.783  15.533 -2.8735 -1.1488  0.0852
 4333TIP3    H234491   4.472   3.901  15.450  1.3682 -2.0339  1.0017
 4334TIP3   OH234492   2.606   1.271   5.362  0.6032  0.0054  0.0755
 4334TIP3    H134493   2.550   1.203   5.325  0.4554 -0.5766  1.3456
 4334TIP3    H234494   2.659   1.226   5.428  0.8208  1.0322  0.6190
 4335TIP3   OH234495   0.089   3.321   0.348 -0.4053  0.2335 -0.2957
 4335TIP3    H134496   0.106   3.399   0.399  0.7354  0.2438 -0.6564
 4335TIP3    H234497   0.164   3.315   0.288 -0.3426 -1.2550 -0.1035
 4336TIP3   OH234498   6.655   2.364   5.584 -0.1163  0.2862  0.4308
 4336TIP3    H134499   6.650   2.377   5.490 -0.0413  1.9370  0.6440
 4336TIP3    H234500   6.572   2.322   5.607 -0.8277  1.3818 -0.1379
 4337TIP3   OH234501   2.595   3.809  13.956  0.0132 -0.0341 -0.6840
 4337TIP3    H134502   2.556   3.729  13.918 -1.1016 -0.1772  0.7418
 4337TIP3    H234503   2.570   3.878  13.895 -0.8769 -0.4302 -0.7817
 4338TIP3   OH234504   0.307   5.583  16.547  0.2171  0.2326  0.2378
 4338TIP3    H134505   0.270   5.670  16.528 -0.9767 -0.2129  0.4677
 4338TIP3    H234506   0.243   5.543  16.606 -0.0843 -1.4261 -1.1695
 4339TIP3   OH234507   6.249   4.634   0.062 -0.5232 -0.0119  0.0390
 4339TIP3    H134508   6.304   4.651   0.138  1.6916 -1.7292 -1.1103
 4339TIP3    H234509   6.220   4.721   0.034 -2.1189  0.5790  3.3080
 4340TIP3   OH234510   5.015   2.039   4.479  0.3148  0.1833  0.2135
 4340TIP3    H134511   4.943   1.999   4.528  0.3870  0.8157  0.8405
 4340TIP3    H234512   5.094   1.998   4.514  0.3163  0.1074  0.1218
 4341TIP3   OH234513   5.706   5.415  11.451  0.1314 -0.0064 -0.1696
 4341TIP3    H134514   5.735   5.377  11.534 -1.9650 -3.1065 -0.7527
 4341TIP3    H234515   5.627   5.464  11.472  0.4069  0.4093 -0.1043
 4342TIP3   OH234516   1.274   6.232   4.049  0.0233 -0.1676 -0.3711
 4342TIP3    H134517   1.215   6.301   4.018 -0.4801  0.2470  1.4420
 4342TIP3    H234518   1.221   6.182   4.111  1.6377  0.3624  1.4822
 4343TIP3   OH234519   6.235   2.902   2.756  0.0418  0.0253  0.8259
 4343TIP3    H134520   6.257   2.815   2.723 -2.1373 -0.0677 -0.4621
 4343TIP3    H234521   6.320   2.945   2.767  1.0853 -1.8687  0.3823
 4344TIP3   OH234522   5.737   1.774   0.416  0.1129  0.0995  0.5671
 4344TIP3    H134523   5.690   1.731   0.488  0.9848 -0.4490  0.8172
 4344TIP3    H234524   5.692   1.744   0.337  1.1444 -1.8778  0.6952
 4345TIP3   OH234525   0.998   6.676  16.648 -0.3622  0.3932 -0.0040
 4345TIP3    H134526   0.993   6.668  16.743  0.5004 -2.4036 -0.1539
 4345TIP3    H234527   1.092   6.680  16.629 -0.5465  1.8114 -0.6996
 4346TIP3   OH234528   3.086   0.892  12.543 -0.2508  0.3198  1.1490
 4346TIP3    H134529   3.137   0.970  12.523  0.4059 -0.4906 -0.4658
 4346TIP3    H234530   3.000   0.925  12.570 -1.2793  1.5804 -3.2390
 4347TIP3   OH234531   5.223   6.043   3.912  0.7103 -0.0343 -0.6994
 4347TIP3    H134532   5.224   6.099   3.990 -0.8312 -1.4365  0.3710
 4347TIP3    H234533   5.306   5.996   3.916 -0.4240 -2.0205  1.6199
 4348TIP3   OH234534   1.166   5.359   1.731 -0.4989  0.1611 -0.4283
 4348TIP3    H134535   1.243   5.304   1.747  0.3508  1.3904 -0.2258
 4348TIP3    H234536   1.094   5.313   1.774 -0.6130 -2.7957 -3.4961
 4349TIP3   OH234537   5.740   2.968  13.128 -0.3974 -0.1779 -0.1075
 4349TIP3    H134538   5.795   2.965  13.050  1.9582  1.3975  1.3955
 4349TIP3    H234539   5.783   3.033  13.184 -2.3301 -0.8762  2.2546
 4350TIP3   OH234540   2.123   2.360  15.069 -0.1139  0.5975  0.0960
 4350TIP3    H134541   2.141   2.344  15.162  1.5721  0.4498 -0.2326
 4350TIP3    H234542   2.165   2.444  15.051  0.2277  0.2646 -0.6960
 4351TIP3   OH234543   5.402   1.874  12.326  0.5304 -0.4855  0.6912
 4351TIP3    H134544   5.430   1.783  12.325  0.6841 -0.4427 -1.5393
 4351TIP3    H234545   5.374   1.892  12.236  0.7856  1.7448  1.0176
 4352TIP3   OH234546   3.769   4.570   0.933 -0.2482 -0.2335 -0.0153
 4352TIP3    H134547   3.802   4.654   0.900  1.6641 -0.7924  0.3862
 4352TIP3    H234548   3.837   4.540   0.993 -1.4206 -1.5603  0.6827
 4353TIP3   OH234549   5.823   5.939  11.980 -0.1564  0.2337 -0.1448
 4353TIP3    H134550   5.828   5.845  11.999  0.6800 -0.5378 -3.7520
 4353TIP3    H234551   5.889   5.979  12.037  1.0926 -1.6785 -0.1931
 4354TIP3   OH234552   1.070   2.686   1.510 -0.0331 -0.0540 -0.5415
 4354TIP3    H134553   0.979   2.657   1.511  0.7118 -2.4678  0.1539
 4354TIP3    H234554   1.081   2.732   1.593 -0.6293  0.3105 -0.6599
 4355TIP3   OH234555   5.789   3.763  12.570  0.0841  0.5520 -0.4736
 4355TIP3    H134556   5.858   3.827  12.556 -0.7675  1.5629 -0.1104
 4355TIP3    H234557   5.791   3.744  12.663 -0.6401  1.1801 -0.3256
 4356TIP3   OH234558   0.927   3.071   0.732 -0.2363  0.5251 -0.2766
 4356TIP3    H134559   0.900   3.085   0.641  1.9488 -1.0086 -1.2122
 4356TIP3    H234560   0.986   3.144   0.751  2.8562 -1.4645 -1.6657
 4357TIP3   OH234561   6.035   4.512  16.312  0.1228 -0.0189 -0.0072
 4357TIP3    H134562   6.064   4.603  16.325 -0.7906  0.3266 -0.3316
 4357TIP3    H234563   5.999   4.487  16.397 -0.5953  0.2926 -0.2116
 4358TIP3   OH234564   5.740   4.372   1.249  0.4607  0.5181  0.4686
 4358TIP3    H134565   5.735   4.301   1.185  0.4958  0.5690  0.4109
 4358TIP3    H234566   5.826   4.411   1.236  0.7716  0.0409  1.0594
 4359TIP3   OH234567   3.800   2.027  14.887 -0.3610 -0.2285 -0.8915
 4359TIP3    H134568   3.865   2.086  14.849 -0.3291  1.2534  1.3936
 4359TIP3    H234569   3.835   2.006  14.974 -1.7330 -1.4243 -0.6087
 4360TIP3   OH234570   1.137   5.126   0.780 -0.0993  0.4920 -0.7194
 4360TIP3    H134571   1.121   5.035   0.754  0.5729  0.2368 -0.2543
 4360TIP3    H234572   1.221   5.148   0.741  1.6798 -0.4007  2.3793
 4361TIP3   OH234573   3.405   6.146   2.103 -0.3505  0.0667  0.4896
 4361TIP3    H134574   3.433   6.094   2.028  0.5221 -0.5274  1.2187
 4361TIP3    H234575   3.361   6.222   2.064 -0.0998 -0.3422 -0.6148
 4362TIP3   OH234576   1.224   6.107   3.513  0.3588  0.3109 -0.0073
 4362TIP3    H134577   1.318   6.108   3.494 -0.2097 -0.9138 -3.1076
 4362TIP3    H234578   1.194   6.023   3.481 -1.9794  1.0896  0.0772
 4363TIP3   OH234579   0.186   4.690  17.123  0.1264  0.4208  0.4142
 4363TIP3    H134580   0.212   4.773  17.083  0.6879 -1.3985 -3.2164
 4363TIP3    H234581   0.268   4.653  17.156  0.5505 -0.5055 -1.6100
 4364TIP3   OH234582   0.006   4.293   1.597  0.3227  0.1646  0.5322
 4364TIP3    H134583   0.055   4.213   1.577 -0.6337  0.0846 -1.6740
 4364TIP3    H234584  -0.082   4.262   1.618 -0.3027  0.6407 -1.2306
 4365TIP3   OH234585   1.744   6.415   2.552  0.3995  0.1381 -0.1328
 4365TIP3    H134586   1.751   6.510   2.542  0.0285  0.7217  3.9519
 4365TIP3    H234587   1.785   6.397   2.637 -3.0574 -2.8126  1.0375
 4366TIP3   OH234588   5.841   4.860   3.000  0.2848 -0.5305 -0.2459
 4366TIP3    H134589   5.920   4.835   2.952  0.0705  1.1638 -1.5291
 4366TIP3    H234590   5.769   4.844   2.938 -0.3483 -1.6571  0.7559
 4367TIP3   OH234591   5.233   0.704   5.637  0.4363 -0.4915  0.0408
 4367TIP3    H134592   5.143   0.671   5.637 -0.0543  0.6844 -2.2279
 4367TIP3    H234593   5.236   0.762   5.560  2.7222  0.6094  0.9386
 4368TIP3   OH234594   1.634   1.099   4.491 -0.0328  0.4316  1.0971
 4368TIP3    H134595   1.621   1.099   4.396 -0.1550 -1.7878  1.0895
 4368TIP3    H234596   1.598   1.183   4.520 -1.2509  0.5531 -0.6618
 4369TIP3   OH234597   1.272   5.307  14.711 -0.3246  0.1680  0.2463
 4369TIP3    H134598   1.239   5.225  14.675  0.9598  0.1913 -0.9853
 4369TIP3    H234599   1.367   5.297  14.713 -0.0692  2.0514 -0.9864
 4370TIP3   OH234600   2.229   3.181  16.069 -0.7570  0.1106 -0.0168
 4370TIP3    H134601   2.301   3.240  16.049  1.0159 -1.2651  2.1177
 4370TIP3    H234602   2.218   3.129  15.989  1.6476 -0.6844  0.1432
 4371TIP3   OH234603   0.438   3.900  11.868 -0.0449 -0.0162 -0.3839
 4371TIP3    H134604   0.365   3.956  11.892  0.0491 -0.0734  0.0349
 4371TIP3    H234605   0.506   3.918  11.933  0.3307  0.0687 -0.7974
 4372TIP3   OH234606   6.636   5.831  15.196  0.4052 -0.0127 -0.4816
 4372TIP3    H134607   6.664   5.901  15.255  2.4948 -0.2508 -1.1582
 4372TIP3    H234608   6.576   5.874  15.135 -1.4287  0.3281  1.5002
 4373TIP3   OH234609   4.541   0.361  14.754  0.4694  0.4090 -0.5766
 4373TIP3    H134610   4.494   0.279  14.771  1.7264 -0.3203 -0.5222
 4373TIP3    H234611   4.521   0.416  14.830 -1.4298  0.6454 -1.2439
 4374TIP3   OH234612   3.272   0.477  10.977  0.8970  0.2527  0.3376
 4374TIP3    H134613   3.318   0.478  10.894  0.0975  0.2125 -0.1112
 4374TIP3    H234614   3.236   0.389  10.985 -1.2534  1.0106 -0.5351
 4375TIP3   OH234615   6.371   2.326   3.878 -0.1965  0.2724 -0.4980
 4375TIP3    H134616   6.429   2.389   3.835 -1.2619  1.9397  0.3968
 4375TIP3    H234617   6.338   2.271   3.808  1.9504 -0.2862 -1.1005
 4376TIP3   OH234618   0.042   3.391   1.174 -0.7485 -0.4437  0.4177
 4376TIP3    H134619   0.076   3.304   1.152  2.0344  0.0940  2.3397
 4376TIP3    H234620  -0.032   3.373   1.232 -2.4088 -1.5706 -1.9411
 4377TIP3   OH234621   1.408   6.076  12.551 -0.6515 -0.1140  0.2208
 4377TIP3    H134622   1.417   6.150  12.610 -2.4572  0.8850 -0.6935
 4377TIP3    H234623   1.318   6.045  12.565 -0.5961 -0.8131 -0.8885
 4378TIP3   OH234624   6.247   6.080  11.615 -0.6269  0.1980 -0.4227
 4378TIP3    H134625   6.200   6.027  11.550  1.5980  0.3929 -2.2648
 4378TIP3    H234626   6.301   6.017  11.663  0.6113  0.5163 -1.3640
 4379TIP3   OH234627   2.366   5.453  16.761 -0.0746 -0.2798 -0.7878
 4379TIP3    H134628   2.457   5.459  16.788  0.1060 -3.1983 -0.5326
 4379TIP3    H234629   2.356   5.364  16.728 -2.3003  0.6896 -2.9014
 4380TIP3   OH234630   0.048   1.815  14.289  0.5742  0.4005  0.0503
 4380TIP3    H134631   0.043   1.868  14.368  1.5657 -0.8059  0.9271
 4380TIP3    H234632  -0.039   1.776  14.281  1.1066 -1.1982  1.7702
 4381TIP3   OH234633   0.711   1.651  15.364  0.2535  0.1668 -0.0709
 4381TIP3    H134634   0.650   1.667  15.292  0.0481  0.4490  0.1641
 4381TIP3    H234635   0.784   1.712  15.347  0.8112 -0.6770 -0.7453
 4382TIP3   OH234636   0.352   4.702  15.801  0.6314  0.3822  0.3326
 4382TIP3    H134637   0.399   4.677  15.721  1.3172  1.2210  0.4579
 4382TIP3    H234638   0.315   4.788  15.781  0.8287  0.6080  0.9252
 4383TIP3   OH234639   3.839   1.542  10.765  0.2367  0.5250  0.9621
 4383TIP3    H134640   3.804   1.547  10.676 -1.6583  1.2211  1.7302
 4383TIP3    H234641   3.793   1.468  10.805  2.1100 -0.6963  0.9598
 4384TIP3   OH234642   4.630   5.614  17.034 -0.0368 -0.0965  0.1169
 4384TIP3    H134643   4.539   5.631  17.057  0.2709  0.4251  0.9873
 4384TIP3    H234644   4.632   5.619  16.938 -1.3910 -2.6071 -0.0726
 4385TIP3   OH234645   5.513   2.512   5.320  0.3138 -0.1361 -0.0413
 4385TIP3    H134646   5.424   2.502   5.285  0.9996 -0.3726 -1.7552
 4385TIP3    H234647   5.557   2.568   5.256  0.5611  2.4483  2.2921
 4386TIP3   OH234648   0.940   6.401   5.999  0.2050 -0.0787  0.6326
 4386TIP3    H134649   0.862   6.400   5.945  0.2628 -0.1152  0.5496
 4386TIP3    H234650   0.987   6.481   5.974 -0.4344  0.5962  1.5793
 4387TIP3   OH234651   3.610   3.045  10.949 -0.7331  0.1147 -0.2646
 4387TIP3    H134652   3.634   3.106  10.880  1.0257 -0.7361 -0.4456
 4387TIP3    H234653   3.694   3.016  10.985 -1.6049 -0.2132  1.5565
 4388TIP3   OH234654   0.667   1.936  12.428  0.1768  0.7782 -0.2114
 4388TIP3    H134655   0.738   1.871  12.428 -0.2572  0.2956 -1.4266
 4388TIP3    H234656   0.592   1.890  12.391 -0.4170  1.6752 -0.1325
 4389TIP3   OH234657   6.059   2.999  13.813 -0.1876  0.1848  0.3335
 4389TIP3    H134658   6.116   2.949  13.754 -1.7107 -0.5699 -0.5186
 4389TIP3    H234659   6.056   2.947  13.894 -0.8242 -0.5279 -0.1380
 4390TIP3   OH234660   0.323   1.859  15.130 -0.4936 -0.4413  0.5946
 4390TIP3    H134661   0.265   1.924  15.170  2.1570  2.0908  0.3989
 4390TIP3    H234662   0.325   1.882  15.038 -0.1050 -1.2895  0.3855
 4391TIP3   OH234663   3.880   2.797  13.506  0.2824  0.3695 -0.5539
 4391TIP3    H134664   3.920   2.723  13.460 -1.0761 -0.6553 -0.0861
 4391TIP3    H234665   3.955   2.846  13.540  1.3846  1.5948 -4.4565
 4392TIP3   OH234666   4.590   4.064  14.485  0.8546 -0.2698  0.3749
 4392TIP3    H134667   4.527   4.131  14.511  0.2504 -0.2546 -1.1102
 4392TIP3    H234668   4.539   3.984  14.478  0.5734  0.1263 -2.7443
 4393TIP3   OH234669   5.462   5.414  11.767  0.1413 -0.1626  0.0642
 4393TIP3    H134670   5.478   5.477  11.837  1.1661  0.8316 -1.0440
 4393TIP3    H234671   5.534   5.352  11.773  1.4461  1.1368 -1.4040
 4394TIP3   OH234672   4.263   5.440  11.910  0.1696 -0.1397  0.6994
 4394TIP3    H134673   4.275   5.533  11.889 -0.4522  0.2472  1.9785
 4394TIP3    H234674   4.323   5.424  11.983 -1.7778 -0.0052  2.3673
 4395TIP3   OH234675   2.364   3.275  16.467  0.0119 -0.5508  0.7122
 4395TIP3    H134676   2.457   3.286  16.483 -0.0185 -1.4548  1.6077
 4395TIP3    H234677   2.358   3.245  16.376  0.5454  0.0662  0.4699
 4396TIP3   OH234678   0.605   4.679   2.211  0.2168  0.4916 -0.2350
 4396TIP3    H134679   0.576   4.704   2.124  2.4279 -0.0984 -1.1888
 4396TIP3    H234680   0.546   4.608   2.237 -0.2675  0.4606 -1.3888
 4397TIP3   OH234681   1.626   2.509   3.323  0.6378 -0.0891  0.3840
 4397TIP3    H134682   1.650   2.531   3.413  0.7089 -1.3628  0.6762
 4397TIP3    H234683   1.619   2.414   3.322 -1.3498  0.0409 -0.4720
 4398TIP3   OH234684   0.497   0.027  13.179  0.1334  0.2613 -0.0571
 4398TIP3    H134685   0.487   0.055  13.270 -0.6461 -1.6870  0.4779
 4398TIP3    H234686   0.549  -0.053  13.183  1.2647  0.9081 -1.4464
 4399TIP3   OH234687   4.479   5.230   5.975  0.5501  0.0921  0.1558
 4399TIP3    H134688   4.403   5.193   6.021  1.9508  0.6139  3.0363
 4399TIP3    H234689   4.554   5.183   6.012  1.8463  1.4153 -0.7201
 4400TIP3   OH234690   0.642   2.795  12.458 -0.8505  0.0190 -0.8447
 4400TIP3    H134691   0.612   2.743  12.533 -1.4391 -0.3210 -1.3168
 4400TIP3    H234692   0.563   2.837  12.425 -0.3980  1.1409 -0.5324
 4401TIP3   OH234693   5.788   2.295  13.038 -0.2438 -0.4479 -0.0787
 4401TIP3    H134694   5.866   2.248  13.067  0.1185  0.3045  0.1973
 4401TIP3    H234695   5.809   2.322  12.948  0.9486  2.1037  0.9034
 4402TIP3   OH234696   1.190   6.030  16.290 -0.1856 -0.7380 -0.3351
 4402TIP3    H134697   1.141   6.099  16.336  0.0104 -1.1714  0.5427
 4402TIP3    H234698   1.252   5.997  16.355  1.8791  0.3845 -1.6737
 4403TIP3   OH234699   6.144   3.598   2.035 -0.2328  0.3726 -0.4787
 4403TIP3    H134700   6.129   3.613   2.129 -0.2369  0.0767 -0.4298
 4403TIP3    H234701   6.216   3.535   2.033 -0.3636  0.2295 -0.6691
 4404TIP3   OH234702   6.527   0.431  17.210 -0.6239 -0.2697  0.2402
 4404TIP3    H134703   6.591   0.469  17.150 -1.8472  0.5861 -0.5354
 4404TIP3    H234704   6.483   0.363  17.159  1.7247 -3.0140  1.6780
 4405TIP3   OH234705   0.072   1.247   1.574 -0.4220 -0.0052  0.0212
 4405TIP3    H134706   0.125   1.189   1.629 -1.8816 -1.6040 -0.2135
 4405TIP3    H234707  -0.012   1.254   1.621 -0.4789  1.3975 -0.2819
 4406TIP3   OH234708   5.514   6.362   2.479  0.3832  0.7891 -0.0123
 4406TIP3    H134709   5.421   6.350   2.457  0.0854  0.8424  1.2184
 4406TIP3    H234710   5.555   6.278   2.457  0.0458  0.7578 -0.5367
 4407TIP3   OH234711   4.661   1.837  15.688  0.7154 -0.4831 -0.1171
 4407TIP3    H134712   4.724   1.853  15.758 -0.3272  1.4401  0.4187
 4407TIP3    H234713   4.653   1.742  15.684  1.7840 -0.6540  1.4656
 4408TIP3   OH234714   1.655   3.049  13.787  0.0824 -0.0673  0.0417
 4408TIP3    H134715   1.721   3.037  13.719 -2.3171 -1.1615 -2.1726
 4408TIP3    H234716   1.687   2.997  13.861  3.0803  1.7209  0.0576
 4409TIP3   OH234717   2.736   4.968   4.297 -0.4618  0.1311  0.2883
 4409TIP3    H134718   2.819   5.004   4.328 -0.7115  0.4936  0.5328
 4409TIP3    H234719   2.694   5.039   4.249  0.1434 -0.5779 -1.3222
 4410TIP3   OH234720   0.600   4.830   3.679 -0.2182  0.6990  0.1707
 4410TIP3    H134721   0.529   4.893   3.684 -0.9503 -0.2504  2.1501
 4410TIP3    H234722   0.678   4.882   3.657 -1.5714  1.6615 -2.5962
 4411TIP3   OH234723   5.937   5.415   2.876 -0.3311  0.0834 -0.5481
 4411TIP3    H134724   5.872   5.419   2.947 -0.9494  3.2130 -1.2259
 4411TIP3    H234725   5.911   5.338   2.825 -0.9296 -1.1869  1.6244
 4412TIP3   OH234726   4.146   5.086   5.814 -0.5124  0.5949  0.1071
 4412TIP3    H134727   4.238   5.107   5.831 -0.3659  1.8123 -1.9894
 4412TIP3    H234728   4.148   5.004   5.766 -0.6416 -0.2759  1.5588
 4413TIP3   OH234729   1.423   3.759  12.299 -0.6346  0.1178 -0.2730
 4413TIP3    H134730   1.479   3.683  12.288  0.4823  0.7480  0.8137
 4413TIP3    H234731   1.484   3.830  12.320 -1.9360  0.4392  2.7766
 4414TIP3   OH234732   2.572   3.801  14.564  0.3761 -0.3588 -0.8877
 4414TIP3    H134733   2.657   3.768  14.592 -0.3411 -0.4514  1.2413
 4414TIP3    H234734   2.592   3.875  14.507  1.9664 -3.3030 -4.3706
 4415TIP3   OH234735   5.265   5.451  14.018 -0.3674 -0.6250  0.3438
 4415TIP3    H134736   5.223   5.403  13.946 -1.6199 -1.0412  1.3271
 4415TIP3    H234737   5.287   5.536  13.980  1.2100 -1.6869 -1.2131
 4416TIP3   OH234738   1.906   0.659   5.170 -0.6903 -0.3531  0.4115
 4416TIP3    H134739   1.990   0.644   5.127 -1.4022  0.3254 -1.2537
 4416TIP3    H234740   1.889   0.752   5.158 -1.9168 -0.5828  0.2957
 4417TIP3   OH234741   1.085   4.033   5.926  0.5208 -0.0482  0.8848
 4417TIP3    H134742   1.158   3.973   5.936 -1.5991 -2.4489  2.8282
 4417TIP3    H234743   1.085   4.085   6.007  1.5210  1.6539 -0.1864
 4418TIP3   OH234744   4.385   1.728  10.395 -0.8081  0.4213  0.7870
 4418TIP3    H134745   4.401   1.688  10.481  1.2928  2.0018  1.1735
 4418TIP3    H234746   4.381   1.822  10.413 -0.4926  0.7522 -0.8295
 4419TIP3   OH234747   1.446   2.293  16.515 -0.3049  0.2781 -0.3562
 4419TIP3    H134748   1.474   2.320  16.603  1.6194 -1.8765 -0.2589
 4419TIP3    H234749   1.394   2.214  16.529  0.7026 -0.5461 -1.2024
 4420TIP3   OH234750   6.047   6.145  11.784  0.2671 -0.5373 -0.0307
 4420TIP3    H134751   6.117   6.151  11.720 -0.8956 -0.4846 -1.3248
 4420TIP3    H234752   5.977   6.200  11.750 -1.0920 -1.9826  0.3075
 4421TIP3   OH234753   0.515   2.183   6.242 -0.1977  0.1405  0.0056
 4421TIP3    H134754   0.496   2.274   6.266  1.7994  0.7783 -0.8076
 4421TIP3    H234755   0.567   2.150   6.315  0.3836  0.1065 -0.4293
 4422TIP3   OH234756   3.616   1.025   1.877  0.3614  0.2778  0.3903
 4422TIP3    H134757   3.698   0.995   1.916  1.4170 -0.0925 -2.0358
 4422TIP3    H234758   3.565   0.945   1.865 -0.0883  0.4267  1.2288
 4423TIP3   OH234759   4.869   3.057   4.702  0.2751  0.5725 -0.0995
 4423TIP3    H134760   4.782   3.086   4.673  0.2765  0.7586  0.0820
 4423TIP3    H234761   4.864   3.060   4.798 -0.0771 -1.0466 -0.0527
 4424TIP3   OH234762   5.816   5.834   3.950  0.1160  0.5212  0.0352
 4424TIP3    H134763   5.856   5.815   4.035 -2.3081 -0.2407  1.0209
 4424TIP3    H234764   5.803   5.929   3.951  1.1499  0.6716  0.0195
 4425TIP3   OH234765   1.594   1.403  17.156 -0.2548 -0.0935  0.5179
 4425TIP3    H134766   1.552   1.343  17.217 -1.6194  1.3267  1.0324
 4425TIP3    H234767   1.527   1.422  17.091  2.0352 -3.7813 -3.1324
 4426TIP3   OH234768   2.315   4.374   1.042 -0.3416 -0.4586 -0.4906
 4426TIP3    H134769   2.258   4.298   1.029  0.0730 -0.9273  0.4256
 4426TIP3    H234770   2.324   4.411   0.954 -2.6890  0.0993 -0.5361
 4427TIP3   OH234771   4.570   1.078  15.854 -0.4307  0.3467 -0.3600
 4427TIP3    H134772   4.601   1.005  15.908 -0.0075  2.3666  2.2451
 4427TIP3    H234773   4.641   1.093  15.792  0.5168  0.0220  0.6221
 4428TIP3   OH234774   5.319   2.053  10.761 -0.4336  0.1699 -0.5645
 4428TIP3    H134775   5.394   2.029  10.816 -0.6304  2.4413  0.7888
 4428TIP3    H234776   5.348   2.036  10.671  1.4493  0.3583 -0.0104
 4429TIP3   OH234777   4.449   6.109  13.428  0.1050  0.6293 -0.0805
 4429TIP3    H134778   4.430   6.021  13.459  0.4231  0.3629 -0.6511
 4429TIP3    H234779   4.384   6.164  13.473 -2.1333 -0.2865 -2.0809
 4430TIP3   OH234780   0.377   4.690  12.707 -0.0541 -0.3347 -0.4086
 4430TIP3    H134781   0.472   4.684  12.717  0.2963  1.8999 -1.9566
 4430TIP3    H234782   0.361   4.666  12.615 -0.8203  0.7718 -0.5698
 4431TIP3   OH234783   5.380   5.983  14.369 -0.2908 -0.6178 -1.0897
 4431TIP3    H134784   5.372   6.068  14.412 -0.9406 -1.7099  1.0540
 4431TIP3    H234785   5.459   5.944  14.408 -0.7659 -1.5404 -1.0365
 4432TIP3   OH234786   3.410   5.551  13.153  0.2534  0.0762  0.1757
 4432TIP3    H134787   3.350   5.527  13.224  1.8536  0.1492  1.5955
 4432TIP3    H234788   3.387   5.492  13.081  0.9119 -2.4766  1.9793
 4433TIP3   OH234789   5.919   4.157   1.363  0.2808  0.4364  0.1788
 4433TIP3    H134790   5.897   4.137   1.455 -0.7973  1.4472  0.1478
 4433TIP3    H234791   5.873   4.239   1.345  2.4957  1.5388 -0.5275
 4434TIP3   OH234792   6.700   5.081   3.857  0.6210 -0.4503  0.1131
 4434TIP3    H134793   6.758   5.147   3.896 -0.3493  0.2258  0.4275
 4434TIP3    H234794   6.700   5.009   3.920  1.6633 -0.7524 -0.2174
 4435TIP3   OH234795   3.826   4.059  15.876  0.0507 -0.4232  0.5819
 4435TIP3    H134796   3.841   4.026  15.788  1.2742  1.4447  0.0705
 4435TIP3    H234797   3.906   4.106  15.899 -1.0211  0.8253  1.8921
 4436TIP3   OH234798   0.549   5.164   4.675  0.6542  0.3581 -0.1717
 4436TIP3    H134799   0.591   5.109   4.741 -0.7677 -0.9849 -0.3622
 4436TIP3    H234800   0.541   5.250   4.716  2.0864  0.2118  0.4557
 4437TIP3   OH234801   2.869   2.103  14.759  0.1419 -0.1822 -0.0340
 4437TIP3    H134802   2.956   2.063  14.760  0.3681  0.2661 -0.9519
 4437TIP3    H234803   2.834   2.081  14.673 -0.3886  0.2093  0.0781
 4438TIP3   OH234804   3.981   4.905   6.040 -0.9691 -0.6481 -0.1361
 4438TIP3    H134805   3.962   4.894   6.133  1.6001 -3.4562  0.1445
 4438TIP3    H234806   4.049   4.972   6.038  1.6687 -3.2216  0.3977
 4439TIP3   OH234807   0.522   4.270   5.110 -0.0631 -0.9512  0.0228
 4439TIP3    H134808   0.485   4.296   5.025 -1.0432  0.1919  0.7811
 4439TIP3    H234809   0.483   4.184   5.127 -0.8974 -0.5988 -0.0778
 4440TIP3   OH234810   2.283   2.031  15.592 -0.0175  0.2141 -0.0156
 4440TIP3    H134811   2.196   2.062  15.568  0.2033  1.0566  0.2701
 4440TIP3    H234812   2.317   2.098  15.651  0.7005 -0.2680  0.1201
 4441TIP3   OH234813   1.969   6.642  14.678 -0.2414  0.0997 -0.1957
 4441TIP3    H134814   2.054   6.599  14.686 -0.1519 -0.0329 -1.6161
 4441TIP3    H234815   1.987   6.734  14.696  0.4545  0.2747 -1.7199
 4442TIP3   OH234816   5.206   6.039  14.833  0.1835 -1.0999 -0.1190
 4442TIP3    H134817   5.186   5.946  14.823  1.5672 -1.4716  0.5597
 4442TIP3    H234818   5.300   6.046  14.818  0.1849  0.1195  0.3665
 4443TIP3   OH234819   3.394   0.420  13.652  0.1283  0.1905  0.4947
 4443TIP3    H134820   3.440   0.493  13.694 -0.2215  1.3095 -1.0476
 4443TIP3    H234821   3.335   0.388  13.720  0.9191  0.7569  1.4814
 4444TIP3   OH234822   4.961   5.064   3.039 -0.4184  0.1904 -0.3606
 4444TIP3    H134823   5.004   5.031   3.118 -0.9904 -0.7014 -0.4110
 4444TIP3    H234824   4.964   4.991   2.978 -2.5005 -0.1062 -0.1652
 4445TIP3   OH234825   0.092   6.421  12.363 -0.3636 -0.1229  0.6049
 4445TIP3    H134826   0.174   6.442  12.320  0.1477 -1.0531  1.1173
 4445TIP3    H234827   0.026   6.431  12.294 -0.1950  3.3095  0.8744
 4446TIP3   OH234828   4.934   4.985  16.978 -0.6448  0.2914  0.1261
 4446TIP3    H134829   4.868   5.040  17.020 -0.0472  0.4971  0.7903
 4446TIP3    H234830   4.998   4.966  17.047 -0.6739 -0.9572 -0.1756
 4447TIP3   OH234831   2.561   6.698   5.131  0.0045  0.0409 -0.3701
 4447TIP3    H134832   2.619   6.756   5.179  0.1986 -1.3969  1.1706
 4447TIP3    H234833   2.620   6.646   5.075  0.1190 -0.7210  0.4503
 4448TIP3   OH234834   1.947   4.127   2.478  0.4631 -0.3152  0.4931
 4448TIP3    H134835   1.901   4.043   2.480 -0.0307 -0.0626 -0.2702
 4448TIP3    H234836   1.882   4.190   2.448  1.6486 -0.1881 -1.9361
 4449TIP3   OH234837   0.266   2.504   0.101  0.1350  0.0360 -0.3664
 4449TIP3    H134838   0.225   2.440   0.158 -0.2104 -0.1972 -0.8844
 4449TIP3    H234839   0.301   2.570   0.161 -5.0927  2.7768 -0.0303
 4450TIP3   OH234840   0.774   1.983   1.079 -0.5243  0.2394 -0.1784
 4450TIP3    H134841   0.854   2.035   1.071 -0.0211 -0.4960  0.0594
 4450TIP3    H234842   0.799   1.895   1.051 -1.3554  0.1038 -0.5074
 4451TIP3   OH234843   0.410   2.946  16.775  0.2548  0.1908  0.4877
 4451TIP3    H134844   0.360   2.961  16.856  0.7141  3.6677  0.2263
 4451TIP3    H234845   0.379   3.014  16.715  2.7510  0.1712 -0.8911
 4452TIP3   OH234846   0.845   1.096  11.769 -0.0028 -0.6619  0.1966
 4452TIP3    H134847   0.861   1.035  11.697  2.1672  1.3697 -1.1194
 4452TIP3    H234848   0.881   1.179  11.738 -1.8694  1.0179  2.3929
 4453TIP3   OH234849   1.289   3.853  10.625  0.4267 -0.0693 -0.0022
 4453TIP3    H134850   1.260   3.768  10.593  1.8653 -0.0682 -1.3853
 4453TIP3    H234851   1.299   3.841  10.719 -0.3317 -1.1428 -0.0564
 4454TIP3   OH234852   3.543   6.527   1.443  0.1567  0.2391 -0.3682
 4454TIP3    H134853   3.592   6.602   1.478  0.2290 -0.6981  1.5587
 4454TIP3    H234854   3.451   6.556   1.444  0.3860  1.1149 -1.7742
 4455TIP3   OH234855   1.760   6.150   4.680  0.8545  0.3456  0.4200
 4455TIP3    H134856   1.855   6.138   4.681  0.7954 -0.1249  0.1801
 4455TIP3    H234857   1.728   6.084   4.619  0.3422  0.2695  0.7670
 4456TIP3   OH234858   2.456   0.302   2.503 -0.0657 -0.4082  0.1783
 4456TIP3    H134859   2.393   0.236   2.475  2.4037 -2.9740  0.4822
 4456TIP3    H234860   2.505   0.261   2.574  1.5223  1.7581  0.4033
 4457TIP3   OH234861   2.019   1.243  11.877  0.3505  0.2415 -0.0450
 4457TIP3    H134862   2.076   1.218  11.805  0.2002  0.6674 -0.3113
 4457TIP3    H234863   2.007   1.163  11.927  0.9597  0.0906 -0.1449
 4458TIP3   OH234864   2.630   4.944   0.126  0.2272 -0.5662 -0.6156
 4458TIP3    H134865   2.589   4.995   0.196 -0.0365  0.4462 -1.5040
 4458TIP3    H234866   2.724   4.960   0.137  0.1109  0.5046 -1.2012
 4459TIP3   OH234867   0.390   1.200  12.949  0.5305  0.0615 -0.2723
 4459TIP3    H134868   0.462   1.139  12.937  2.4166  2.2153 -0.1507
 4459TIP3    H234869   0.429   1.275  12.992 -2.2310  0.4172  1.7507
 4460TIP3   OH234870   6.419   2.008  16.929 -0.4358  0.4726  0.0647
 4460TIP3    H134871   6.515   1.999  16.934 -0.5204 -2.7070 -2.5216
 4460TIP3    H234872   6.387   1.965  17.008  0.2375  0.8770  0.5631
 4461TIP3   OH234873   3.266   0.083  15.500 -0.5189  0.6667  0.0828
 4461TIP3    H134874   3.196   0.149  15.494 -1.0572  0.1273  0.3003
 4461TIP3    H234875   3.221   0.004  15.530  0.0662  0.1083 -0.5015
 4462TIP3   OH234876   2.078   2.908  15.215 -0.3238  0.4352  0.0488
 4462TIP3    H134877   2.173   2.906  15.211 -0.3111 -0.0213  0.4616
 4462TIP3    H234878   2.054   2.821  15.249 -0.9749 -0.1734 -1.9171
 4463TIP3   OH234879   1.612   2.346  13.209 -0.0163  0.2006  0.2929
 4463TIP3    H134880   1.697   2.309  13.228 -0.2029 -0.1349  0.4721
 4463TIP3    H234881   1.583   2.301  13.130  0.8885  1.7980 -0.9830
 4464TIP3   OH234882   1.831   5.604  14.185  0.0020 -0.0056 -0.0932
 4464TIP3    H134883   1.743   5.635  14.207  1.2909  1.6288  3.1912
 4464TIP3    H234884   1.829   5.511  14.205 -0.7648  0.1921  0.8077
 4465TIP3   OH234885   3.965   1.365   2.771  0.1939 -0.0221  0.7310
 4465TIP3    H134886   3.922   1.416   2.702 -1.8996  0.0212  2.0130
 4465TIP3    H234887   3.962   1.274   2.739 -2.5874 -0.2891  1.5785
 4466TIP3   OH234888   6.302   5.099   1.387 -0.6143  0.1807  0.2673
 4466TIP3    H134889   6.359   5.161   1.434  1.6774 -2.3826  0.9616
 4466TIP3    H234890   6.337   5.097   1.298 -1.7382  1.0873 -0.2177
 4467TIP3   OH234891   1.800   1.800   0.243  0.3645 -0.0584 -0.1955
 4467TIP3    H134892   1.728   1.859   0.222  0.9116  0.9539  0.7000
 4467TIP3    H234893   1.759   1.716   0.259 -0.6144  0.5056  0.2550
 4468TIP3   OH234894   0.706   2.805  13.239 -0.2523 -0.4363 -0.3407
 4468TIP3    H134895   0.736   2.739  13.176  2.4989  0.6229 -0.2019
 4468TIP3    H234896   0.756   2.883  13.216 -2.3562  1.1842  0.4730
 4469TIP3   OH234897   3.699   5.336  13.836 -0.0096  0.4895 -0.2651
 4469TIP3    H134898   3.644   5.382  13.773  0.2780  3.1449  1.3546
 4469TIP3    H234899   3.729   5.404  13.897  1.6374 -1.5963  1.3579
 4470TIP3   OH234900   4.547   4.705  16.396  0.2693 -0.4823  0.1625
 4470TIP3    H134901   4.467   4.653  16.409 -0.7323  0.5151 -1.7786
 4470TIP3    H234902   4.610   4.643  16.358  0.2179 -1.1223  1.1098
 4471TIP3   OH234903   2.643   3.035  10.284  0.2101 -0.3789  0.0651
 4471TIP3    H134904   2.656   3.116  10.235  0.6940 -0.3380  0.2606
 4471TIP3    H234905   2.723   2.984  10.268 -0.3871 -1.1078 -0.6174
 4472TIP3   OH234906   0.417   4.221  14.233  0.1863 -0.3212 -0.2316
 4472TIP3    H134907   0.474   4.148  14.256 -0.1510 -1.3443 -2.4774
 4472TIP3    H234908   0.405   4.213  14.138 -1.1862  1.6890 -0.2631
 4473TIP3   OH234909   2.288   2.985   0.745 -0.1342  0.2799  0.1025
 4473TIP3    H134910   2.318   2.980   0.836  0.5117 -1.3136 -0.1680
 4473TIP3    H234911   2.366   2.967   0.693 -0.6623  0.3827 -0.7390
 4474TIP3   OH234912   1.545   1.311   3.746 -0.0913  0.1033 -0.2190
 4474TIP3    H134913   1.562   1.284   3.656 -0.8276  1.9262 -0.9447
 4474TIP3    H234914   1.625   1.291   3.793  1.0695  1.0518 -1.7569
 4475TIP3   OH234915   1.797   0.255  10.458 -0.8116 -0.0518  0.0860
 4475TIP3    H134916   1.828   0.331  10.508 -1.7287  0.7870 -0.6042
 4475TIP3    H234917   1.812   0.180  10.516 -1.0621  0.8109  1.2724
 4476TIP3   OH234918   4.487   3.790  16.612 -0.3539  0.3043 -0.3224
 4476TIP3    H134919   4.536   3.854  16.560 -0.3792 -0.5084 -1.3591
 4476TIP3    H234920   4.479   3.714  16.556 -1.3158 -0.2110  0.4833
 4477TIP3   OH234921   3.610   1.157   5.080 -0.5384 -0.2392  0.5025
 4477TIP3    H134922   3.616   1.234   5.137 -0.9606 -0.7579  1.2547
 4477TIP3    H234923   3.700   1.142   5.051 -0.1990 -0.4075  1.6200
 4478TIP3   OH234924   4.819   1.078  15.216  0.9407 -0.1450  0.0462
 4478TIP3    H134925   4.824   1.015  15.288  2.0355 -0.7747 -0.5688
 4478TIP3    H234926   4.847   1.161  15.255 -1.3118  0.1667  1.0659
 4479TIP3   OH234927   3.715   1.173  10.656 -0.5671  0.1174 -0.8855
 4479TIP3    H134928   3.748   1.199  10.570  2.4209  1.1292  0.5207
 4479TIP3    H234929   3.694   1.256  10.700 -2.7638 -0.4156 -0.8537
 4480TIP3   OH234930   3.839   1.590   4.612  0.1558  0.2348  0.0768
 4480TIP3    H134931   3.852   1.574   4.519 -1.8433 -1.3477  0.0369
 4480TIP3    H234932   3.915   1.549   4.654 -1.0320 -2.7836 -0.6072
 4481TIP3   OH234933   4.382   6.474   4.566 -0.2126 -0.2573 -0.5916
 4481TIP3    H134934   4.353   6.555   4.525 -1.2695 -0.6697 -0.6639
 4481TIP3    H234935   4.306   6.444   4.616  0.3380 -0.9432 -0.1548
 4482TIP3   OH234936   2.704   3.561   0.611  0.4973 -0.7755 -0.3942
 4482TIP3    H134937   2.648   3.624   0.657  4.9049  2.9405  0.2240
 4482TIP3    H234938   2.752   3.517   0.681  1.4533 -0.8375 -1.0883
 4483TIP3   OH234939   4.740   4.950  14.970 -0.9174 -0.6387 -1.0360
 4483TIP3    H134940   4.661   5.001  14.955 -0.8153 -0.0770  0.2995
 4483TIP3    H234941   4.720   4.864  14.935 -1.6209 -0.1038 -1.9656
 4484TIP3   OH234942   3.182   2.277   6.371  0.1307 -0.2828 -0.5019
 4484TIP3    H134943   3.139   2.349   6.418  0.0255 -1.2202  0.8634
 4484TIP3    H234944   3.251   2.319   6.320  1.7011  0.5407  2.1902
 4485TIP3   OH234945   4.949   2.147   4.829 -0.4578 -0.0109 -0.3180
 4485TIP3    H134946   5.007   2.222   4.833  0.2281 -0.5428 -0.2276
 4485TIP3    H234947   4.889   2.159   4.903 -0.5423  0.5917 -0.4796
 4486TIP3   OH234948   6.422   4.654   3.829 -0.0738 -0.6184 -0.5866
 4486TIP3    H134949   6.372   4.573   3.814 -3.2380  1.0375  0.5536
 4486TIP3    H234950   6.460   4.643   3.916 -1.2332 -0.5134 -0.0657
 4487TIP3   OH234951   6.767   6.408  11.488 -0.3181 -0.2925 -0.3864
 4487TIP3    H134952   6.826   6.348  11.442 -1.3450 -0.7489 -1.1505
 4487TIP3    H234953   6.692   6.418  11.429 -1.9668 -1.3848  1.4373
 4488TIP3   OH234954   3.396   1.026  11.781 -0.0260 -0.5363  0.1896
 4488TIP3    H134955   3.349   1.040  11.864  0.9026  2.4906  0.2694
 4488TIP3    H234956   3.487   1.011  11.808 -0.2198 -2.5386 -0.1752
 4489TIP3   OH234957   3.711   3.969  12.882  0.1808  0.0581  0.5612
 4489TIP3    H134958   3.701   3.884  12.841  0.5297  0.2249  0.1245
 4489TIP3    H234959   3.644   4.024  12.841  0.5928  0.2511  0.1430
 4490TIP3   OH234960   5.680   4.126  12.885 -0.1279 -0.0783 -0.5001
 4490TIP3    H134961   5.592   4.162  12.880 -0.7229 -1.4561 -0.2339
 4490TIP3    H234962   5.728   4.186  12.943 -2.0307 -1.5483  2.7193
 4491TIP3   OH234963   4.489   0.523  10.553  0.2325 -0.6008 -0.1615
 4491TIP3    H134964   4.524   0.601  10.508 -0.6851 -2.0783 -3.5808
 4491TIP3    H234965   4.401   0.550  10.582  0.3291 -0.0389 -0.3722
 4492TIP3   OH234966   3.963   2.094  13.990 -0.2298 -0.7335  0.5126
 4492TIP3    H134967   3.920   2.087  14.076  0.5134 -0.2470  0.9239
 4492TIP3    H234968   4.001   2.181  13.989 -0.4293 -0.6557 -0.4130
 4493TIP3   OH234969   4.343   4.362  16.006  0.1813 -0.1612  0.3240
 4493TIP3    H134970   4.302   4.358  15.920  0.6471 -0.0065  0.0875
 4493TIP3    H234971   4.399   4.441  16.002 -0.2718  0.1963  0.9772
 4494TIP3   OH234972   5.093   1.119   6.714  0.3408 -0.1100 -1.0619
 4494TIP3    H134973   5.027   1.173   6.756  0.0943  0.1517 -1.7831
 4494TIP3    H234974   5.059   1.030   6.720  0.0911 -0.0178 -1.1170
 4495TIP3   OH234975   6.378   1.772   4.617 -0.2849  0.0029 -0.2316
 4495TIP3    H134976   6.448   1.829   4.586  0.8164 -1.2009  0.0192
 4495TIP3    H234977   6.405   1.745   4.705 -1.2687 -0.1427  0.0413
 4496TIP3   OH234978   2.605   2.310   3.046  0.1080  0.0120 -0.0455
 4496TIP3    H134979   2.629   2.223   3.015 -0.6614 -0.4630  0.6856
 4496TIP3    H234980   2.520   2.328   3.006  0.9880  1.0920 -1.4687
 4497TIP3   OH234981   1.548   2.924   4.001 -0.4981 -0.2978  0.5579
 4497TIP3    H134982   1.476   2.861   3.992 -0.1257 -0.6521  0.0865
 4497TIP3    H234983   1.553   2.940   4.096 -0.1471 -1.4988  0.7503
 4498TIP3   OH234984   1.063   0.958  10.530 -0.1238  0.0748 -0.2246
 4498TIP3    H134985   1.120   0.921  10.598  1.8548 -0.4295 -2.0913
 4498TIP3    H234986   1.021   0.882  10.489 -1.7188  0.4109  0.7721
 4499TIP3   OH234987   6.764   0.785   5.346 -0.3534  0.0665  0.7649
 4499TIP3    H134988   6.817   0.792   5.426  0.8603  0.9625 -0.0930
 4499TIP3    H234989   6.809   0.841   5.283 -1.4136 -0.4775 -0.4950
 4500TIP3   OH234990   2.851   0.396  14.577  0.0685  0.1796  0.2272
 4500TIP3    H134991   2.821   0.486  14.577  0.2547  0.2403  0.4681
 4500TIP3    H234992   2.822   0.361  14.492  0.4686  0.6191 -0.0853
 4501TIP3   OH234993   5.302   1.334   5.912 -0.3701  0.0633 -0.2976
 4501TIP3    H134994   5.388   1.372   5.928 -0.6990  1.0526 -0.7650
 4501TIP3    H234995   5.241   1.404   5.935 -1.1513 -1.4406  2.3112
 4502TIP3   OH234996   0.094   6.297  16.406  0.1583  0.2811 -0.0522
 4502TIP3    H134997   0.189   6.304  16.401  0.0758  2.1688  0.5021
 4502TIP3    H234998   0.066   6.275  16.317  1.0152  1.3107 -0.5886
 4503TIP3   OH234999   4.652   4.520   0.835 -0.0652 -0.2167  0.2796
 4503TIP3    H135000   4.557   4.513   0.838 -0.0421 -0.7715 -0.1830
 4503TIP3    H235001   4.684   4.430   0.838  0.4939  0.0231  1.6687
 4504TIP3   OH235002   6.167   5.341  15.859 -0.4805  0.0065 -0.2114
 4504TIP3    H135003   6.250   5.328  15.813 -0.3237  2.1468 -0.6004
 4504TIP3    H235004   6.104   5.358  15.789 -0.9427 -0.1369  0.1720
 4505TIP3   OH235005   5.883   1.011  12.719  0.2451 -0.5135  0.6993
 4505TIP3    H135006   5.946   0.939  12.728 -0.4560 -1.0978  0.9253
 4505TIP3    H235007   5.800   0.969  12.698 -0.2853  0.2012  1.3340
 4506TIP3   OH235008   2.258   2.786  10.906  0.1780 -0.0669  0.6212
 4506TIP3    H135009   2.175   2.794  10.953 -1.1879  0.2065 -1.7474
 4506TIP3    H235010   2.289   2.876  10.895  0.6357 -0.1472  1.2126
 4507TIP3   OH235011   6.642   0.571  15.695 -0.1089  0.0935  0.4007
 4507TIP3    H135012   6.590   0.576  15.775  1.0318  1.1113  1.1051
 4507TIP3    H235013   6.724   0.529  15.723 -0.0808 -0.4160 -0.4328
 4508TIP3   OH235014   4.761   0.412   2.562  0.1984  0.0072 -0.5584
 4508TIP3    H135015   4.669   0.389   2.550  0.0230  0.5465 -0.2761
 4508TIP3    H235016   4.790   0.441   2.476 -0.3794  1.5177 -0.2611
 4509TIP3   OH235017   3.026   5.956   2.842  0.0585 -0.4247  0.4055
 4509TIP3    H135018   2.996   6.044   2.861  0.3932 -0.2936  0.3378
 4509TIP3    H235019   3.013   5.945   2.748 -2.1539 -1.2887  0.7765
 4510TIP3   OH235020   4.013   4.635   1.075 -0.1333 -0.7703  0.5088
 4510TIP3    H135021   4.014   4.703   1.008 -2.1175 -0.8190  0.4018
 4510TIP3    H235022   4.087   4.656   1.132 -1.0844  1.8656  0.8369
 4511TIP3   OH235023   1.665   2.615   4.899  0.1770 -0.5285  1.0018
 4511TIP3    H135024   1.663   2.583   4.989 -2.5222  0.7100  1.4220
 4511TIP3    H235025   1.727   2.556   4.854  1.7403 -1.0104  3.6671
 4512TIP3   OH235026   4.285   3.048   6.176 -0.5487  0.2997  0.7660
 4512TIP3    H135027   4.344   3.013   6.242 -0.7104 -0.0855  0.7127
 4512TIP3    H235028   4.318   3.136   6.156 -0.7590  0.5845  1.6756
 4513TIP3   OH235029   2.474   1.229  11.845  0.2729  0.4174 -0.3885
 4513TIP3    H135030   2.427   1.208  11.926  0.3813 -0.5417 -0.5749
 4513TIP3    H235031   2.529   1.304  11.868  1.8308 -1.1151  0.9880
 4514TIP3   OH235032   5.147   1.937   2.514 -0.0206 -0.5066 -0.1282
 4514TIP3    H135033   5.093   1.872   2.560 -0.8710 -0.1345 -0.5826
 4514TIP3    H235034   5.225   1.889   2.487 -0.8156 -1.4326 -0.7959
 4515TIP3   OH235035   3.400   6.273  13.096 -0.0753  0.9366 -0.2003
 4515TIP3    H135036   3.475   6.214  13.094  0.8375  2.0529  0.2523
 4515TIP3    H235037   3.345   6.241  13.168 -0.0268  0.1264 -0.5274
 4516TIP3   OH235038   4.481   0.557  14.963  0.5162  0.1552 -0.1906
 4516TIP3    H135039   4.547   0.620  14.990  0.5379 -0.3674  1.0271
 4516TIP3    H235040   4.412   0.609  14.923 -0.5306  1.2192  2.8711
 4517TIP3   OH235041   0.910   5.139  14.940 -0.4806  0.8539 -0.3674
 4517TIP3    H135042   0.897   5.044  14.943  2.3231  0.4015 -1.1466
 4517TIP3    H235043   0.901   5.162  14.848 -1.5444  1.4353 -0.1321
 4518TIP3   OH235044   1.707   2.331   5.353  0.4804 -0.1113 -0.0213
 4518TIP3    H135045   1.727   2.280   5.431  0.1407 -0.4450 -0.1520
 4518TIP3    H235046   1.750   2.284   5.282 -0.1111 -0.4006 -0.1902
 4519TIP3   OH235047   3.177   4.195  13.236 -0.2677 -0.3430  0.0871
 4519TIP3    H135048   3.130   4.185  13.319 -0.9970  1.0019 -0.1439
 4519TIP3    H235049   3.133   4.136  13.176 -0.9681  0.0858  0.1680
 4520TIP3   OH235050   2.636   4.726  13.732  0.1610 -0.1484  0.0461
 4520TIP3    H135051   2.634   4.723  13.637  2.0132  0.3012 -0.0189
 4520TIP3    H235052   2.729   4.717  13.755 -0.3733 -1.4075  1.8399
 4521TIP3   OH235053   1.079   6.065  13.103  0.0223 -0.0391 -0.0531
 4521TIP3    H135054   1.105   6.106  13.020  0.5942  0.4205  0.3485
 4521TIP3    H235055   1.135   6.106  13.169 -1.1099  0.3320  0.7073
 4522TIP3   OH235056   2.443   0.955   0.797 -0.1161 -0.8876 -0.1017
 4522TIP3    H135057   2.441   0.868   0.837 -0.2634 -0.5697  0.5900
 4522TIP3    H235058   2.411   0.941   0.708 -0.3641 -1.5017  0.0812
 4523TIP3   OH235059   0.404   2.206  15.224 -1.2480 -0.0961  0.5233
 4523TIP3    H135060   0.402   2.289  15.270 -1.2913  1.7949 -2.7328
 4523TIP3    H235061   0.322   2.163  15.247 -2.0726  1.6102  0.7755
 4524TIP3   OH235062   2.583   1.248  15.537  0.0226  0.0069 -0.2336
 4524TIP3    H135063   2.534   1.217  15.461  0.6096 -1.3318 -0.0847
 4524TIP3    H235064   2.630   1.324  15.506 -0.5736  0.1005 -0.9201
 4525TIP3   OH235065   3.394   2.720   1.045  0.3278 -0.1857 -0.1007
 4525TIP3    H135066   3.395   2.689   0.955  1.6902 -0.2709 -0.0773
 4525TIP3    H235067   3.343   2.654   1.093 -0.3469 -0.1645 -0.7876
 4526TIP3   OH235068   5.820   0.719   3.081  0.8266 -0.1655 -0.1566
 4526TIP3    H135069   5.840   0.797   3.134  0.6944  0.1475 -0.5659
 4526TIP3    H235070   5.724   0.714   3.081  0.7884  0.3701 -1.1321
 4527TIP3   OH235071   3.175   2.449   2.128  1.0775 -0.7385  0.2370
 4527TIP3    H135072   3.247   2.507   2.152  0.6627 -0.7361  1.5231
 4527TIP3    H235073   3.144   2.413   2.211  1.0815 -2.5238 -0.5026
 4528TIP3   OH235074   6.182   1.252  15.783 -0.1268  0.2800  0.0384
 4528TIP3    H135075   6.258   1.275  15.731  1.7937 -1.0409  2.1740
 4528TIP3    H235076   6.139   1.335  15.801  1.0568  1.0874 -0.8087
 4529TIP3   OH235077   3.543   3.214  14.978  0.0395 -0.3505  0.3218
 4529TIP3    H135078   3.477   3.196  15.046  0.3675 -4.0155 -0.2489
 4529TIP3    H235079   3.504   3.286  14.927 -3.3720 -2.1002  0.2713
 4530TIP3   OH235080   3.789   0.525   4.597  0.0542  0.6448  0.4353
 4530TIP3    H135081   3.743   0.481   4.669  0.1664 -0.2917 -0.0666
 4530TIP3    H235082   3.721   0.545   4.533  0.3608 -0.8750 -0.3748
 4531TIP3   OH235083   0.687   4.422   0.817 -0.4729 -0.4127  0.2216
 4531TIP3    H135084   0.770   4.450   0.779 -0.0444  0.1614  1.5648
 4531TIP3    H235085   0.624   4.431   0.746  0.1178  1.6643 -0.0648
 4532TIP3   OH235086   4.041   1.071  12.260  0.0606  0.1258 -0.0435
 4532TIP3    H135087   3.961   1.028  12.288  0.3487 -0.4721 -0.1324
 4532TIP3    H235088   4.039   1.156  12.304  0.2517 -0.5845  1.3611
 4533TIP3   OH235089   5.783   4.628   6.125  0.2225  0.0262  1.0546
 4533TIP3    H135090   5.813   4.541   6.150  3.7999  0.8319 -0.1815
 4533TIP3    H235091   5.732   4.614   6.045 -0.2126 -1.0683  1.5219
 4534TIP3   OH235092   4.339   0.640  13.929  0.3875  0.0288  0.2242
 4534TIP3    H135093   4.318   0.705  13.863  2.8307 -0.4830 -1.0879
 4534TIP3    H235094   4.330   0.686  14.012 -0.9256  1.1617 -0.5218
 4535TIP3   OH235095   3.386   2.179  15.787  0.0895 -0.0748  0.0972
 4535TIP3    H135096   3.408   2.092  15.751  0.1359 -0.2025  0.4295
 4535TIP3    H235097   3.470   2.225  15.789 -0.1411  0.4137 -1.2361
 4536TIP3   OH235098   5.271   4.005   5.871  0.1008 -0.7267 -0.2223
 4536TIP3    H135099   5.268   4.034   5.780 -0.3912  0.2867  0.1079
 4536TIP3    H235100   5.195   3.948   5.881  0.1804 -0.8749 -0.4544
 4537TIP3   OH235101   4.710   0.459  13.426 -0.3074  0.0931  0.4748
 4537TIP3    H135102   4.686   0.422  13.511  0.1536  0.7190  0.8861
 4537TIP3    H235103   4.786   0.514  13.445  0.0703 -0.1192 -0.4244
 4538TIP3   OH235104   4.669   4.540   4.522  0.8813  0.0652  0.4194
 4538TIP3    H135105   4.629   4.626   4.534 -0.1917 -0.4001  0.2597
 4538TIP3    H235106   4.763   4.556   4.524  0.6817  1.3892 -0.7583
 4539TIP3   OH235107   0.152   6.418   2.226 -0.7354 -0.4459 -0.2622
 4539TIP3    H135108   0.204   6.464   2.160  1.0513 -1.0491  0.6639
 4539TIP3    H235109   0.071   6.394   2.181 -0.5758  1.2710 -1.5080
 4540TIP3   OH235110   4.067   3.370   0.159  0.3150  0.1506 -0.5091
 4540TIP3    H135111   4.049   3.302   0.094  2.0039 -1.1719  0.3859
 4540TIP3    H235112   3.980   3.404   0.182 -0.4073 -0.3360 -2.3863
 4541TIP3   OH235113   2.067   2.641   5.361  0.6610  0.4928  0.1798
 4541TIP3    H135114   2.069   2.630   5.456 -0.1747 -0.6751  0.0668
 4541TIP3    H235115   2.010   2.717   5.347 -0.5817 -0.3445  0.5526
 4542TIP3   OH235116   0.347   2.970  11.919 -0.3858  0.1890  0.1107
 4542TIP3    H135117   0.258   2.967  11.883 -0.5429  2.5734  0.2118
 4542TIP3    H235118   0.358   3.061  11.948  1.6777 -0.3666  1.1462
 4543TIP3   OH235119   0.133   0.589  16.908 -0.5013 -0.4637  0.0305
 4543TIP3    H135120   0.130   0.638  16.826  1.8810 -0.9061 -0.3550
 4543TIP3    H235121   0.213   0.618  16.951 -0.4831 -1.9982  1.0799
 4544TIP3   OH235122   3.917   6.702   5.858 -0.5589 -0.1068  0.2275
 4544TIP3    H135123   3.828   6.737   5.856  0.2770  2.0927 -2.6548
 4544TIP3    H235124   3.965   6.763   5.914 -0.1565  0.6552 -0.9285
 4545TIP3   OH235125   1.681   3.620   5.353 -0.2017 -0.1726  0.0647
 4545TIP3    H135126   1.615   3.558   5.383 -0.8383  1.6292  2.5059
 4545TIP3    H235127   1.692   3.682   5.426  1.8105  1.4634 -1.5451
 4546TIP3   OH235128   4.195   5.564  10.975  0.1371 -0.5044  0.1558
 4546TIP3    H135129   4.177   5.514  10.896  1.0366  1.5792 -1.4202
 4546TIP3    H235130   4.115   5.557  11.027 -0.9023 -0.9130 -1.4581
 4547TIP3   OH235131   4.082   3.171  11.082  0.0793  1.0725  0.7666
 4547TIP3    H135132   4.013   3.109  11.061  1.5493  0.2335 -1.7325
 4547TIP3    H235133   4.042   3.257  11.068 -0.9898  0.6469  1.1428
 4548TIP3   OH235134   0.585   5.705  16.872 -0.4384 -0.1090 -0.3495
 4548TIP3    H135135   0.506   5.741  16.831 -0.2032  0.9443  0.0940
 4548TIP3    H235136   0.644   5.780  16.878  0.8267 -1.0106 -1.2185
 4549TIP3   OH235137   0.198   6.594   3.260  0.2016  0.1741  1.0381
 4549TIP3    H135138   0.168   6.650   3.188  0.1903  2.6959  2.9096
 4549TIP3    H235139   0.275   6.549   3.225  0.4599  1.6721 -0.4206
 4550TIP3   OH235140   1.527   6.545   3.665 -0.4760 -0.1118 -0.5059
 4550TIP3    H135141   1.566   6.618   3.714 -1.2346  0.4400 -0.7226
 4550TIP3    H235142   1.578   6.542   3.584 -1.4021  1.1388 -1.1499
 4551TIP3   OH235143   2.098   6.011  14.244  0.1192 -0.2584  0.1661
 4551TIP3    H135144   2.121   5.920  14.262  0.3720  0.0349  1.4302
 4551TIP3    H235145   2.079   6.014  14.150  0.4947 -1.5244  0.0467
 4552TIP3   OH235146   4.774   0.770  12.642  0.0343  1.0020  0.3471
 4552TIP3    H135147   4.853   0.737  12.685 -1.3085 -1.1794  1.1838
 4552TIP3    H235148   4.753   0.704  12.576 -1.9748  0.7561  1.1881
 4553TIP3   OH235149   2.814   3.321  14.812  0.3596  0.5009 -0.0613
 4553TIP3    H135150   2.796   3.236  14.772  0.5517  0.4579 -0.0566
 4553TIP3    H235151   2.863   3.369  14.745  2.7683 -0.4329  1.0230
 4554TIP3   OH235152   0.552   0.257  14.342 -0.4993 -0.4166 -0.1407
 4554TIP3    H135153   0.462   0.235  14.366 -0.4720 -0.1399  0.2235
 4554TIP3    H235154   0.544   0.338  14.292 -0.7794 -2.1796 -3.0572
 4555TIP3   OH235155   6.543   4.229   5.983  0.2519  0.5193 -0.0655
 4555TIP3    H135156   6.507   4.140   5.985  1.2861  0.1113  1.6073
 4555TIP3    H235157   6.605   4.231   6.056 -1.2940  3.2654  1.2608
 4556TIP3   OH235158   0.871   2.671   2.277 -0.0294  0.1382 -0.1293
 4556TIP3    H135159   0.835   2.584   2.297  2.6918 -1.6503 -2.5409
 4556TIP3    H235160   0.813   2.705   2.209 -1.8351  0.7985  1.6836
 4557TIP3   OH235161   3.129   2.370   0.081 -0.2547  0.2961  0.4009
 4557TIP3    H135162   3.136   2.360   0.176  0.1158  0.0236  0.3507
 4557TIP3    H235163   3.036   2.380   0.064 -0.2506  1.1042  0.8628
 4558TIP3   OH235164   3.512   2.840  11.797 -0.0439  0.2466 -0.1042
 4558TIP3    H135165   3.532   2.844  11.891  1.5347 -0.5078 -0.4013
 4558TIP3    H235166   3.517   2.930  11.768  2.8714  0.1087 -0.1425
 4559TIP3   OH235167   0.246   3.065   0.270 -0.4938 -0.1755 -0.6634
 4559TIP3    H135168   0.261   2.974   0.247 -0.2343 -0.1625 -0.5417
 4559TIP3    H235169   0.186   3.062   0.344 -1.3899 -0.2167 -1.3788
 4560TIP3   OH235170   5.447   4.728  11.214 -0.0271  0.3378  0.0436
 4560TIP3    H135171   5.475   4.715  11.124  0.5471  0.6533  0.1752
 4560TIP3    H235172   5.520   4.774  11.256 -1.7656  3.5100 -0.2694
 4561TIP3   OH235173   2.401   5.387  12.974  0.1016  0.3444 -0.6727
 4561TIP3    H135174   2.423   5.465  12.923  0.3447 -1.0829 -2.7953
 4561TIP3    H235175   2.429   5.314  12.919  1.7107 -1.2177  2.1371
 4562TIP3   OH235176   2.521   5.538  16.040 -0.1562  0.0907 -0.3292
 4562TIP3    H135177   2.461   5.511  16.110  1.3836 -1.3312  0.4989
 4562TIP3    H235178   2.483   5.501  15.960 -0.7488 -0.2261  0.0954
 4563TIP3   OH235179   1.454   6.066  16.818  0.0800 -0.1720  0.0099
 4563TIP3    H135180   1.477   6.132  16.753 -2.4237  0.0923 -0.6722
 4563TIP3    H235181   1.499   5.986  16.790 -1.5106 -0.2361 -2.4573
 4564TIP3   OH235182   5.407   5.119   1.796 -1.1750 -0.5471 -0.0174
 4564TIP3    H135183   5.470   5.178   1.756  1.5676 -1.2181  3.0869
 4564TIP3    H235184   5.375   5.065   1.723 -0.8212  2.1317 -2.2266
 4565TIP3   OH235185   5.042   4.271  14.477  0.3322  0.5156  0.2617
 4565TIP3    H135186   5.111   4.238  14.535 -0.3509 -0.4067  0.5730
 4565TIP3    H235187   5.080   4.264  14.389  0.2264 -1.0713  0.3298
 4566TIP3   OH235188   3.829   6.059   4.930  0.3862 -0.2755 -0.1140
 4566TIP3    H135189   3.864   5.970   4.934 -1.8416 -1.1926 -0.5437
 4566TIP3    H235190   3.773   6.067   5.007 -0.0459  0.5027 -0.4971
 4567TIP3   OH235191   4.833   5.835  12.986 -0.1287  0.1638 -0.2505
 4567TIP3    H135192   4.824   5.847  12.891 -2.7686  1.4798  0.1186
 4567TIP3    H235193   4.778   5.760  13.006 -0.1256  0.3173  0.3300
 4568TIP3   OH235194   4.163   6.131  10.584 -0.3104  0.4373 -0.1193
 4568TIP3    H135195   4.119   6.125  10.670  1.2608 -1.5111  0.5712
 4568TIP3    H235196   4.184   6.041  10.562 -0.1145  1.0045 -2.2912
 4569TIP3   OH235197   1.246   5.075  12.668 -0.6660 -0.1441 -0.0320
 4569TIP3    H135198   1.298   5.089  12.747  0.8719  1.3993 -1.2827
 4569TIP3    H235199   1.282   4.994  12.631 -0.1766  0.0910 -0.0808
 4570TIP3   OH235200   5.228   1.004  10.942 -0.7641 -0.9476  0.2806
 4570TIP3    H135201   5.287   0.981  11.014 -0.8457  0.9652  0.9786
 4570TIP3    H235202   5.144   0.965  10.966 -0.7048 -0.5938  1.0455
 4571TIP3   OH235203   3.017   1.793  11.363 -0.1525 -0.3837 -0.4161
 4571TIP3    H135204   3.109   1.818  11.369  0.1160 -0.8516 -2.1058
 4571TIP3    H235205   3.012   1.707  11.404  0.4848 -1.0320 -1.6584
 4572TIP3   OH235206   3.022   6.486   0.048 -0.2138 -0.1215  0.1357
 4572TIP3    H135207   3.007   6.579   0.067  0.5489 -0.1945  1.1324
 4572TIP3    H235208   2.951   6.441   0.094 -0.3666 -0.0572 -0.0372
 4573TIP3   OH235209   5.660   1.741   0.707 -0.2943 -0.0568 -0.1384
 4573TIP3    H135210   5.655   1.792   0.787 -1.5895 -0.2047 -0.1037
 4573TIP3    H235211   5.669   1.650   0.737 -1.4941 -0.1861 -0.1302
 4574TIP3   OH235212   1.019   5.188   5.429  0.1527  0.4871  0.2279
 4574TIP3    H135213   0.981   5.191   5.518  3.2898  1.7675  1.5846
 4574TIP3    H235214   0.952   5.143   5.377 -2.6478  1.4783  2.7851
 4575TIP3   OH235215   6.448   5.657  11.916  0.0644 -0.1916  0.4587
 4575TIP3    H135216   6.484   5.737  11.878  0.0731 -0.8438 -0.9150
 4575TIP3    H235217   6.378   5.688  11.975  0.5015  0.8565  0.4385
 4576TIP3   OH235218   5.272   3.590  13.555 -0.0797 -0.2544  0.8923
 4576TIP3    H135219   5.222   3.626  13.629  0.1128 -0.1854  0.9888
 4576TIP3    H235220   5.353   3.559  13.594 -0.3753 -1.0898  0.8603
 4577TIP3   OH235221   3.629   1.701  13.727 -0.3007 -0.2480  0.4955
 4577TIP3    H135222   3.707   1.653  13.755  1.1784  1.2085 -1.0107
 4577TIP3    H235223   3.580   1.639  13.673 -0.1198 -1.1260  1.3241
 4578TIP3   OH235224   1.947   2.764   3.476 -0.1039  0.0054  0.0694
 4578TIP3    H135225   2.025   2.710   3.477  0.3798  0.7168  1.1453
 4578TIP3    H235226   1.883   2.715   3.527  0.2605  0.3295  0.8453
 4579TIP3   OH235227   0.349   4.681  16.554 -0.0484 -0.1952 -0.0090
 4579TIP3    H135228   0.403   4.609  16.520  0.4470  1.0641 -1.9835
 4579TIP3    H235229   0.403   4.759  16.542 -1.1832  0.7100  0.6929
 4580TIP3   OH235230   6.539   4.355   1.335 -0.1842  0.1368 -0.4886
 4580TIP3    H135231   6.466   4.417   1.336  0.0003  0.3492 -0.0940
 4580TIP3    H235232   6.566   4.351   1.243 -1.5925 -1.0001 -0.8811
 4581TIP3   OH235233   3.800   5.609  16.337 -0.2630 -0.4246  0.5494
 4581TIP3    H135234   3.746   5.679  16.299  0.0793  0.3540  1.4862
 4581TIP3    H235235   3.775   5.606  16.429 -1.2415 -2.4609  0.2351
 4582TIP3   OH235236   2.242   5.012   2.181  0.2766 -0.0272 -0.3358
 4582TIP3    H135237   2.188   5.091   2.187  0.9089  0.4530 -0.9550
 4582TIP3    H235238   2.193   4.953   2.125  0.0024  0.0965 -0.2247
 4583TIP3   OH235239   1.563   6.562   4.887 -0.2751 -0.4409  0.3176
 4583TIP3    H135240   1.597   6.477   4.861  1.4604  0.0580  0.9289
 4583TIP3    H235241   1.488   6.576   4.829  0.8400 -1.3268 -1.3926
 4584TIP3   OH235242   0.088   5.706  16.267  0.2576  0.1545 -0.4692
 4584TIP3    H135243   0.100   5.642  16.197 -0.4410 -2.4138  1.6812
 4584TIP3    H235244   0.163   5.692  16.325 -0.8007  0.1073  0.8986
 4585TIP3   OH235245   1.647   0.301   5.686 -0.1142 -0.5602  0.3586
 4585TIP3    H135246   1.733   0.339   5.705 -1.4349  1.8679  1.7944
 4585TIP3    H235247   1.611   0.279   5.772 -1.4306 -0.4022 -0.1400
 4586TIP3   OH235248   4.422   1.752   6.191 -0.4782 -0.0123  0.3702
 4586TIP3    H135249   4.353   1.737   6.256 -1.7464  0.3743 -0.8517
 4586TIP3    H235250   4.375   1.778   6.111  1.0394 -0.5343 -0.7276
 4587TIP3   OH235251   4.972   5.398  16.815  0.0233 -0.1039 -0.0444
 4587TIP3    H135252   4.924   5.478  16.836  2.2751  2.0203 -2.6532
 4587TIP3    H235253   5.049   5.401  16.872 -0.2598 -0.8457  0.3885
 4588TIP3   OH235254   1.821   0.825   1.549  0.2304 -0.0239  0.2895
 4588TIP3    H135255   1.811   0.763   1.621  0.7015 -1.0349 -0.5148
 4588TIP3    H235256   1.900   0.875   1.571 -1.0126  1.3890  1.7291
 4589TIP3   OH235257   4.237   4.838   4.547 -0.0551  0.4773 -0.3919
 4589TIP3    H135258   4.237   4.807   4.456  0.4413 -0.2196 -0.1645
 4589TIP3    H235259   4.285   4.921   4.544 -0.0023  0.4373 -0.7587
 4590TIP3   OH235260   2.897   5.010   0.151  0.8147  0.1268 -0.9678
 4590TIP3    H135261   2.944   5.053   0.080 -0.4522 -1.2231 -2.6684
 4590TIP3    H235262   2.939   4.924   0.159  0.1048 -0.2172 -0.9523
 4591TIP3   OH235263   2.159   1.610   3.253 -0.8132  0.0249 -0.4639
 4591TIP3    H135264   2.218   1.646   3.319  1.2146 -4.4442  0.3963
 4591TIP3    H235265   2.190   1.646   3.170 -0.3371  1.9559  0.5430
 4592TIP3   OH235266   5.548   0.113  10.421 -0.3475  0.4408 -0.4662
 4592TIP3    H135267   5.470   0.057  10.425 -0.1923  0.1732 -1.0247
 4592TIP3    H235268   5.573   0.112  10.328  0.7339 -0.0492 -0.1814
 4593TIP3   OH235269   6.319   4.472  15.378 -0.5946  0.2707  0.8779
 4593TIP3    H135270   6.390   4.430  15.328 -1.0010 -0.7352  1.1229
 4593TIP3    H235271   6.360   4.500  15.459 -0.5085 -0.4610  1.0905
 4594TIP3   OH235272   6.279   4.672   2.699  0.2533 -0.1588  0.1975
 4594TIP3    H135273   6.222   4.681   2.623  0.0650  0.4478  0.4020
 4594TIP3    H235274   6.348   4.613   2.672  0.1272 -0.0256 -0.4087
 4595TIP3   OH235275   3.527   4.918   3.745 -0.0087 -0.4442 -0.2627
 4595TIP3    H135276   3.573   4.871   3.676 -0.0726 -0.8696 -0.0154
 4595TIP3    H235277   3.594   4.939   3.809 -0.0923 -0.7534 -0.0716
 4596TIP3   OH235278   2.955   5.781   1.597  0.0369 -0.5562 -0.1668
 4596TIP3    H135279   3.024   5.741   1.650 -1.0492 -1.3357  0.7015
 4596TIP3    H235280   2.977   5.758   1.507  0.6320 -1.2218  0.1438
 4597TIP3   OH235281   0.871   4.714  11.907 -0.3849 -0.5927  0.1599
 4597TIP3    H135282   0.801   4.753  11.959  0.2180 -0.5213  0.9395
 4597TIP3    H235283   0.828   4.648  11.852 -1.0586 -0.5084  0.5864
 4598TIP3   OH235284   2.394   5.166  12.336 -0.0640  0.0455 -0.5104
 4598TIP3    H135285   2.372   5.238  12.395 -0.3245 -0.3893 -0.0695
 4598TIP3    H235286   2.325   5.168  12.270 -1.8243 -1.6728  1.1941
 4599TIP3   OH235287   0.948   4.696  17.100  0.0169 -0.3014 -0.3480
 4599TIP3    H135288   0.878   4.663  17.156  0.1407 -0.8535 -0.5247
 4599TIP3    H235289   0.968   4.624  17.041  0.1831  0.1352 -0.8281
 4600TIP3   OH235290   1.510   3.939   4.126 -0.2380  0.3713 -0.2330
 4600TIP3    H135291   1.536   4.010   4.067 -0.4614 -0.6050 -1.5216
 4600TIP3    H235292   1.587   3.923   4.180  0.3552  0.5208 -1.0182
 4601TIP3   OH235293   3.416   6.076  14.972 -0.6986 -0.2378 -1.2801
 4601TIP3    H135294   3.348   6.020  15.011 -0.3558 -0.0168 -0.3705
 4601TIP3    H235295   3.397   6.074  14.878 -1.6394 -0.6170 -1.0860
 4602TIP3   OH235296   2.199   3.403   2.985  0.3981 -0.8088  0.1858
 4602TIP3    H135297   2.160   3.316   2.995  0.5158 -1.0670 -1.4596
 4602TIP3    H235298   2.293   3.387   2.976  0.6389 -0.3594  1.7662
 4603TIP3   OH235299   4.189   1.101   4.972 -0.8086  0.0323 -0.4089
 4603TIP3    H135300   4.212   1.180   4.921 -0.3555  0.5892  0.6424
 4603TIP3    H235301   4.271   1.077   5.016 -1.2824 -0.2597  0.3097
 4604TIP3   OH235302   4.707   1.748   2.348 -0.0771  0.3045 -0.0320
 4604TIP3    H135303   4.719   1.795   2.431  1.6146 -2.0961  1.1265
 4604TIP3    H235304   4.793   1.752   2.306 -0.5203  0.1707 -0.9599
 4605TIP3   OH235305   0.629   0.336   1.383 -0.1169  0.2201  0.2310
 4605TIP3    H135306   0.614   0.255   1.432 -0.6585 -0.8703 -1.7018
 4605TIP3    H235307   0.603   0.405   1.444  1.5690 -0.9602  2.3679
 4606TIP3   OH235308   5.956   6.585  12.334  0.1227  0.1428 -0.0711
 4606TIP3    H135309   5.957   6.617  12.244  0.1403 -0.2486 -0.2122
 4606TIP3    H235310   5.872   6.540  12.342  1.3415 -2.3368 -0.7882
 4607TIP3   OH235311   0.805   6.710   6.116  0.1589 -0.3748  0.2098
 4607TIP3    H135312   0.882   6.734   6.063 -1.4429  1.3231 -1.4518
 4607TIP3    H235313   0.821   6.750   6.201  1.4166 -0.6140  0.0974
 4608TIP3   OH235314   4.213   0.434   3.243  0.1047  0.7152  0.1222
 4608TIP3    H135315   4.171   0.482   3.315  0.6971 -2.6132  2.7956
 4608TIP3    H235316   4.298   0.407   3.279  1.2531  0.6333 -2.5373
 4609TIP3   OH235317   4.267   3.862  15.059  0.0718 -0.2594  0.5753
 4609TIP3    H135318   4.354   3.899  15.051 -0.3730  0.4736 -1.0584
 4609TIP3    H235319   4.273   3.776  15.018 -0.3799  0.5063 -1.1670
 4610TIP3   OH235320   1.635   6.709  12.640  1.1337  0.5421 -0.5482
 4610TIP3    H135321   1.550   6.714  12.596  1.3717  2.8220 -0.7757
 4610TIP3    H235322   1.687   6.650  12.584 -0.1143 -0.4737 -0.6718
 4611TIP3   OH235323   1.065   3.229  16.836  0.3999 -0.3121  0.2363
 4611TIP3    H135324   1.118   3.219  16.757  0.2299  0.4620  0.0151
 4611TIP3    H235325   0.988   3.173  16.821  0.3687 -0.1700 -0.1510
 4612TIP3   OH235326   0.660   4.210   3.004 -0.4480 -0.0693 -0.1741
 4612TIP3    H135327   0.576   4.256   3.007 -1.1049 -1.1866 -0.7732
 4612TIP3    H235328   0.725   4.278   2.988 -1.6240  0.4284 -3.1509
 4613TIP3   OH235329   4.805   0.626  10.989  0.1007 -0.0571  0.2959
 4613TIP3    H135330   4.878   0.571  10.964  0.3196 -0.4604  1.7770
 4613TIP3    H235331   4.769   0.659  10.907 -0.0395 -2.4092 -0.5948
 4614TIP3   OH235332   5.734   5.893  12.779  0.2108 -0.3835 -0.0554
 4614TIP3    H135333   5.654   5.876  12.829 -0.9562  1.2836 -1.2865
 4614TIP3    H235334   5.788   5.946  12.837 -0.7822  0.8334 -0.2238
 4615TIP3   OH235335   3.060   3.149  11.781 -0.7034  0.7764  0.5531
 4615TIP3    H135336   3.067   3.060  11.746 -0.3112  1.8392 -2.1394
 4615TIP3    H235337   2.966   3.169  11.775 -0.7074  0.7759  0.6114
 4616TIP3   OH235338   6.432   3.164  11.656  0.1678 -0.1081  0.0428
 4616TIP3    H135339   6.467   3.151  11.745  0.1993 -2.2319 -0.2613
 4616TIP3    H235340   6.502   3.134  11.598  0.1748  1.3407 -0.7353
 4617TIP3   OH235341   5.472   3.322   4.367  0.4627 -0.1573 -0.0084
 4617TIP3    H135342   5.430   3.400   4.405  2.1826 -0.3736  2.4875
 4617TIP3    H235343   5.409   3.252   4.381  0.3756  0.1053  0.9745
 4618TIP3   OH235344   0.894   6.206  15.237 -0.2497 -0.0005 -0.4972
 4618TIP3    H135345   0.961   6.236  15.300  0.7967 -2.4485 -0.3984
 4618TIP3    H235346   0.828   6.164  15.292 -1.3554  1.4090 -0.7087
 4619TIP3   OH235347   0.559   2.461  12.194  0.3239  0.4830  0.0461
 4619TIP3    H135348   0.601   2.394  12.248 -2.4429 -3.0426 -1.9698
 4619TIP3    H235349   0.615   2.469  12.117  0.4907  0.2204  0.1403
 4620TIP3   OH235350   6.068   4.432   1.784 -0.0582 -0.5727 -0.6613
 4620TIP3    H135351   6.032   4.474   1.706  0.4024  1.3266  0.1471
 4620TIP3    H235352   6.157   4.408   1.758  0.0781  0.0065 -0.7131
 4621TIP3   OH235353   3.186   2.481   1.642 -0.9835  0.2819 -0.2703
 4621TIP3    H135354   3.237   2.518   1.715  0.1546 -0.0584 -0.8796
 4621TIP3    H235355   3.150   2.400   1.677  0.4873 -0.4528 -0.4140
 4622TIP3   OH235356   3.537   0.518  15.739 -0.1875  0.1400  0.5637
 4622TIP3    H135357   3.586   0.442  15.768  0.3205  0.4510  0.5144
 4622TIP3    H235358   3.456   0.482  15.702  0.6037 -0.4619 -0.5974
 4623TIP3   OH235359   4.532   5.490  16.018  0.1647 -0.4895 -0.2266
 4623TIP3    H135360   4.627   5.503  16.012  0.2077 -0.2598  0.9028
 4623TIP3    H235361   4.512   5.504  16.111 -1.0003 -0.3810 -0.4966
 4624TIP3   OH235362   3.621   5.116   4.577 -0.4299 -0.0170 -0.4750
 4624TIP3    H135363   3.546   5.087   4.526  0.4247 -0.5252 -1.4609
 4624TIP3    H235364   3.669   5.174   4.518  0.4263 -0.3990 -0.1679
 4625TIP3   OH235365   1.139   6.179  10.970 -0.2157 -0.3154 -0.7047
 4625TIP3    H135366   1.164   6.148  11.057  1.1748  0.3059 -0.8674
 4625TIP3    H235367   1.151   6.102  10.913  1.8098  0.0938 -0.8575
 4626TIP3   OH235368   1.299   2.092  11.253 -0.3499 -0.2715  0.2344
 4626TIP3    H135369   1.225   2.097  11.313 -1.7279  1.4271 -1.5580
 4626TIP3    H235370   1.355   2.166  11.278 -0.7601  0.2384 -0.3429
 4627TIP3   OH235371   2.690   0.663  14.487 -0.4049  0.3799  0.3535
 4627TIP3    H135372   2.746   0.723  14.535  0.3687 -0.1251  0.0850
 4627TIP3    H235373   2.689   0.697  14.397 -0.3480  0.2564  0.3065
 4628TIP3   OH235374   3.301   5.402   1.889  0.1260  0.1180 -0.0235
 4628TIP3    H135375   3.337   5.317   1.863 -0.1051 -0.0534  0.2087
 4628TIP3    H235376   3.293   5.397   1.984 -1.6768 -0.3158 -0.1851
 4629TIP3   OH235377   4.051   6.063   3.577  0.2313 -0.0844  0.2428
 4629TIP3    H135378   4.000   6.059   3.658 -1.2633  1.3669 -0.5966
 4629TIP3    H235379   3.992   6.103   3.514  1.1119 -1.8981 -1.7877
 4630TIP3   OH235380   6.510   4.059  10.738 -0.3319  0.5615  0.2469
 4630TIP3    H135381   6.419   4.037  10.756 -0.5592  1.4919  0.2593
 4630TIP3    H235382   6.517   4.055  10.642 -1.0140  2.8773  0.0839
 4631TIP3   OH235383   3.353   0.307   2.892 -0.2500 -0.3794  0.8118
 4631TIP3    H135384   3.319   0.249   2.960  1.9288 -0.9008  1.4850
 4631TIP3    H235385   3.348   0.394   2.931 -1.7211 -0.3221  0.5248
 4632TIP3   OH235386   0.356   3.486   1.671 -0.2351 -0.2831 -0.5493
 4632TIP3    H135387   0.385   3.540   1.598 -1.4182  0.1460 -0.6968
 4632TIP3    H235388   0.275   3.527   1.702  1.1470  0.5860  2.1269
 4633TIP3   OH235389   0.717   6.329   0.785 -0.3327 -0.0919  0.5390
 4633TIP3    H135390   0.792   6.324   0.725 -1.2286  0.3105 -0.6280
 4633TIP3    H235391   0.745   6.391   0.852  0.0030  0.8740 -0.4582
 4634TIP3   OH235392   6.415   1.269  17.066  0.5028  0.6806  0.1137
 4634TIP3    H135393   6.425   1.343  17.127  1.6140  1.0686 -0.5181
 4634TIP3    H235394   6.477   1.204  17.099 -1.1431 -0.3418  1.2090
 4635TIP3   OH235395   5.101   5.985  17.151  0.2368  0.1173 -0.4600
 4635TIP3    H135396   5.142   6.039  17.218 -0.0898  0.6195 -0.6602
 4635TIP3    H235397   5.014   5.966  17.185  0.6065 -0.9192 -0.0556
 4636TIP3   OH235398   1.531   4.069  12.191  0.7659 -0.3891 -0.1316
 4636TIP3    H135399   1.517   4.045  12.282  0.5879  0.1437 -0.0154
 4636TIP3    H235400   1.622   4.097  12.187  0.3993  0.8614  0.1692
 4637TIP3   OH235401   2.214   3.898   2.408 -0.1934  0.5348 -0.3275
 4637TIP3    H135402   2.137   3.908   2.353  0.5938 -0.5821 -1.6713
 4637TIP3    H235403   2.282   3.951   2.366  0.3565 -0.1556 -0.3264
 4638TIP3   OH235404   5.078   3.309  15.580 -0.2361 -0.2134  0.6734
 4638TIP3    H135405   5.018   3.302  15.654 -2.3837 -0.1900 -1.0150
 4638TIP3    H235406   5.031   3.361  15.515  1.5326 -0.3679 -0.7845
 4639TIP3   OH235407   2.408   2.551  12.991 -0.1678 -0.1226 -0.4049
 4639TIP3    H135408   2.439   2.489  13.058 -1.1158 -1.1808 -0.9392
 4639TIP3    H235409   2.428   2.508  12.908  0.2343  0.8194 -0.8014
 4640TIP3   OH235410   0.305   1.052   0.583 -0.1180  0.1157 -0.3504
 4640TIP3    H135411   0.274   0.967   0.553 -0.0941  0.8765 -2.6629
 4640TIP3    H235412   0.249   1.115   0.537 -0.0926  1.3565  1.2684
 4641TIP3   OH235413   6.312   1.365   2.799  0.0297  0.2130 -0.3074
 4641TIP3    H135414   6.248   1.434   2.779  0.9129  1.3755  0.7855
 4641TIP3    H235415   6.295   1.298   2.734 -1.2031  1.2354 -1.0817
 4642TIP3   OH235416   4.716   5.834   2.329  0.5437 -0.1910 -0.1865
 4642TIP3    H135417   4.627   5.851   2.299  0.8099  0.4113 -0.6443
 4642TIP3    H235418   4.770   5.898   2.283  1.2210 -0.5697  0.0661
 4643TIP3   OH235419   5.937   3.197  11.204  0.1833  0.0551 -0.2072
 4643TIP3    H135420   5.913   3.243  11.123 -0.8658 -1.3746 -0.7352
 4643TIP3    H235421   5.919   3.105  11.185  0.7381 -0.3873  1.3736
 4644TIP3   OH235422   6.325   2.693   3.942  0.6173 -0.1026  0.1685
 4644TIP3    H135423   6.275   2.774   3.954 -2.2090 -1.5372 -1.4115
 4644TIP3    H235424   6.276   2.627   3.993  2.0179 -1.1547  0.1933
 4645TIP3   OH235425   5.660   3.024  15.392  0.7092  0.0821  0.0915
 4645TIP3    H135426   5.659   2.939  15.348 -1.1808  0.6425 -1.0051
 4645TIP3    H235427   5.590   3.017  15.457  0.7557  0.7003  0.2044
 4646TIP3   OH235428   1.579   2.704  16.851 -0.1582 -0.8986 -0.5441
 4646TIP3    H135429   1.623   2.621  16.834  0.3844 -0.3884 -1.7196
 4646TIP3    H235430   1.606   2.760  16.779  0.0375  0.5199  0.6155
 4647TIP3   OH235431   4.023   3.803  13.127 -0.2563  0.4210  0.0159
 4647TIP3    H135432   4.000   3.854  13.204 -1.0530  0.5665 -0.3149
 4647TIP3    H235433   4.011   3.863  13.054 -0.3942  0.0084 -0.3039
 4648TIP3   OH235434   2.145   4.542  15.490 -0.2257 -0.2003 -0.7742
 4648TIP3    H135435   2.118   4.614  15.548  1.1378  0.5292 -1.0323
 4648TIP3    H235436   2.213   4.580  15.435 -0.9026 -1.1353 -2.2932
 4649TIP3   OH235437   1.342   2.743   3.957 -0.1496  0.6215 -0.1762
 4649TIP3    H135438   1.248   2.756   3.974 -0.0337  1.3590 -0.0739
 4649TIP3    H235439   1.351   2.649   3.945 -1.0172  0.6157 -0.8375
 4650TIP3   OH235440   4.503   6.488   4.297 -0.0331 -0.1509 -0.0115
 4650TIP3    H135441   4.500   6.451   4.386 -1.2472  0.3675  0.1732
 4650TIP3    H235442   4.412   6.489   4.269  0.5207 -1.8134 -1.9033
 4651TIP3   OH235443   3.583   1.672  11.119 -0.2400  0.0956  0.2603
 4651TIP3    H135444   3.636   1.740  11.078 -2.3815  1.4834 -0.2679
 4651TIP3    H235445   3.537   1.630  11.046 -1.8126  0.6168  0.9378
 4652TIP3   OH235446   2.905   2.364   1.474 -0.2376  0.0553 -0.1030
 4652TIP3    H135447   2.898   2.291   1.412 -0.0397  0.3989 -0.5319
 4652TIP3    H235448   2.976   2.339   1.533  0.0130  0.0248 -0.4157
 4653TIP3   OH235449   1.262   3.618   3.529  0.1073 -0.6915  0.3745
 4653TIP3    H135450   1.248   3.539   3.476  1.0158 -1.0815  0.7060
 4653TIP3    H235451   1.179   3.630   3.575 -0.9789  0.0900 -1.6916
 4654TIP3   OH235452   0.071   4.956   0.902  0.0683 -0.7072 -0.0004
 4654TIP3    H135453   0.086   4.936   0.810 -0.2885  1.2205 -0.5177
 4654TIP3    H235454  -0.021   4.933   0.916 -0.5654  1.1597 -0.7982
 4655TIP3   OH235455   5.596   4.889   0.744  0.2332 -1.0815 -0.1190
 4655TIP3    H135456   5.651   4.915   0.670 -0.4364  2.9745  0.6796
 4655TIP3    H235457   5.507   4.905   0.715 -0.1024 -0.6492  1.0913
 4656TIP3   OH235458   3.420   1.413  12.624 -0.1411 -0.1513  0.1974
 4656TIP3    H135459   3.501   1.464  12.616 -2.2936  3.8234  2.3110
 4656TIP3    H235460   3.430   1.365  12.707  0.7092 -1.0393 -0.4014
 4657TIP3   OH235461   2.043   0.255   0.555 -1.1616 -0.1048  0.4140
 4657TIP3    H135462   2.074   0.338   0.518  1.4613 -2.2436 -2.4392
 4657TIP3    H235463   1.998   0.212   0.483  0.3603 -2.5574  0.8714
 4658TIP3   OH235464   3.618   1.618  14.561 -0.0831  0.2283  0.0816
 4658TIP3    H135465   3.605   1.708  14.531 -0.7442  0.9111  2.2916
 4658TIP3    H235466   3.585   1.564  14.489 -0.4730  1.7572 -0.9204
 4659TIP3   OH235467   2.353   5.763   6.929 -0.5058  0.5405  0.2617
 4659TIP3    H135468   2.371   5.670   6.946 -2.8252  0.1969  1.1635
 4659TIP3    H235469   2.313   5.764   6.842 -1.1953  0.5863  0.5760
 4660TIP3   OH235470   1.473   6.516   5.135  0.0041 -0.1471  0.6930
 4660TIP3    H135471   1.387   6.547   5.164 -0.1442 -1.4456  1.6692
 4660TIP3    H235472   1.482   6.549   5.046 -0.3500  2.3126  1.5214
 4661TIP3   OH235473   2.198   5.123   1.020 -0.0844  0.5165 -0.6237
 4661TIP3    H135474   2.247   5.155   1.096 -0.2047 -0.8154  0.0301
 4661TIP3    H235475   2.243   5.043   0.994  0.6855  1.6070 -2.7354
 4662TIP3   OH235476   3.092   0.870   6.105  0.3339 -0.2367  0.0137
 4662TIP3    H135477   3.179   0.880   6.144  1.6179 -0.3425 -2.7447
 4662TIP3    H235478   3.034   0.920   6.163  2.2681  0.1003  1.6951
 4663TIP3   OH235479   1.823   1.411  14.493  0.0118 -0.6376 -0.1736
 4663TIP3    H135480   1.863   1.487  14.451  0.7822 -0.6158  0.5725
 4663TIP3    H235481   1.792   1.357  14.421  0.6084 -0.2285 -0.7459
 4664TIP3   OH235482   2.006   0.194   2.904 -0.0809  0.2355 -0.1205
 4664TIP3    H135483   2.070   0.230   2.843  0.9562 -1.6680 -0.1805
 4664TIP3    H235484   1.921   0.211   2.863  0.4505  1.4811 -0.7278
 4665TIP3   OH235485   1.316   5.831  14.081 -0.8097  0.0705  0.3658
 4665TIP3    H135486   1.376   5.842  14.006 -0.5900  0.2909  0.5709
 4665TIP3    H235487   1.251   5.768  14.050 -0.2524 -0.4712  0.2696
 4666TIP3   OH235488   4.515   0.659  11.130  0.1136  0.3698  0.1498
 4666TIP3    H135489   4.511   0.649  11.035  0.1478  3.5079 -0.2105
 4666TIP3    H235490   4.428   0.634  11.160 -0.8243  2.2272 -0.9979
 4667TIP3   OH235491   4.081   5.972  13.840  0.1196  1.3245 -0.1225
 4667TIP3    H135492   4.140   5.973  13.916  0.5561 -0.6259 -0.4062
 4667TIP3    H235493   4.016   6.040  13.860  0.6736  1.3794  1.6331
 4668TIP3   OH235494   4.197   1.988   3.296  0.8003 -0.0189  0.3096
 4668TIP3    H135495   4.270   1.941   3.254 -0.2517 -0.5495 -0.9623
 4668TIP3    H235496   4.173   1.933   3.371  0.6069 -0.7280 -0.2598
 4669TIP3   OH235497   3.663   1.674  14.203 -0.1043 -0.3280 -0.0091
 4669TIP3    H135498   3.654   1.611  14.131 -0.7307  0.1717 -0.3755
 4669TIP3    H235499   3.757   1.677  14.220  0.0458 -0.5229 -0.7488
 4670TIP3   OH235500   6.205   4.024  16.734 -0.1391  0.0527 -0.1820
 4670TIP3    H135501   6.282   4.081  16.746 -0.0212 -0.2915  0.7973
 4670TIP3    H235502   6.130   4.080  16.753  0.0130 -0.2918  1.5200
 4671TIP3   OH235503   0.613   1.114   0.291  0.1181  0.4809  0.0251
 4671TIP3    H135504   0.577   1.117   0.202 -0.3905  0.1509  0.2151
 4671TIP3    H235505   0.588   1.028   0.324  0.6059  0.4695  0.3648
 4672TIP3   OH235506   3.766   5.297   1.153 -0.5812 -0.3256  0.2350
 4672TIP3    H135507   3.732   5.354   1.084 -0.4509  0.9406  1.2095
 4672TIP3    H235508   3.858   5.283   1.130 -0.1212  1.3720  0.9769
 4673TIP3   OH235509   4.545   3.198  11.516  0.2364  0.2600  0.2593
 4673TIP3    H135510   4.603   3.200  11.440  1.8627 -0.3960  1.4609
 4673TIP3    H235511   4.525   3.290  11.533  0.7957  0.4812 -0.2460
 4674TIP3   OH235512   6.288   4.398  16.210  0.4265  0.1070 -0.3804
 4674TIP3    H135513   6.199   4.431  16.226  0.4638  0.4273 -0.8252
 4674TIP3    H235514   6.299   4.404  16.115  0.1455 -1.9231 -0.5662
 4675TIP3   OH235515   5.646   6.478   1.024 -0.2175  0.0589  0.0809
 4675TIP3    H135516   5.628   6.385   1.039  0.9226 -0.0751  0.6202
 4675TIP3    H235517   5.740   6.487   1.036 -0.2043  1.1453 -0.7602
 4676TIP3   OH235518   1.992   3.077   1.560 -0.0425 -0.2975  0.3998
 4676TIP3    H135519   2.011   3.169   1.578 -2.2039 -0.0526  1.6978
 4676TIP3    H235520   2.074   3.031   1.578  0.5626  1.1715  1.5383
 4677TIP3   OH235521   1.976   0.533  12.590 -0.9517 -0.1676 -0.0631
 4677TIP3    H135522   1.992   0.609  12.535  2.0336 -3.4248 -4.0092
 4677TIP3    H235523   1.902   0.488  12.548 -0.7555 -1.0062  0.4826
 4678TIP3   OH235524   0.812   6.506   0.461 -0.0414  0.2168 -0.8112
 4678TIP3    H135525   0.722   6.475   0.469  1.0916 -3.1350 -0.4513
 4678TIP3    H235526   0.807   6.576   0.396 -2.8433 -0.2108 -1.1258
 4679TIP3   OH235527   2.879   0.820   4.831  0.0254  0.1745 -0.7063
 4679TIP3    H135528   2.866   0.882   4.902 -1.2567 -0.0150 -0.7737
 4679TIP3    H235529   2.866   0.871   4.751 -2.3018 -0.4320 -0.7528
 4680TIP3   OH235530   5.415   4.984  12.219 -0.2399  0.2583 -0.6208
 4680TIP3    H135531   5.407   4.974  12.314  1.8314  1.3201 -0.3072
 4680TIP3    H235532   5.442   4.897  12.188 -2.6287 -0.5791 -0.4975
 4681TIP3   OH235533   3.292   1.765  15.757  0.1062  0.5038  0.3713
 4681TIP3    H135534   3.233   1.703  15.715  1.0741 -0.8441  0.9550
 4681TIP3    H235535   3.379   1.726  15.748  0.5166  0.8961  2.3069
 4682TIP3   OH235536   5.578   0.298  12.255 -0.1610 -0.2331 -0.2334
 4682TIP3    H135537   5.555   0.209  12.229  1.9037 -1.3751  1.6934
 4682TIP3    H235538   5.552   0.305  12.346  2.0140  0.2587  0.3856
 4683TIP3   OH235539   0.002   2.375   2.674  0.1937  0.3165 -0.0383
 4683TIP3    H135540  -0.016   2.379   2.580 -0.9859  0.0368  0.1620
 4683TIP3    H235541   0.066   2.444   2.689 -0.1963  0.8871 -0.9279
 4684TIP3   OH235542   2.866   3.911  11.380 -0.2934  0.0599 -0.4140
 4684TIP3    H135543   2.937   3.934  11.319 -0.7157  1.3646 -0.4414
 4684TIP3    H235544   2.894   3.829  11.420  1.3570  0.6811 -0.2495
 4685TIP3   OH235545   6.675   3.594  16.045 -0.2871 -0.4197  0.0515
 4685TIP3    H135546   6.652   3.501  16.043 -0.1589 -0.4716  0.9449
 4685TIP3    H235547   6.764   3.596  16.078 -0.1059 -0.0046 -0.4471
 4686TIP3   OH235548   1.316   3.440   4.798  0.5825 -0.5255 -0.5458
 4686TIP3    H135549   1.374   3.424   4.724  4.1427  0.0855  1.9656
 4686TIP3    H235550   1.305   3.535   4.801  0.1123 -0.5785 -0.5471
 4687TIP3   OH235551   5.203   2.270   5.178 -1.0891 -0.2056 -0.0616
 4687TIP3    H135552   5.214   2.364   5.164  0.4354  0.1429  3.1591
 4687TIP3    H235553   5.276   2.230   5.131 -0.5282  0.3595  0.3311
 4688TIP3   OH235554   2.251   1.276   1.788  0.1698 -0.3013  0.0775
 4688TIP3    H135555   2.264   1.231   1.705 -1.3395 -0.0453 -0.3117
 4688TIP3    H235556   2.162   1.252   1.815  0.2059  0.5746  1.0136
 4689TIP3   OH235557   1.686   3.056  11.789  0.2957 -0.3599 -0.4756
 4689TIP3    H135558   1.693   2.965  11.816  1.5423 -0.1392 -0.0209
 4689TIP3    H235559   1.766   3.097  11.822 -0.0710  0.8103 -1.0118
 4690TIP3   OH235560   2.010   6.194   5.699 -0.3158 -0.2341  0.1496
 4690TIP3    H135561   1.977   6.273   5.656  1.2728  0.3990  0.0498
 4690TIP3    H235562   2.105   6.208   5.706 -0.0664 -1.9599  0.5009
 4691TIP3   OH235563   3.709   3.830   6.797 -0.1199  0.3230 -0.1427
 4691TIP3    H135564   3.707   3.735   6.811 -1.6663  0.4271  0.5272
 4691TIP3    H235565   3.673   3.842   6.709  0.3561  0.2752 -0.3456
 4692TIP3   OH235566   4.740   5.867  16.977 -0.3624  0.4666 -0.1784
 4692TIP3    H135567   4.680   5.793  16.972 -0.5027  0.6033 -0.6056
 4692TIP3    H235568   4.694   5.937  16.930 -0.6678  1.1155  1.0747
 4693TIP3   OH235569   3.938   3.138  15.465 -0.2891 -0.4764 -0.1818
 4693TIP3    H135570   3.983   3.185  15.395 -0.3737 -1.8163 -1.1484
 4693TIP3    H235571   3.906   3.207  15.523 -2.3733  0.8187 -2.7593
 4694TIP3   OH235572   0.504   4.375   1.812  0.8207  0.3649  0.1135
 4694TIP3    H135573   0.455   4.429   1.750  0.0775  1.5767  1.7376
 4694TIP3    H235574   0.576   4.339   1.760 -0.5582  0.2503 -1.7847
 4695TIP3   OH235575   5.399   1.340  17.040 -0.2830  0.5203  0.4799
 4695TIP3    H135576   5.304   1.354  17.037 -0.4899 -0.0609  3.2161
 4695TIP3    H235577   5.434   1.423  17.073  0.2223  0.8786 -0.9254
 4696TIP3   OH235578   2.209   4.868   2.410  0.0650  0.3222  0.2503
 4696TIP3    H135579   2.227   4.934   2.343  0.8170 -0.7333 -0.6196
 4696TIP3    H235580   2.293   4.854   2.453 -0.8039  2.3265  2.6998
 4697TIP3   OH235581   6.797   3.977  16.362 -0.4223 -0.6600  0.3675
 4697TIP3    H135582   6.818   3.984  16.269  0.1290 -1.4004  0.4381
 4697TIP3    H235583   6.771   3.886  16.375  1.9445 -1.2267  1.4349
 4698TIP3   OH235584   0.527   4.022  15.471 -0.5242 -0.1767  0.3505
 4698TIP3    H135585   0.530   4.038  15.566 -1.1367 -0.3474  0.3964
 4698TIP3    H235586   0.587   4.087  15.434  0.0548 -0.3898  0.8914
 4699TIP3   OH235587   5.299   4.966   1.592  0.4888  0.1952  0.3404
 4699TIP3    H135588   5.237   4.953   1.520 -1.7423  2.4284  1.7949
 4699TIP3    H235589   5.282   4.893   1.652 -0.8141  0.8378  0.7690
 4700TIP3   OH235590   6.112   2.610  13.174 -0.4837  0.3644 -0.0157
 4700TIP3    H135591   6.080   2.658  13.098  0.5968  0.1023 -0.6425
 4700TIP3    H235592   6.203   2.588  13.152 -0.7632 -1.3920  0.5522
 4701TIP3   OH235593   4.293   5.446  10.722  0.1063 -0.2584 -0.0166
 4701TIP3    H135594   4.309   5.360  10.682 -1.2310 -0.3080 -0.4704
 4701TIP3    H235595   4.380   5.487  10.726  0.3254 -0.3030 -2.8796
 4702TIP3   OH235596   2.975   6.626   1.020 -0.5234  0.1646  0.2845
 4702TIP3    H135597   2.913   6.652   0.952 -0.9023  0.2695  0.6684
 4702TIP3    H235598   3.058   6.665   0.994 -0.4029 -0.7236 -0.7136
 4703TIP3   OH235599   5.182   2.537  11.293 -0.3090 -0.0660 -0.3275
 4703TIP3    H135600   5.213   2.446  11.289 -0.2739 -0.0274 -0.9567
 4703TIP3    H235601   5.244   2.581  11.350 -0.3820 -0.4644  0.0606
 4704TIP3   OH235602   5.554   3.690   1.879  0.2035 -0.3373  0.2848
 4704TIP3    H135603   5.495   3.615   1.883  0.9456 -0.9645 -0.3303
 4704TIP3    H235604   5.633   3.660   1.925  0.2359  0.3200  0.6669
 4705TIP3   OH235605   2.392   1.843   5.033 -0.0842  0.0813 -0.6145
 4705TIP3    H135606   2.440   1.916   5.072 -0.9354  1.2379 -1.6968
 4705TIP3    H235607   2.409   1.769   5.091  0.9645  1.0890  0.3761
 4706TIP3   OH235608   5.264   4.174   1.797  0.2543 -0.1120 -0.4332
 4706TIP3    H135609   5.180   4.215   1.819 -0.3683 -0.7374 -1.5966
 4706TIP3    H235610   5.290   4.127   1.876  0.3490  1.4746  0.4981
 4707TIP3   OH235611   0.659   2.044   6.413  0.3741 -0.6452 -0.1669
 4707TIP3    H135612   0.727   2.029   6.479 -0.2253 -0.0279  0.5913
 4707TIP3    H235613   0.647   1.958   6.372  0.6996 -1.0570  0.5756
 4708TIP3   OH235614   0.282   3.757  12.089  0.3446 -0.6739  0.0507
 4708TIP3    H135615   0.377   3.756  12.092  0.3569  0.8549  0.4901
 4708TIP3    H235616   0.257   3.837  12.136 -1.1106 -0.3740 -1.1959
 4709TIP3   OH235617   2.991   5.776  14.524  0.4257 -0.2838  0.5016
 4709TIP3    H135618   2.955   5.691  14.499 -0.7759  0.5405 -0.6426
 4709TIP3    H235619   3.052   5.798  14.454  0.0852  0.1937  0.3555
 4710TIP3   OH235620   2.448   3.605   0.303 -0.9070 -0.2991 -0.6367
 4710TIP3    H135621   2.363   3.639   0.276 -0.8272  0.3274 -0.1231
 4710TIP3    H235622   2.507   3.680   0.295 -0.4435 -0.6844 -0.8108
 4711TIP3   OH235623   2.454   3.483  14.219 -0.0876 -0.2490 -0.1901
 4711TIP3    H135624   2.510   3.556  14.245 -1.7229  0.9405  0.0996
 4711TIP3    H235625   2.456   3.422  14.293  0.1685  0.1886  0.1602
 4712TIP3   OH235626   6.746   3.089  16.796 -0.0744  0.5837 -0.2609
 4712TIP3    H135627   6.756   3.171  16.747  0.6280  0.9597  0.4918
 4712TIP3    H235628   6.665   3.051  16.763  1.6107 -0.3830 -3.4403
 4713TIP3   OH235629   4.722   5.275   4.652 -0.0701  0.2537 -0.2942
 4713TIP3    H135630   4.630   5.272   4.678 -0.4368  1.2202 -1.4183
 4713TIP3    H235631   4.723   5.238   4.564  0.7532 -0.5633  0.0571
 4714TIP3   OH235632   4.144   2.656  13.578  0.0679 -0.1877  0.1387
 4714TIP3    H135633   4.194   2.597  13.634  0.3171  1.3920  1.6481
 4714TIP3    H235634   4.142   2.739  13.626  0.4386  1.2914 -2.2811
 4715TIP3   OH235635   2.493   2.466  12.764 -0.0516  0.2089 -0.1534
 4715TIP3    H135636   2.426   2.424  12.711 -1.9119  0.9504  1.5262
 4715TIP3    H235637   2.508   2.550  12.722 -1.0522  0.5287  0.1139
 4716TIP3   OH235638   2.146   2.640  15.612  0.3811 -0.1247 -0.4611
 4716TIP3    H135639   2.099   2.704  15.663 -1.4177 -3.3620  2.1303
 4716TIP3    H235640   2.088   2.620  15.538 -0.0220 -0.3748 -0.0745
 4717TIP3   OH235641   0.608   5.862   2.392 -0.7546 -0.0505 -0.3229
 4717TIP3    H135642   0.685   5.812   2.420 -0.8950  0.4928  1.0323
 4717TIP3    H235643   0.644   5.934   2.340 -0.3024  0.6160  0.9179
 4718TIP3   OH235644   6.534   1.612   2.169 -0.1812  0.0390 -0.3042
 4718TIP3    H135645   6.620   1.578   2.194  0.2309  0.5265 -1.0591
 4718TIP3    H235646   6.492   1.633   2.252 -0.4877 -2.4278  0.2109
 4719TIP3   OH235647   5.226   5.636  16.379 -0.3305 -0.0462 -0.1459
 4719TIP3    H135648   5.261   5.551  16.403  1.7606  0.6547 -0.6286
 4719TIP3    H235649   5.131   5.626  16.386 -0.0868 -2.2988  0.1289
 4720TIP3   OH235650   0.192   2.080   5.774 -0.3102 -0.4329  0.4125
 4720TIP3    H135651   0.281   2.112   5.755 -0.3575 -1.2749 -1.3507
 4720TIP3    H235652   0.171   2.118   5.859  0.8507  1.6253 -0.1809
 4721TIP3   OH235653   5.435   5.901  15.516 -0.1445  0.4624 -0.0210
 4721TIP3    H135654   5.398   5.820  15.482 -0.9302 -0.1708  2.2970
 4721TIP3    H235655   5.436   5.890  15.611 -0.0077  3.0554  0.3258
 4722TIP3   OH235656   2.582   4.183   5.069 -0.7925  0.4331 -0.1410
 4722TIP3    H135657   2.660   4.153   5.115 -0.8621 -0.3385 -0.5195
 4722TIP3    H235658   2.603   4.171   4.977 -2.1342 -1.7210 -0.1788
 4723TIP3   OH235659   6.746   3.447  11.854 -0.0486 -0.2746 -0.1522
 4723TIP3    H135660   6.817   3.510  11.839 -1.3070  0.9221 -1.2542
 4723TIP3    H235661   6.687   3.460  11.780 -0.1741 -3.0198 -0.5791
 4724TIP3   OH235662   6.656   2.905   3.310 -0.5992 -0.0157  0.0833
 4724TIP3    H135663   6.657   2.871   3.221 -1.2198  1.2303 -0.4208
 4724TIP3    H235664   6.624   2.995   3.301  3.4091  1.6337  1.0533
 4725TIP3   OH235665   2.277   5.768   5.460 -0.2408 -0.3539 -0.3524
 4725TIP3    H135666   2.295   5.734   5.548 -2.1884  1.0935  0.6474
 4725TIP3    H235667   2.257   5.861   5.474 -0.9600 -0.1979 -2.2725
 4726TIP3   OH235668   3.486   0.807   4.096 -0.0202  0.0139  0.2490
 4726TIP3    H135669   3.443   0.726   4.122 -1.1906  0.3346 -0.6417
 4726TIP3    H235670   3.430   0.843   4.027  0.2034  1.8414  0.9855
 4727TIP3   OH235671   4.642   3.171   3.265  0.7043  0.6453  0.2936
 4727TIP3    H135672   4.601   3.211   3.341  0.0626  1.0098 -0.2408
 4727TIP3    H235673   4.611   3.080   3.266  1.6190  0.3289  1.1164
 4728TIP3   OH235674   5.025   6.773  12.971  0.9399  0.1769  0.6145
 4728TIP3    H135675   5.023   6.683  12.937  0.6340  0.8094 -1.0702
 4728TIP3    H235676   4.934   6.803  12.966  1.2564  1.0304 -0.0619
 4729TIP3   OH235677   3.999   2.765   4.443  0.1742  0.0322  0.1813
 4729TIP3    H135678   4.085   2.752   4.483  0.8166 -0.9842 -1.4534
 4729TIP3    H235679   3.949   2.688   4.467  0.5562 -0.5729 -0.9298
 4730TIP3   OH235680   2.760   3.797  16.188  0.5226 -0.1502  0.1892
 4730TIP3    H135681   2.756   3.722  16.248 -0.2747  0.0325  0.3638
 4730TIP3    H235682   2.808   3.864  16.237 -0.2002  0.0304  0.6709
 4731TIP3   OH235683   1.058   6.142   4.211 -0.4182 -0.0613  0.0556
 4731TIP3    H135684   0.997   6.167   4.141 -0.2546  0.4066  0.0811
 4731TIP3    H235685   1.004   6.093   4.273 -0.5181 -0.6669 -0.5078
 4732TIP3   OH235686   4.079   0.185   0.022  0.5034  0.7756 -0.2445
 4732TIP3    H135687   4.171   0.184  -0.006  0.2136  1.3085 -1.2281
 4732TIP3    H235688   4.062   0.096   0.053  1.7673  1.0549  1.3365
 4733TIP3   OH235689   6.114   5.152   0.024 -0.4700  0.3093 -0.1592
 4733TIP3    H135690   6.104   5.130  -0.069 -0.7862 -0.2597  0.0097
 4733TIP3    H235691   6.155   5.238   0.024  0.9593 -0.3436 -0.8351
 4734TIP3   OH235692   3.627   2.294   0.490 -0.7134 -0.1642  0.5768
 4734TIP3    H135693   3.590   2.381   0.505 -0.7000 -0.0644  0.0608
 4734TIP3    H235694   3.551   2.236   0.484 -0.7747 -0.0145 -0.1423
 4735TIP3   OH235695   5.085   1.020   2.039 -0.0174  0.5474 -0.1382
 4735TIP3    H135696   5.085   1.114   2.053  0.1055  0.6906 -1.1065
 4735TIP3    H235697   5.102   0.983   2.126  0.5562  1.4298  0.1332
 4736TIP3   OH235698   4.402   0.072   1.364 -0.8844  0.3434 -0.2667
 4736TIP3    H135699   4.470   0.123   1.321 -0.9492  0.1162 -0.6433
 4736TIP3    H235700   4.337   0.056   1.296 -0.6029 -0.7072 -0.2993
 4737TIP3   OH235701   0.826   5.075   5.300 -0.3238 -0.3101 -0.6216
 4737TIP3    H135702   0.756   5.095   5.238 -0.4247 -0.0390 -0.4211
 4737TIP3    H235703   0.787   5.010   5.359 -1.2352  1.6202  0.9781
 4738TIP3   OH235704   0.127   6.736   3.473 -0.2863  0.0536  0.0543
 4738TIP3    H135705   0.069   6.794   3.426 -0.8292 -0.2938  0.2917
 4738TIP3    H235706   0.161   6.676   3.407  0.3047  0.6583 -0.1971
 4739TIP3   OH235707   2.524   3.127   4.382  0.2432 -0.0001  0.2566
 4739TIP3    H135708   2.471   3.048   4.392  1.7655 -1.0859 -0.1479
 4739TIP3    H235709   2.604   3.097   4.339  1.3615  1.5454  1.2220
 4740TIP3   OH235710   0.314   3.987  15.312 -0.2140 -0.2700  0.0356
 4740TIP3    H135711   0.399   4.008  15.353 -0.3915  1.4125 -0.3943
 4740TIP3    H235712   0.335   3.971  15.220 -0.2745 -0.5448  0.0695
 4741TIP3   OH235713   5.878   5.526  14.217 -0.5647 -0.1738  0.1260
 4741TIP3    H135714   5.800   5.475  14.197  0.2719 -1.2348 -0.4722
 4741TIP3    H235715   5.878   5.534  14.312 -3.0496  2.4897 -0.0173
 4742TIP3   OH235716   2.422   3.790  16.968  0.2285 -0.2351 -0.3472
 4742TIP3    H135717   2.462   3.703  16.963 -0.7254 -0.6892 -0.1359
 4742TIP3    H235718   2.332   3.777  16.941 -0.0021  0.6406 -0.0207
 4743TIP3   OH235719   6.669   4.853  12.555 -0.3943  0.0282 -0.5143
 4743TIP3    H135720   6.725   4.784  12.521  0.1365  0.3340 -0.2623
 4743TIP3    H235721   6.713   4.884  12.634 -2.4151 -1.7947  1.4168
 4744TIP3   OH235722   3.246   3.697  12.426  0.9982 -0.2216  0.3574
 4744TIP3    H135723   3.166   3.661  12.386  1.2549 -0.1399 -0.2353
 4744TIP3    H235724   3.311   3.627  12.415  1.0887 -0.1669  0.5617
 4745TIP3   OH235725   0.866   2.260  14.711 -0.1047  0.3648  0.1707
 4745TIP3    H135726   0.899   2.226  14.794 -0.5034  0.8944  0.5473
 4745TIP3    H235727   0.940   2.249  14.650 -0.7284 -2.5422 -0.1119
 4746TIP3   OH235728   3.487   4.124  15.031 -0.3224 -0.0097 -0.5143
 4746TIP3    H135729   3.512   4.044  14.985 -0.4298 -1.4212  1.8197
 4746TIP3    H235730   3.537   4.193  14.987 -1.3100 -1.1145 -3.4973
 4747TIP3   OH235731   3.166   5.670   3.531  0.6318  0.0124  0.2065
 4747TIP3    H135732   3.208   5.585   3.520 -1.1000 -0.8787  0.3057
 4747TIP3    H235733   3.105   5.676   3.457  0.5578  1.0562  0.3426
 4748TIP3   OH235734   4.548   6.672  14.275  0.6321 -0.1910 -0.6238
 4748TIP3    H135735   4.507   6.757  14.264 -1.0714 -1.1809 -2.3507
 4748TIP3    H235736   4.508   6.635  14.353 -0.5134 -0.4260 -1.3106
 4749TIP3   OH235737   4.039   2.802  15.038 -0.8171  0.4120 -0.2830
 4749TIP3    H135738   4.067   2.881  15.085 -1.1713 -0.8205  2.0542
 4749TIP3    H235739   3.950   2.786  15.068 -0.9025 -0.6384 -1.0617
 4750TIP3   OH235740   4.228   2.810   0.518 -0.5471 -0.0503  0.3245
 4750TIP3    H135741   4.195   2.798   0.429 -1.0573 -2.3326  0.7761
 4750TIP3    H235742   4.312   2.763   0.519  0.4459  1.7052  0.4894
 4751TIP3   OH235743   5.541   3.217   2.893 -0.2185  0.3017 -0.7206
 4751TIP3    H135744   5.541   3.308   2.864  1.8736  0.2062 -1.0997
 4751TIP3    H235745   5.501   3.169   2.821 -1.4461  0.9273 -0.4679
 4752TIP3   OH235746   3.241   5.356  16.481  0.4940 -0.2429  0.2087
 4752TIP3    H135747   3.213   5.444  16.506  0.8618 -0.0227 -0.1442
 4752TIP3    H235748   3.335   5.364  16.468  0.3958 -0.4709 -0.7083
 4753TIP3   OH235749   0.367   3.207   1.753  0.4127  0.2128  0.2491
 4753TIP3    H135750   0.455   3.217   1.790 -0.1383  1.7249  1.1588
 4753TIP3    H235751   0.347   3.292   1.714 -0.0706 -0.5748 -1.2538
 4754TIP3   OH235752   6.029   3.557   2.295 -0.0611 -0.6286  0.7772
 4754TIP3    H135753   5.934   3.545   2.288 -0.4887  1.7583  2.2753
 4754TIP3    H235754   6.061   3.473   2.329 -1.3798 -2.1019 -1.5170
 4755TIP3   OH235755   1.849   5.602  15.634  0.2659  0.3327  0.0921
 4755TIP3    H135756   1.839   5.554  15.717 -1.6568  0.0591 -0.2602
 4755TIP3    H235757   1.814   5.542  15.568  1.9147  0.4988 -0.9510
 4756TIP3   OH235758   1.664   3.716  11.985 -0.0742 -0.5140  0.8071
 4756TIP3    H135759   1.613   3.708  12.065  0.1394 -1.6550  0.8378
 4756TIP3    H235760   1.724   3.641  11.986 -0.6810 -1.0504 -0.8477
 4757TIP3   OH235761   3.175   4.573  14.233  0.3737 -0.0603 -0.1260
 4757TIP3    H135762   3.144   4.493  14.189 -0.9095  1.0088 -1.1774
 4757TIP3    H235763   3.268   4.555  14.249  0.2779 -1.4875 -0.9975
 4758TIP3   OH235764   5.453   4.296  16.278 -0.1532  0.1544 -0.6305
 4758TIP3    H135765   5.486   4.327  16.363  1.1470  0.4981 -1.2410
 4758TIP3    H235766   5.514   4.226  16.253  0.4167  1.1216 -2.0038
 4759TIP3   OH235767   1.777   2.430  11.744  0.2551  0.5191 -0.4863
 4759TIP3    H135768   1.788   2.488  11.669  1.7278  1.1001  0.1452
 4759TIP3    H235769   1.695   2.459  11.784 -0.3778  0.4034 -1.6981
 4760TIP3   OH235770   0.648   0.433   1.124 -0.9170 -0.1824  0.0625
 4760TIP3    H135771   0.662   0.395   1.211 -4.8306  0.7742  1.2160
 4760TIP3    H235772   0.645   0.357   1.065 -2.7286 -1.2486  1.4742
 4761TIP3   OH235773   1.027   5.268  15.728  0.0807  0.2907 -0.0890
 4761TIP3    H135774   1.109   5.288  15.773  1.6220 -1.5779 -1.9735
 4761TIP3    H235775   0.993   5.191  15.773  0.2994 -0.0147 -0.4397
 4762TIP3   OH235776   4.965   4.105   4.740 -0.0826  0.8870  0.2647
 4762TIP3    H135777   4.890   4.144   4.696 -1.4251  0.7272  2.3069
 4762TIP3    H235778   5.040   4.154   4.709 -0.7452 -0.3096 -3.4023
 4763TIP3   OH235779   0.705   1.964  16.459 -0.3274 -0.3015 -0.2267
 4763TIP3    H135780   0.752   1.882  16.474 -0.0747  0.1195  1.3191
 4763TIP3    H235781   0.662   1.952  16.374 -0.0752 -1.9320 -0.1348
 4764TIP3   OH235782   2.340   4.573   0.823  0.2943  0.1621  0.4650
 4764TIP3    H135783   2.376   4.561   0.736 -0.6420 -2.4475  0.3789
 4764TIP3    H235784   2.255   4.614   0.808 -0.1531 -0.8837  0.0765
 4765TIP3   OH235785   2.263   1.793  15.384  0.0544 -0.0567 -0.0717
 4765TIP3    H135786   2.222   1.867  15.429  1.0418 -0.0774  0.8902
 4765TIP3    H235787   2.293   1.736  15.455 -0.0421 -1.0146 -0.7948
 4766TIP3   OH235788   3.841   5.191  13.097  0.3408 -0.8992 -0.1915
 4766TIP3    H135789   3.897   5.189  13.175 -0.3224  2.0984  0.4315
 4766TIP3    H235790   3.901   5.212  13.025  0.4841 -0.4995  0.0374
 4767TIP3   OH235791   0.814   6.395  12.863  0.0561 -0.3047 -0.2870
 4767TIP3    H135792   0.857   6.428  12.943 -1.4528  0.1428  0.3579
 4767TIP3    H235793   0.784   6.308  12.887 -2.0056  0.5272  0.2481
 4768TIP3   OH235794   3.601   0.632  12.366  0.0062  0.2258  0.0940
 4768TIP3    H135795   3.604   0.679  12.282  0.7438  1.4102  0.7722
 4768TIP3    H235796   3.511   0.645  12.397  0.4552  2.0608  0.7313
 4769TIP3   OH235797   2.848   1.969  15.372 -0.4701 -0.1951  0.7214
 4769TIP3    H135798   2.935   1.996  15.343 -0.6914 -0.4603 -0.2058
 4769TIP3    H235799   2.854   1.968  15.468  1.1007 -2.0886  0.6283
 4770TIP3   OH235800   2.841   5.277  14.618 -0.0742 -0.5281 -0.1347
 4770TIP3    H135801   2.813   5.252  14.706  0.3733 -1.2081 -0.1786
 4770TIP3    H235802   2.877   5.197  14.580 -0.4947 -0.3003 -1.0326
 4771TIP3   OH235803   0.019   4.926  11.776  0.1272 -0.2415  0.2808
 4771TIP3    H135804   0.099   4.908  11.725 -0.2247 -1.6771  0.2171
 4771TIP3    H235805  -0.037   4.975  11.716  0.5530 -0.0960 -0.0048
 4772TIP3   OH235806   3.658   2.552  16.834 -0.4006 -0.4403 -0.2359
 4772TIP3    H135807   3.701   2.627  16.793  1.4642 -1.3033  0.0756
 4772TIP3    H235808   3.574   2.586  16.865  0.5038  1.5768  0.0981
 4773TIP3   OH235809   0.423   1.716   3.526  0.2941  0.0486  0.2908
 4773TIP3    H135810   0.470   1.788   3.484  0.6955  0.1463  0.9020
 4773TIP3    H235811   0.335   1.720   3.489 -0.0902  1.6993  1.3149
 4774TIP3   OH235812   5.136   1.317  13.426 -0.0098  0.0429 -0.9998
 4774TIP3    H135813   5.043   1.334  13.442  0.3790  0.8577  0.5753
 4774TIP3    H235814   5.139   1.271  13.343 -1.8226  0.0858 -1.0987
 4775TIP3   OH235815   6.482   6.038   2.271 -0.3918  0.1050 -0.5518
 4775TIP3    H135816   6.396   5.996   2.271 -0.2264 -0.2765  2.5764
 4775TIP3    H235817   6.463   6.129   2.247 -1.5265 -0.2136 -0.9003
 4776TIP3   OH235818   4.237   1.474  15.780  0.0842  0.7545 -0.4521
 4776TIP3    H135819   4.282   1.447  15.859  0.5656  0.5929 -0.7807
 4776TIP3    H235820   4.265   1.412  15.713 -1.2583  0.1427 -0.4778
 4777TIP3   OH235821   4.957   0.289  14.005  0.7035 -0.2126  0.4045
 4777TIP3    H135822   5.005   0.334  14.074  0.5677 -1.4384  1.3097
 4777TIP3    H235823   4.866   0.289  14.035  0.7936 -1.6111  0.7103
 4778TIP3   OH235824   3.865   3.431   4.287 -0.3709 -0.3212 -0.4465
 4778TIP3    H135825   3.816   3.458   4.365 -2.0922  1.5610 -2.1290
 4778TIP3    H235826   3.896   3.514   4.249  1.7982 -1.3232 -0.9218
 4779TIP3   OH235827   3.955   0.513  10.777 -0.0720  0.2942 -0.2440
 4779TIP3    H135828   3.883   0.488  10.834  0.0053 -0.7354 -0.5823
 4779TIP3    H235829   3.915   0.530  10.692  0.2133 -1.4975 -0.7626
 4780TIP3   OH235830   6.429   5.265   5.412  0.6956 -0.1583 -0.0249
 4780TIP3    H135831   6.370   5.269   5.487  1.7453  1.4895  0.7327
 4780TIP3    H235832   6.420   5.175   5.380 -0.6105 -0.5557  1.3719
 4781TIP3   OH235833   2.208   6.803   0.284  0.3573 -0.0159  0.0064
 4781TIP3    H135834   2.286   6.856   0.299  0.0474  0.9794 -1.7859
 4781TIP3    H235835   2.172   6.788   0.372 -0.8975  4.8367  0.4905
 4782TIP3   OH235836   2.080   4.876   3.557  0.0214 -0.6017  0.0144
 4782TIP3    H135837   2.023   4.805   3.587  0.6639 -0.9198  0.5241
 4782TIP3    H235838   2.070   4.945   3.623  0.5712 -0.8473  0.3641
 4783TIP3   OH235839   2.781   0.834  13.413 -0.0278 -0.4714  0.5821
 4783TIP3    H135840   2.757   0.790  13.332  1.2756  1.1975 -0.7536
 4783TIP3    H235841   2.748   0.923  13.403 -0.0913 -0.3254  1.9949
 4784TIP3   OH235842   3.342   2.842   3.435  0.8686 -0.3898  0.2961
 4784TIP3    H135843   3.396   2.763   3.433 -0.9538 -1.6663  0.7182
 4784TIP3    H235844   3.277   2.828   3.365  0.0453  0.3672  0.9035
 4785TIP3   OH235845   2.983   1.108  12.795 -0.0807  0.1523  0.2787
 4785TIP3    H135846   2.935   1.057  12.730 -0.2937  1.0238 -0.2599
 4785TIP3    H235847   2.973   1.059  12.876 -1.5420  0.0942  0.0859
 4786TIP3   OH235848   3.024   6.173   5.235 -0.3133  0.1277 -0.4784
 4786TIP3    H135849   2.963   6.115   5.279 -0.3268 -0.5828 -1.4259
 4786TIP3    H235850   3.096   6.184   5.298 -1.0401  0.3442  0.3214
 4787TIP3   OH235851   0.933   0.452  16.825  0.3735 -0.4075  0.3566
 4787TIP3    H135852   1.004   0.491  16.774  0.8418 -0.1887  1.1792
 4787TIP3    H235853   0.948   0.357  16.819  1.0478 -0.3352  1.0014
 4788TIP3   OH235854   2.508   6.107   4.340 -0.2266  0.1463 -0.0248
 4788TIP3    H135855   2.554   6.189   4.319 -0.7973  0.2476 -0.9201
 4788TIP3    H235856   2.563   6.064   4.405  2.1360 -0.6340 -2.4535
 4789TIP3   OH235857   6.045   1.435  10.257  0.3315  0.0981  0.4102
 4789TIP3    H135858   6.106   1.446  10.329 -0.6851  0.3950  1.2359
 4789TIP3    H235859   6.026   1.524  10.227 -2.5792  0.3019  2.6168
 4790TIP3   OH235860   2.510   6.343  14.313 -0.2249 -0.5887  0.0117
 4790TIP3    H135861   2.604   6.326  14.313 -0.0066  0.4377  2.2939
 4790TIP3    H235862   2.493   6.385  14.398 -2.7570 -0.8672 -0.3191
 4791TIP3   OH235863   5.425   3.248   1.974 -0.6987  0.3323 -0.1871
 4791TIP3    H135864   5.471   3.304   2.036 -1.2716 -0.2236  0.7520
 4791TIP3    H235865   5.495   3.201   1.928 -0.2528  1.1366 -0.3425
 4792TIP3   OH235866   5.049   2.676   1.031  0.5861 -0.3030  0.3082
 4792TIP3    H135867   4.975   2.683   0.971  0.1618 -2.8437  0.5102
 4792TIP3    H235868   5.022   2.728   1.107 -0.7636 -0.7854  0.1660
 4793TIP3   OH235869   5.109   5.365   2.065 -0.3829  0.4207 -0.4819
 4793TIP3    H135870   5.014   5.373   2.079 -0.3816 -1.2927  0.5837
 4793TIP3    H235871   5.119   5.283   2.017  0.7201 -0.5450  1.3382
 4794TIP3   OH235872   5.006   1.194   1.039 -0.1069  0.4945 -0.1019
 4794TIP3    H135873   5.010   1.166   0.947 -0.9306 -3.4302  0.9814
 4794TIP3    H235874   5.085   1.247   1.051  1.1288 -0.6997 -2.5114
 4795TIP3   OH235875   1.947   2.240  15.585  0.0657  0.0753  0.2561
 4795TIP3    H135876   1.906   2.274  15.665 -1.3447  0.6299 -0.6764
 4795TIP3    H235877   1.931   2.145  15.588 -1.2118  0.2694 -0.0326
 4796TIP3   OH235878   4.373   2.750   5.524  0.0434  0.1804  0.1141
 4796TIP3    H135879   4.363   2.806   5.447  2.5353 -1.3432 -1.3628
 4796TIP3    H235880   4.458   2.773   5.560 -0.6171  0.0875  1.7920
 4797TIP3   OH235881   6.144   6.036   1.394  0.3441  0.3555 -0.1644
 4797TIP3    H135882   6.060   5.996   1.371 -0.5223  2.0875 -0.1002
 4797TIP3    H235883   6.139   6.125   1.358  1.0977  1.3424  2.0451
 4798TIP3   OH235884   2.190   3.181  12.784 -0.6157 -0.1489 -0.3166
 4798TIP3    H135885   2.110   3.132  12.765 -0.7463  0.0425 -0.2587
 4798TIP3    H235886   2.240   3.179  12.703 -1.7837  1.8644 -1.1133
 4799TIP3   OH235887   3.979   2.160   2.573 -0.1915  0.1339  0.2564
 4799TIP3    H135888   3.913   2.193   2.634  0.6550  1.3724  0.5187
 4799TIP3    H235889   4.032   2.099   2.625 -1.4809 -1.3337 -0.1142
 4800TIP3   OH235890   1.990   3.810  14.193  0.1767  0.9038 -0.5705
 4800TIP3    H135891   1.969   3.727  14.149  0.1756  0.3808  0.3987
 4800TIP3    H235892   1.963   3.877  14.131 -0.6810  0.1875 -0.9869
 4801TIP3   OH235893   3.540   3.985   5.415  0.2219 -0.1415 -0.8317
 4801TIP3    H135894   3.583   4.058   5.370  0.7413 -0.0533 -0.2052
 4801TIP3    H235895   3.597   3.910   5.398 -0.6712 -0.5537 -2.0470
 4802TIP3   OH235896   1.494   2.115   0.794 -0.1728 -0.1509 -0.1471
 4802TIP3    H135897   1.532   2.064   0.722  0.3938 -1.2488  0.9067
 4802TIP3    H235898   1.417   2.065   0.820  0.2192 -0.3393  0.6942
 4803TIP3   OH235899   1.187   3.891  16.681  0.2715  0.0279 -0.3056
 4803TIP3    H135900   1.170   3.887  16.775  3.5787 -0.7545  0.3481
 4803TIP3    H235901   1.149   3.810  16.646 -1.5785  0.6495  0.2100
 4804TIP3   OH235902   2.668   2.175  16.263  0.4472 -0.1855  0.0172
 4804TIP3    H135903   2.676   2.114  16.336  1.3797  1.2014  1.1062
 4804TIP3    H235904   2.743   2.157  16.208 -0.2187 -1.1880 -0.5680
 4805TIP3   OH235905   0.977   1.065  15.805 -0.5632  0.4364  0.5491
 4805TIP3    H135906   0.899   1.105  15.766 -1.0776 -0.3726  0.7331
 4805TIP3    H235907   0.967   1.079  15.899 -1.5463 -1.4866  0.7630
 4806TIP3   OH235908   2.585   0.264  12.621  0.1807 -0.3206 -0.0098
 4806TIP3    H135909   2.518   0.288  12.685 -2.1645 -1.5380 -1.8760
 4806TIP3    H235910   2.663   0.245  12.672 -0.2542  3.2416  2.0942
 4807TIP3   OH235911   6.252   2.104  14.133  0.1269  0.0233 -0.1389
 4807TIP3    H135912   6.158   2.117  14.143 -0.2512 -0.4447 -2.6692
 4807TIP3    H235913   6.264   2.087  14.040  2.7960  0.5899  0.0579
 4808TIP3   OH235914   3.580   6.403  13.775  0.1432 -0.1862 -0.0548
 4808TIP3    H135915   3.497   6.354  13.779  0.2079 -0.2447  0.6856
 4808TIP3    H235916   3.553   6.493  13.755 -0.3452  0.3517  2.7405
 4809TIP3   OH235917   6.311   6.739   4.251  0.4377  0.2095  0.0048
 4809TIP3    H135918   6.283   6.782   4.170  1.7038  2.5221  0.7432
 4809TIP3    H235919   6.235   6.689   4.279 -0.3689  0.2345 -2.0464
 4810TIP3   OH235920   3.004   2.916   1.377 -0.0551  0.4398  0.1176
 4810TIP3    H135921   2.989   2.834   1.424 -1.7557  0.6540 -0.0192
 4810TIP3    H235922   3.098   2.917   1.359  0.0189 -1.3550  0.3539
 4811TIP3   OH235923   1.782   2.653  11.058 -0.1286  0.2504 -0.1211
 4811TIP3    H135924   1.849   2.619  11.117  0.1672  2.1480  0.6567
 4811TIP3    H235925   1.821   2.643  10.971  0.8073  0.5271  0.2577
 4812TIP3   OH235926   4.242   6.674   2.271  0.5381 -0.9732 -0.1632
 4812TIP3    H135927   4.295   6.742   2.231  1.4978 -1.5641  0.0842
 4812TIP3    H235928   4.298   6.636   2.339 -1.2707  0.4662  2.2305
 4813TIP3   OH235929   4.275   5.461  16.426 -0.2739  0.2165 -0.1956
 4813TIP3    H135930   4.341   5.402  16.389  0.2576  0.7255 -0.0615
 4813TIP3    H235931   4.205   5.463  16.361  0.2153  0.3323 -0.7184
 4814TIP3   OH235932   4.283   5.426   1.141  0.6967  0.1189 -0.5162
 4814TIP3    H135933   4.261   5.494   1.205 -0.3974 -0.8846  0.1963
 4814TIP3    H235934   4.378   5.427   1.137  0.7697  0.3687  0.9357
 4815TIP3   OH235935   5.922   5.873   5.820  0.5646  0.2127 -0.0479
 4815TIP3    H135936   5.896   5.782   5.805  0.3140  0.2858 -0.0438
 4815TIP3    H235937   5.870   5.901   5.895  0.5057  0.4214 -0.1672
 4816TIP3   OH235938   1.016   1.038   5.259  0.2522  0.0251 -0.2243
 4816TIP3    H135939   0.966   1.043   5.178 -2.8104 -0.3983  1.5498
 4816TIP3    H235940   1.013   0.945   5.284  2.1631 -0.0516 -0.2118
 4817TIP3   OH235941   5.050   2.069   0.369  1.2056  0.4057  0.1683
 4817TIP3    H135942   5.096   1.991   0.338  0.2589 -0.5647  1.1391
 4817TIP3    H235943   4.964   2.036   0.397  0.8234  1.7839  0.6509
 4818TIP3   OH235944   4.336   6.155  16.836  0.0416  0.6592 -0.2071
 4818TIP3    H135945   4.266   6.207  16.795  0.1358  1.4396  0.6139
 4818TIP3    H235946   4.405   6.219  16.856  0.2373  0.1943  0.6293
 4819TIP3   OH235947   2.691   3.574  13.208  0.1389  0.2148  0.1764
 4819TIP3    H135948   2.609   3.574  13.257  0.8301  0.2364  1.3313
 4819TIP3    H235949   2.741   3.501  13.245  0.2530 -0.4161 -1.1872
 4820TIP3   OH235950   4.242   5.130   4.445 -0.7237  0.4292 -0.3073
 4820TIP3    H135951   4.209   5.213   4.409  4.4383  2.1095 -1.5731
 4820TIP3    H235952   4.292   5.091   4.374 -1.5056 -2.9449  0.9000
 4821TIP3   OH235953   3.361   4.615  11.404 -0.0373  0.4046 -0.0413
 4821TIP3    H135954   3.406   4.586  11.325  0.3418  0.8763 -0.0026
 4821TIP3    H235955   3.304   4.542  11.427  0.6865 -0.1917 -0.1016
 4822TIP3   OH235956   1.757   5.092   2.949  0.2185  0.1534  0.3485
 4822TIP3    H135957   1.832   5.084   2.890 -0.0039  1.4222 -0.1343
 4822TIP3    H235958   1.796   5.091   3.037  0.9174  1.7104  0.0803
 4823TIP3   OH235959   6.029   3.957  13.187 -0.6106  0.0957  0.1124
 4823TIP3    H135960   6.042   4.034  13.132 -0.5375  0.7782  1.0869
 4823TIP3    H235961   5.990   3.990  13.268  1.5178 -0.5791  1.4552
 4824TIP3   OH235962   2.176   1.377  17.292 -0.0660  0.3857 -0.4061
 4824TIP3    H135963   2.206   1.296  17.251  0.0310 -0.5356  1.4324
 4824TIP3    H235964   2.083   1.363  17.307  0.2588 -0.0287  1.3342
 4825TIP3   OH235965   2.227   2.534  11.123 -0.1294  0.1408 -0.8493
 4825TIP3    H135966   2.265   2.483  11.195  0.2033  1.5370 -0.0124
 4825TIP3    H235967   2.254   2.624  11.141 -3.7991  1.1792 -0.2359
 4826TIP3   OH235968   4.934   4.734  16.238 -0.2450  0.1591  0.4563
 4826TIP3    H135969   5.019   4.690  16.232  0.0224  0.8394 -1.1305
 4826TIP3    H235970   4.899   4.728  16.149 -2.3548 -1.0647  1.3446
 4827TIP3   OH235971   5.047   4.231  11.625 -0.5806  0.6387 -0.3465
 4827TIP3    H135972   5.019   4.141  11.643  1.9286 -0.1058  0.0337
 4827TIP3    H235973   4.995   4.285  11.685 -1.2362 -0.6586  0.2644
 4828TIP3   OH235974   6.539   2.844   5.233 -0.1562  0.1238  0.4071
 4828TIP3    H135975   6.498   2.866   5.316  1.6972  1.1016  1.0892
 4828TIP3    H235976   6.575   2.926   5.201  1.9640 -0.8221  0.2372
 4829TIP3   OH235977   5.226   6.395   0.646 -0.4051  0.0818 -0.2319
 4829TIP3    H135978   5.270   6.475   0.619 -0.7365 -0.3784 -2.2181
 4829TIP3    H235979   5.149   6.425   0.695  0.0466  0.9533 -0.0500
 4830TIP3   OH235980   0.805   5.390  15.658 -0.0219 -0.0388  0.7916
 4830TIP3    H135981   0.817   5.466  15.602 -2.1351  0.1587  0.5698
 4830TIP3    H235982   0.890   5.345  15.657  0.4042  0.7804 -1.3272
 4831TIP3   OH235983   1.874   1.830  14.483  0.2421 -0.1775  0.5226
 4831TIP3    H135984   1.926   1.910  14.483  1.1803 -0.7549 -2.1583
 4831TIP3    H235985   1.925   1.768  14.535  0.2901  0.4675  1.2499
 4832TIP3   OH235986   2.889   3.522  15.312  0.3843  0.5541  0.0702
 4832TIP3    H135987   2.904   3.499  15.221  0.5404  2.6944 -0.4752
 4832TIP3    H235988   2.802   3.487  15.332 -0.7499  2.2654 -1.6803
 4833TIP3   OH235989   4.854   3.980  15.085 -0.6553 -0.1789  0.7560
 4833TIP3    H135990   4.898   3.897  15.106  0.3755  0.1826  0.0722
 4833TIP3    H235991   4.768   3.972  15.125  0.1517 -0.7640  2.4271
 4834TIP3   OH235992   4.543   0.809   4.816  0.3699  0.0160  0.1849
 4834TIP3    H135993   4.539   0.835   4.723 -1.4526  0.8281  0.4595
 4834TIP3    H235994   4.555   0.715   4.814 -0.7043 -0.1175 -0.9082
 4835TIP3   OH235995   1.191   3.228   0.741 -0.6920 -0.0149 -0.4702
 4835TIP3    H135996   1.223   3.307   0.698 -0.3260  0.6049  0.9194
 4835TIP3    H235997   1.264   3.167   0.739 -0.4795  0.2315 -0.1885
 4836TIP3   OH235998   6.175   6.098   2.886 -0.1031 -0.0869  0.0542
 4836TIP3    H135999   6.184   6.108   2.791  1.0780  0.7041  0.2316
 4836TIP3    H236000   6.215   6.013   2.905  0.1739  0.0107 -0.0863
 4837TIP3   OH236001   5.139   0.943  14.236 -0.9352 -0.0118 -0.4701
 4837TIP3    H136002   5.202   0.998  14.281 -1.1180  0.1299 -0.3845
 4837TIP3    H236003   5.101   0.888  14.306 -1.5076  0.4883 -0.3848
 4838TIP3   OH236004   0.626   3.414   4.480 -0.0933  0.9410 -0.0768
 4838TIP3    H136005   0.578   3.413   4.562 -0.6558  1.6161 -0.3949
 4838TIP3    H236006   0.561   3.436   4.414  0.0088 -1.2062 -0.9334
 4839TIP3   OH236007   3.179   4.944   0.936 -0.3300  0.2550 -0.1017
 4839TIP3    H136008   3.155   4.941   0.843 -0.2616  0.9856 -0.1458
 4839TIP3    H236009   3.097   4.930   0.982 -0.5240  0.8041 -0.2705
 4840TIP3   OH236010   2.243   0.503   4.780 -0.4755 -0.6393  0.5728
 4840TIP3    H136011   2.218   0.532   4.692 -1.1991 -0.0384  0.9650
 4840TIP3    H236012   2.307   0.433   4.765 -0.0900 -0.0878 -0.4179
 4841TIP3   OH236013   2.105   0.929   3.217 -0.3188 -0.1846 -0.1445
 4841TIP3    H136014   2.105   0.849   3.271  0.9454 -0.1086 -0.0214
 4841TIP3    H236015   2.101   1.000   3.280  1.5764 -0.0845 -0.1124
 4842TIP3   OH236016   3.676   1.797   2.959  0.7559  0.6842 -0.2305
 4842TIP3    H136017   3.594   1.817   2.914 -0.2421  0.0292  1.2809
 4842TIP3    H236018   3.684   1.702   2.955  2.0444  0.8269 -1.3966
 4843TIP3   OH236019   6.754   4.422  13.702  0.2030  0.5314 -0.4415
 4843TIP3    H136020   6.660   4.415  13.716  0.5868  0.7699  2.6246
 4843TIP3    H236021   6.787   4.333  13.715  0.3195  0.2621 -2.4484
 4844TIP3   OH236022   4.673   2.509   1.387 -0.1666 -0.1638  0.5556
 4844TIP3    H136023   4.717   2.432   1.350 -0.4845 -0.9989  1.8814
 4844TIP3    H236024   4.739   2.579   1.382  0.9265 -1.1129  1.4279
 4845TIP3   OH236025   4.299   5.671  17.272  0.0466  0.1638 -0.4468
 4845TIP3    H136026   4.357   5.714  17.335  0.4007  0.6179 -1.0752
 4845TIP3    H236027   4.355   5.606  17.230 -0.1304  0.0122 -0.4475
 4846TIP3   OH236028   3.924   6.307   4.536  0.1085  0.3830 -0.2513
 4846TIP3    H136029   3.829   6.318   4.543  0.0502  0.9296 -1.7127
 4846TIP3    H236030   3.942   6.223   4.578 -1.5159 -1.5323 -3.1586
 4847TIP3   OH236031   0.824   2.745  16.168 -0.0653  0.0359 -0.3839
 4847TIP3    H136032   0.759   2.705  16.110 -0.2965 -2.3589  1.4721
 4847TIP3    H236033   0.860   2.671  16.218  0.6980  1.9430  1.9561
 4848TIP3   OH236034   5.728   3.381  16.673 -0.7546  0.0895  0.0324
 4848TIP3    H136035   5.657   3.446  16.672  0.6016  1.6098  0.1713
 4848TIP3    H236036   5.779   3.403  16.751  1.3949  0.7078 -1.4902
 4849TIP3   OH236037   1.492   5.227  14.339  0.1604 -0.1100  0.3940
 4849TIP3    H136038   1.545   5.181  14.403 -0.3594  0.6236  1.3675
 4849TIP3    H236039   1.540   5.308  14.321 -0.1445  0.1041  0.5422
 4850TIP3   OH236040   5.753   0.547  14.438 -0.3098  0.3462 -0.0045
 4850TIP3    H136041   5.825   0.489  14.462 -1.2128 -0.8156 -0.1042
 4850TIP3    H236042   5.699   0.553  14.517 -0.1072  1.2343  0.0748
 4851TIP3   OH236043   4.484   1.186   5.722 -0.0485  0.1468 -0.3183
 4851TIP3    H136044   4.520   1.187   5.634  1.2564  0.2067  0.2070
 4851TIP3    H236045   4.532   1.254   5.769  0.8819 -1.4095  1.0523
 4852TIP3   OH236046   4.778   5.218   5.865 -0.1784 -0.2638  0.4633
 4852TIP3    H136047   4.746   5.290   5.810  0.8912  1.5311  2.1210
 4852TIP3    H236048   4.873   5.224   5.860 -0.0677 -0.4828  1.9571
 4853TIP3   OH236049   0.424   1.907  14.844 -0.2111 -0.3323 -0.2043
 4853TIP3    H136050   0.498   1.965  14.859  1.1484 -1.0967 -3.5893
 4853TIP3    H236051   0.463   1.820  14.832 -1.7272 -0.9175 -1.0696
 4854TIP3   OH236052   4.066   2.000   4.807 -0.0502  0.8281  0.8620
 4854TIP3    H136053   4.031   2.084   4.776  1.7554  1.6935  1.1127
 4854TIP3    H236054   4.114   1.965   4.732  0.2377  0.6062  1.1506
 4855TIP3   OH236055   5.063   3.674  12.402  0.8921  0.1113 -0.2558
 4855TIP3    H136056   5.156   3.684  12.424  0.8845 -2.0678  0.9941
 4855TIP3    H236057   5.023   3.757  12.429  2.5057  1.1711 -1.0434
 4856TIP3   OH236058   0.891   2.107   1.933  0.0460 -0.3824 -0.2896
 4856TIP3    H136059   0.820   2.109   1.869 -0.6694  0.9634  0.5085
 4856TIP3    H236060   0.855   2.060   2.008  0.4728 -0.9173 -0.4182
 4857TIP3   OH236061   3.475   5.133  12.687 -0.2151 -0.2835  0.1565
 4857TIP3    H136062   3.408   5.194  12.656  0.4838  0.2333 -0.3505
 4857TIP3    H236063   3.431   5.083  12.756 -1.3692 -0.5282 -0.7428
 4858TIP3   OH236064   3.247   6.356  12.637 -0.2236 -0.2841  0.1836
 4858TIP3    H136065   3.270   6.366  12.729 -3.3809  0.3804  0.9864
 4858TIP3    H236066   3.318   6.305  12.599  2.0127  0.9610  2.5746
 4859TIP3   OH236067   5.797   0.257  11.741  0.0215  0.0772 -0.1233
 4859TIP3    H136068   5.736   0.313  11.693  1.1322  2.1683  0.8156
 4859TIP3    H236069   5.859   0.226  11.675 -0.5524  0.0410 -0.6433
 4860TIP3   OH236070   2.371   5.612   4.023  0.7170 -0.1436 -0.1537
 4860TIP3    H136071   2.357   5.628   3.930 -0.1425  0.4402  0.0715
 4860TIP3    H236072   2.466   5.616   4.034  0.7684  0.6945 -0.8413
 4861TIP3   OH236073   1.044   2.907   2.555 -0.3302  0.7169 -0.2980
 4861TIP3    H136074   1.072   2.997   2.541  0.9606  0.2418 -0.8473
 4861TIP3    H236075   1.111   2.870   2.612 -0.7988  0.0680 -0.1606
 4862TIP3   OH236076   2.363   3.072  12.329  0.3794 -0.0322 -0.2970
 4862TIP3    H136077   2.390   2.984  12.356  0.6662  0.3429  0.6471
 4862TIP3    H236078   2.363   3.123  12.410 -1.6446  0.3593 -0.5193
 4863TIP3   OH236079   2.821   6.524   6.162  0.3466  0.7129 -0.0803
 4863TIP3    H136080   2.865   6.588   6.218 -0.4505  0.7008  0.5731
 4863TIP3    H236081   2.745   6.571   6.127 -0.8128 -0.1614  1.2105
 4864TIP3   OH236082   2.210   3.557  16.575 -0.0971 -0.1404 -0.1762
 4864TIP3    H136083   2.149   3.494  16.614 -1.4683  0.8849 -0.6173
 4864TIP3    H236084   2.297   3.521  16.594 -0.8341 -2.1685 -0.4242
 4865TIP3   OH236085   0.667   4.362   6.373  0.5011 -0.2694 -0.3726
 4865TIP3    H136086   0.577   4.353   6.405  0.9304 -0.1766  0.8815
 4865TIP3    H236087   0.705   4.431   6.428  1.9911 -1.8311  0.6015
 4866TIP3   OH236088   5.932   6.418   2.704 -0.4669  0.0364 -0.2344
 4866TIP3    H136089   6.015   6.427   2.751  0.4199  1.4307 -1.9964
 4866TIP3    H236090   5.953   6.361   2.630 -1.1084  0.3015 -0.6209
 4867TIP3   OH236091   0.022   6.406  11.096  0.2861 -0.0764  0.0236
 4867TIP3    H136092  -0.045   6.470  11.120 -1.3091 -1.1681 -1.3636
 4867TIP3    H236093   0.097   6.426  11.152 -1.1597  1.2505  1.5147
 4868TIP3   OH236094   2.517   0.995  12.461  0.4131 -0.3331 -0.5433
 4868TIP3    H136095   2.439   0.984  12.515 -0.5312  0.8688 -1.6208
 4868TIP3    H236096   2.558   0.908  12.461  0.3615 -0.3935  1.9293
 4869TIP3   OH236097   0.743   5.735   6.246  0.1064 -0.3665  0.6801
 4869TIP3    H136098   0.802   5.710   6.175 -0.7291  0.6436 -0.3785
 4869TIP3    H236099   0.796   5.726   6.325  1.5409  0.0683 -0.2114
 4870TIP3   OH236100   1.936   4.004   4.017  0.3992  0.0373  0.1125
 4870TIP3    H136101   2.028   4.010   4.043  0.8548 -1.9430 -0.9683
 4870TIP3    H236102   1.938   3.985   3.923 -1.0752 -1.6302  0.3936
 4871TIP3   OH236103   4.377   0.515  14.253  0.0461 -0.5320 -0.2722
 4871TIP3    H136104   4.412   0.495  14.339 -0.1130 -0.4402 -0.1835
 4871TIP3    H236105   4.367   0.610  14.253  1.1788 -0.4110 -0.8327
 4872TIP3   OH236106   6.779   1.230   3.716  0.0960  0.5131 -0.0464
 4872TIP3    H136107   6.874   1.225   3.707  0.0771  0.7998 -0.4258
 4872TIP3    H236108   6.746   1.149   3.677  0.2456 -0.0909  1.0655
 4873TIP3   OH236109   2.419   3.128   5.833 -0.4381  0.2522 -0.6217
 4873TIP3    H136110   2.478   3.101   5.763  0.3553  0.8396 -0.1876
 4873TIP3    H236111   2.459   3.094   5.913 -0.2971  1.2664 -0.2508
 4874TIP3   OH236112   6.557   2.551   3.327 -0.2121 -0.1720  0.8307
 4874TIP3    H136113   6.496   2.481   3.348 -0.0512 -1.4625 -2.6077
 4874TIP3    H236114   6.501   2.624   3.301 -0.3568 -0.0110  1.6095
 4875TIP3   OH236115   4.206   1.382   2.908  0.4731  0.0562 -0.0319
 4875TIP3    H136116   4.243   1.304   2.866  1.9972  1.8666 -2.2257
 4875TIP3    H236117   4.117   1.388   2.873 -0.0508 -1.3206  1.0425
 4876TIP3   OH236118   6.363   0.563  13.068  0.2317 -0.7247 -0.3907
 4876TIP3    H136119   6.422   0.628  13.106 -1.5304  0.4737  0.4166
 4876TIP3    H236120   6.393   0.479  13.103  1.3477 -0.1100  0.1376
 4877TIP3   OH236121   1.351   2.041  14.495  0.3524  0.1347 -0.3725
 4877TIP3    H136122   1.320   2.049  14.405 -0.4686 -1.3602 -0.2242
 4877TIP3    H236123   1.444   2.019  14.486 -0.1342 -1.7914 -0.8821
 4878TIP3   OH236124   3.124   3.128  12.291 -0.0109 -0.0757 -0.4725
 4878TIP3    H136125   3.157   3.099  12.206  0.5277  1.3165 -0.7631
 4878TIP3    H236126   3.031   3.144  12.276  0.0452 -0.0145 -0.7565
 4879TIP3   OH236127   0.015   5.521   2.353 -0.3234 -0.2410  0.3990
 4879TIP3    H136128   0.090   5.575   2.329 -0.8014 -0.3225 -1.3476
 4879TIP3    H236129   0.049   5.431   2.351 -0.8937 -0.4359 -2.2467
 4880TIP3   OH236130   2.203   2.983  14.129 -0.0806 -0.3026  0.1798
 4880TIP3    H136131   2.181   3.063  14.080  0.5171  0.4520  1.1134
 4880TIP3    H236132   2.278   2.947  14.083  0.1854  0.1463  0.2615
 4881TIP3   OH236133   3.162   2.664  10.553 -0.0205 -0.3669 -0.2097
 4881TIP3    H136134   3.104   2.741  10.550 -1.6663 -1.6167 -1.7291
 4881TIP3    H236135   3.107   2.592  10.522  2.1694 -1.7317 -1.0256
 4882TIP3   OH236136   3.063   4.819   6.007  0.1046  0.0138 -0.3855
 4882TIP3    H136137   3.124   4.890   6.029  0.1606 -0.6276  1.6203
 4882TIP3    H236138   3.005   4.857   5.941  0.6728  1.6573  0.0350
 4883TIP3   OH236139   4.061   5.506  16.248  0.3188  0.3624  0.2116
 4883TIP3    H136140   3.975   5.508  16.290  0.2237  0.7186  0.0020
 4883TIP3    H236141   4.060   5.580  16.187  0.3978 -0.2465 -0.5361
 4884TIP3   OH236142   0.472   1.258   0.665 -0.2838  0.0851 -0.0514
 4884TIP3    H136143   0.538   1.280   0.599 -0.8790  1.0515 -0.3394
 4884TIP3    H236144   0.416   1.193   0.622  1.5828 -2.2044  0.8635
 4885TIP3   OH236145   1.670   0.416   3.383  0.0318 -0.0203  0.4729
 4885TIP3    H136146   1.713   0.424   3.298 -2.8581 -2.6546 -1.3958
 4885TIP3    H236147   1.713   0.480   3.439  3.4162  0.3531 -2.4004
 4886TIP3   OH236148   3.889   4.573  10.927  0.3150  0.0038 -0.5412
 4886TIP3    H136149   3.875   4.667  10.918  3.3804  0.4217 -1.5318
 4886TIP3    H236150   3.899   4.541  10.838 -1.8829 -1.4989 -0.2853
 4887TIP3   OH236151   5.681   1.067  13.158  0.0985 -0.8593 -0.1053
 4887TIP3    H136152   5.750   1.001  13.145 -0.9717 -1.8882 -0.6334
 4887TIP3    H236153   5.602   1.016  13.174 -0.4708  0.3258  0.9130
 4888TIP3   OH236154   5.622   6.266  13.347 -0.2978 -0.4293 -0.4123
 4888TIP3    H136155   5.536   6.267  13.389 -0.1911  3.4686 -0.1843
 4888TIP3    H236156   5.611   6.319  13.269  1.9657  0.2813 -0.2692
 4889TIP3   OH236157   4.679   5.374   0.398 -0.4078 -0.5049 -0.3440
 4889TIP3    H136158   4.594   5.413   0.376  0.7182  1.6085 -1.1354
 4889TIP3    H236159   4.660   5.310   0.466 -2.7017 -0.4197 -0.8759
 4890TIP3   OH236160   1.271   3.973   0.586 -0.5410 -0.6237 -0.2360
 4890TIP3    H136161   1.325   3.954   0.663 -2.3205 -1.0987  0.9296
 4890TIP3    H236162   1.327   3.948   0.511  1.5881  0.8107  0.8226
 4891TIP3   OH236163   4.853   1.295   0.331 -0.2046  0.2319 -0.8642
 4891TIP3    H136164   4.825   1.218   0.281 -0.1810  0.4914 -1.2801
 4891TIP3    H236165   4.782   1.358   0.320 -0.3054  0.2052 -0.3743
 4892TIP3   OH236166   4.939   3.108  15.029  0.1504  0.2293 -0.3394
 4892TIP3    H136167   4.868   3.172  15.029  0.9470  1.1439 -1.7375
 4892TIP3    H236168   4.957   3.093  14.936  2.8950  1.2498  0.0083
 4893TIP3   OH236169   0.882   0.621   4.704 -0.0448 -0.2908  0.8840
 4893TIP3    H136170   0.964   0.578   4.679  0.2893  0.6667  0.2545
 4893TIP3    H236171   0.832   0.625   4.622 -0.0150  0.5969  0.9001
 4894TIP3   OH236172   5.284   3.514  15.580  0.5081  0.6156  0.2761
 4894TIP3    H136173   5.290   3.557  15.665  1.2425 -1.5862  1.4045
 4894TIP3    H236174   5.210   3.453  15.589  1.5815 -0.7799 -0.0802
 4895TIP3   OH236175   6.475   6.215  12.721 -0.5486 -0.2498 -0.0212
 4895TIP3    H136176   6.505   6.166  12.797  0.9758  0.9381  0.1901
 4895TIP3    H236177   6.471   6.151  12.650 -0.2178 -1.0088  0.6468
 4896TIP3   OH236178   1.005   3.416   4.739 -0.3712  0.2423 -0.4572
 4896TIP3    H136179   0.965   3.502   4.729  1.3678  1.3314  1.4764
 4896TIP3    H236180   1.099   3.432   4.725  0.2995 -0.8221  2.3951
 4897TIP3   OH236181   1.921   3.628   3.112 -0.3724 -0.1244 -0.2718
 4897TIP3    H136182   2.014   3.622   3.088 -0.3434 -1.3767  0.1099
 4897TIP3    H236183   1.917   3.696   3.178 -0.1846  2.1572 -2.5507
 4898TIP3   OH236184   6.218   3.109   5.216  0.2548  0.6495 -0.1046
 4898TIP3    H136185   6.168   3.188   5.236 -1.3660  0.2927 -2.6000
 4898TIP3    H236186   6.152   3.041   5.204  1.5028 -0.5209 -0.4298
 4899TIP3   OH236187   5.945   3.036  12.830 -0.1407 -0.2775 -0.2486
 4899TIP3    H136188   5.882   3.103  12.803 -0.9901  0.1750  2.7501
 4899TIP3    H236189   5.897   2.954  12.820 -0.5276 -0.0969  0.1030
 4900TIP3   OH236190   6.310   4.144  15.344 -0.5467  0.0893  1.0844
 4900TIP3    H136191   6.276   4.054  15.347 -0.5624  0.0718  0.4131
 4900TIP3    H236192   6.233   4.199  15.345 -0.6725  0.0262 -1.7189
 4901TIP3   OH236193   4.817   3.274  14.252  0.4010  0.2581  0.1845
 4901TIP3    H136194   4.831   3.367  14.239 -0.2534  0.1524 -1.4444
 4901TIP3    H236195   4.723   3.265  14.265  0.3641 -0.2408 -0.3798
 4902TIP3   OH236196   2.107   4.881   5.825  0.1994  0.1248 -0.1465
 4902TIP3    H136197   2.015   4.874   5.851  0.0043 -1.6676 -1.2350
 4902TIP3    H236198   2.129   4.794   5.791  1.9934  0.8422 -0.8674
 4903TIP3   OH236199   5.007   5.487  14.694  0.4340 -0.5778  0.4402
 4903TIP3    H136200   4.951   5.436  14.635  1.0710 -0.4302 -0.2955
 4903TIP3    H236201   5.028   5.426  14.765  1.8634 -1.6248 -0.8404
 4904TIP3   OH236202   2.439   6.699  13.078 -0.0382 -0.2560 -0.2115
 4904TIP3    H136203   2.391   6.730  13.154 -0.8868  0.3311 -0.9718
 4904TIP3    H236204   2.415   6.606  13.071 -1.6667  0.1982 -1.0081
 4905TIP3   OH236205   0.680   1.086   1.278  0.2251  0.4096 -0.2045
 4905TIP3    H136206   0.666   1.180   1.272  0.3362  0.4646  0.3580
 4905TIP3    H236207   0.644   1.061   1.363 -2.2411 -0.5135 -1.4536
 4906TIP3   OH236208   4.605   4.788   2.332  0.3131 -0.4857  0.7334
 4906TIP3    H136209   4.697   4.780   2.305  0.2249 -2.7978  1.0201
 4906TIP3    H236210   4.555   4.771   2.252  0.1361  1.0997  0.5060
 4907TIP3   OH236211   5.197   4.780   4.373  0.2047  0.0831  0.2761
 4907TIP3    H136212   5.110   4.805   4.405  1.0387  1.0295  1.8915
 4907TIP3    H236213   5.223   4.852   4.316 -0.2494 -0.4223 -0.5821
 4908TIP3   OH236214   5.403   5.441  11.194  0.2797  0.2562 -0.0250
 4908TIP3    H136215   5.410   5.505  11.123 -1.1713  0.6549  0.1779
 4908TIP3    H236216   5.449   5.482  11.267 -1.2883  1.4200  0.3327
 4909TIP3   OH236217   5.832   0.980   2.587 -0.4379 -0.5092 -0.4460
 4909TIP3    H136218   5.843   0.906   2.527 -0.1462 -0.9774  0.1891
 4909TIP3    H236219   5.813   0.940   2.672  0.8924  0.1233  0.1540
 4910TIP3   OH236220   2.658   2.747   0.209 -0.0846  0.2821 -0.1207
 4910TIP3    H136221   2.652   2.666   0.158 -1.1175  0.9366 -1.0588
 4910TIP3    H236222   2.685   2.719   0.296  1.8671 -0.8463 -1.0676
 4911TIP3   OH236223   1.495   4.944   0.624  0.4004  0.0521 -0.1385
 4911TIP3    H136224   1.482   5.020   0.567  1.0192 -0.4547 -0.9660
 4911TIP3    H236225   1.523   4.874   0.565 -1.1627 -1.1104  0.4777
 4912TIP3   OH236226   3.937   5.840   2.270  0.2099 -0.2162 -0.0783
 4912TIP3    H136227   3.850   5.823   2.306  0.8705 -1.2220  1.0674
 4912TIP3    H236228   3.995   5.845   2.347  1.4771 -1.3957 -0.9387
 4913TIP3   OH236229   0.684   0.434   2.025 -0.1399  0.2452  0.0921
 4913TIP3    H136230   0.657   0.418   1.934  1.0056 -0.1975 -0.1831
 4913TIP3    H236231   0.720   0.522   2.024  0.1012  0.1462  0.0630
 4914TIP3   OH236232   2.678   1.637  16.945 -0.1204 -0.3775 -0.1716
 4914TIP3    H136233   2.639   1.566  16.894 -2.9298 -0.1288  1.5398
 4914TIP3    H236234   2.707   1.595  17.026  0.3677  0.0311 -0.1308
 4915TIP3   OH236235   1.122   3.116  14.289 -0.4713  0.2698  0.3858
 4915TIP3    H136236   1.190   3.183  14.296  0.4423 -0.6358  0.2036
 4915TIP3    H236237   1.069   3.144  14.215  1.5713 -0.6613 -1.4980
 4916TIP3   OH236238   3.032   1.901  17.045 -0.2671  0.1204  0.2472
 4916TIP3    H136239   2.997   1.989  17.053 -0.2771 -0.0203  2.1068
 4916TIP3    H236240   2.963   1.851  17.001 -0.5194  0.8910 -0.2334
 4917TIP3   OH236241   0.197   2.158   5.064 -0.1582 -0.1119 -0.0122
 4917TIP3    H136242   0.276   2.208   5.041  0.3768 -1.3027 -0.8067
 4917TIP3    H236243   0.177   2.108   4.985 -1.0427 -0.6905  0.5752
 4918TIP3   OH236244   5.663   2.232   0.938  0.0837  0.3184  0.2275
 4918TIP3    H136245   5.640   2.260   1.027  1.5429  2.0603  0.0718
 4918TIP3    H236246   5.589   2.260   0.884 -1.1299 -1.3502  0.9546
 4919TIP3   OH236247   5.186   0.131   5.992 -0.0219 -0.2739  0.1754
 4919TIP3    H136248   5.095   0.129   6.022  0.6087  1.1701  2.2364
 4919TIP3    H236249   5.214   0.221   6.004  1.5365 -0.5747 -0.9889
 4920TIP3   OH236250   2.152   3.834  16.463 -0.3354 -0.0625  0.1901
 4920TIP3    H136251   2.176   3.764  16.523 -0.6932  0.2588  0.7125
 4920TIP3    H236252   2.219   3.901  16.475  1.2772 -1.2579 -1.9447
 4921TIP3   OH236253   5.739   4.385  11.377  0.5217  0.0824 -0.7698
 4921TIP3    H136254   5.727   4.293  11.352  3.6421 -0.0141 -2.1373
 4921TIP3    H236255   5.749   4.383  11.472 -0.2397 -0.8777 -0.7000
 4922TIP3   OH236256   2.720   5.115  15.926 -0.1096  0.0964 -0.2112
 4922TIP3    H136257   2.764   5.031  15.909 -2.6121 -1.1376 -0.9168
 4922TIP3    H236258   2.735   5.132  16.019  2.3669  0.0573 -0.5682
 4923TIP3   OH236259   4.743   4.222  16.279 -0.1957  0.4772  0.2260
 4923TIP3    H136260   4.647   4.225  16.275 -0.1761  3.4773  0.7996
 4923TIP3    H236261   4.762   4.188  16.366 -0.7678  1.3559  0.7064
 4924TIP3   OH236262   6.339   4.852  14.997  0.3545  0.0512 -0.4195
 4924TIP3    H136263   6.337   4.922  14.931  1.5112 -0.0458 -0.5760
 4924TIP3    H236264   6.393   4.888  15.068 -1.2985  0.3484  0.6991
 4925TIP3   OH236265   4.663   3.651  10.870  0.1400 -0.0895 -0.5704
 4925TIP3    H136266   4.575   3.680  10.845  0.5281  2.6378  1.0511
 4925TIP3    H236267   4.704   3.729  10.907  2.0429 -2.2001  1.9101
 4926TIP3   OH236268   2.413   2.661   2.143  0.1208  0.5969 -0.4291
 4926TIP3    H136269   2.497   2.706   2.138  0.7494 -0.6613 -1.4390
 4926TIP3    H236270   2.431   2.573   2.110 -0.8141 -0.7698  2.4818
 4927TIP3   OH236271   3.449   6.458  16.886 -0.1671 -0.8452 -0.5030
 4927TIP3    H136272   3.468   6.364  16.889 -2.0848 -1.2578 -0.7109
 4927TIP3    H236273   3.508   6.492  16.818 -0.7114 -2.1998 -1.6683
 4928TIP3   OH236274   1.446   4.308  17.169  0.4327 -0.2359  0.0701
 4928TIP3    H136275   1.540   4.311  17.183  0.4438  1.0381 -0.1954
 4928TIP3    H236276   1.410   4.367  17.235 -0.1691 -0.6251  0.0949
 4929TIP3   OH236277   6.696   5.092  11.944  0.6756  0.3993  0.1348
 4929TIP3    H136278   6.777   5.074  11.895 -0.6762 -1.7284 -1.3780
 4929TIP3    H236279   6.628   5.046  11.895 -1.0227 -0.2268  2.9925
 4930TIP3   OH236280   0.899   3.478   0.222  0.1609  0.0113  0.3121
 4930TIP3    H136281   0.892   3.563   0.179  0.4320 -0.2094 -0.1869
 4930TIP3    H236282   0.952   3.426   0.161  1.3974  0.0002  1.3893
 4931TIP3   OH236283   0.730   4.542  11.690 -0.7950 -0.4376  0.1814
 4931TIP3    H136284   0.677   4.583  11.621 -1.0971 -0.1866  0.5572
 4931TIP3    H236285   0.666   4.500  11.747 -0.7295  1.3548  1.6122
 4932TIP3   OH236286   2.486   6.764   4.753 -0.0702  0.6014  0.7451
 4932TIP3    H136287   2.545   6.692   4.775 -0.0560  0.1228 -0.8307
 4932TIP3    H236288   2.472   6.809   4.836  2.0626  0.3822  1.2681
 4933TIP3   OH236289   5.150   3.179  15.177  0.4699  0.3902 -0.8934
 4933TIP3    H136290   5.099   3.252  15.212  0.5492  0.3616 -0.7112
 4933TIP3    H236291   5.084   3.115  15.150  0.4239 -0.3583  0.9040
 4934TIP3   OH236292   4.951   3.806  10.475  0.1536  0.2410  0.6704
 4934TIP3    H136293   5.041   3.775  10.475  0.4964  1.2295  0.8554
 4934TIP3    H236294   4.951   3.882  10.532 -0.7108  0.5078  0.3290
 4935TIP3   OH236295   3.512   6.654  13.714  0.3525 -0.5506 -0.1983
 4935TIP3    H136296   3.578   6.722  13.730 -0.6335  0.3647 -0.0313
 4935TIP3    H236297   3.474   6.678  13.629 -1.2755  0.1528  0.7186
 4936TIP3   OH236298   4.188   0.195   5.406  0.5852  0.0076 -0.2264
 4936TIP3    H136299   4.282   0.193   5.390  0.8725  0.6133  1.2253
 4936TIP3    H236300   4.161   0.283   5.379  0.6440  0.2129  0.3706
 4937TIP3   OH236301   0.950   2.194  12.728 -0.2565 -0.1424 -0.1327
 4937TIP3    H136302   0.978   2.278  12.692  0.4512 -0.6640 -0.8408
 4937TIP3    H236303   1.031   2.143  12.736 -0.6075 -0.5658  0.8042
 4938TIP3   OH236304   1.879   3.577  16.680  0.4343  0.0761  0.2130
 4938TIP3    H136305   1.891   3.660  16.727  1.2312 -0.0131  0.1889
 4938TIP3    H236306   1.943   3.581  16.609 -1.5355  0.6940 -1.5834
 4939TIP3   OH236307   4.571   5.386   1.128  0.2514 -0.3627 -0.4752
 4939TIP3    H136308   4.660   5.381   1.094  1.0247 -0.1638  1.4325
 4939TIP3    H236309   4.560   5.305   1.177 -0.2731  0.0435  0.0851
 4940TIP3   OH236310   2.605   3.965   2.223 -0.2186  0.4341  0.1931
 4940TIP3    H136311   2.667   3.893   2.221  0.8129  1.2563  1.5950
 4940TIP3    H236312   2.637   4.028   2.159  0.9303  1.2533  1.5320
 4941TIP3   OH236313   2.899   5.713  11.901  0.2674 -0.1461  0.2396
 4941TIP3    H136314   2.987   5.722  11.865 -0.7941  1.6042 -2.0725
 4941TIP3    H236315   2.851   5.662  11.836 -0.6786 -0.2614  1.0119
 4942TIP3   OH236316   4.588   4.816  12.167 -0.0035  0.1819  0.4922
 4942TIP3    H136317   4.637   4.734  12.179 -0.5375 -0.5216 -1.9041
 4942TIP3    H236318   4.509   4.790  12.120 -0.2676  2.0530 -0.1398
 4943TIP3   OH236319   4.675   5.128  13.462 -0.0620  0.7548  0.3446
 4943TIP3    H136320   4.661   5.058  13.525  1.4519  0.2645  0.1707
 4943TIP3    H236321   4.728   5.193  13.509 -0.2036  1.0893  0.0499
 4944TIP3   OH236322   4.471   0.946  11.024 -0.6576  0.1214 -0.3083
 4944TIP3    H136323   4.485   0.990  11.108  0.4757 -0.9170  0.0629
 4944TIP3    H236324   4.395   0.990  10.986  0.2277  2.1541  0.2074
 4945TIP3   OH236325   1.405   0.700  13.769  0.0471  0.4176 -0.4732
 4945TIP3    H136326   1.312   0.686  13.751  0.2888 -0.1912 -1.3115
 4945TIP3    H236327   1.431   0.769  13.709 -0.0586  1.1921  0.3673
 4946TIP3   OH236328   0.962   2.334  13.575 -0.5160 -0.6417 -0.1337
 4946TIP3    H136329   0.891   2.338  13.640 -1.7548  1.9419 -1.5541
 4946TIP3    H236330   0.927   2.280  13.504 -0.1001 -1.4319  0.2600
 4947TIP3   OH236331   4.788   3.602  16.443  0.3764  0.2102  0.3025
 4947TIP3    H136332   4.696   3.603  16.417  0.6456  0.1334 -0.6396
 4947TIP3    H236333   4.799   3.682  16.496 -0.5174 -0.4014  1.4345
 4948TIP3   OH236334   1.961   0.149  11.502 -0.2749 -0.4274 -0.1267
 4948TIP3    H136335   1.986   0.179  11.589  1.8402 -0.0525 -0.8372
 4948TIP3    H236336   1.874   0.186  11.487  0.4555  1.6999  0.7704
 4949TIP3   OH236337   6.457   2.045  16.131 -1.0805  0.2410 -0.4598
 4949TIP3    H136338   6.482   2.110  16.066 -0.5437  0.6768  0.1654
 4949TIP3    H236339   6.446   1.964  16.081 -1.3249  0.7164 -1.1840
 4950TIP3   OH236340   4.739   3.304  12.378 -0.0005  0.2329 -0.0359
 4950TIP3    H136341   4.832   3.285  12.392  0.3526 -0.7224 -3.1877
 4950TIP3    H236342   4.736   3.397  12.357  0.5355 -0.1699 -1.9740
 4951TIP3   OH236343   1.903   2.331  16.281  0.7396 -0.3777 -0.7535
 4951TIP3    H136344   1.826   2.277  16.299  1.8801 -1.2659  1.6657
 4951TIP3    H236345   1.928   2.366  16.367  1.8367  1.5279 -1.8284
 4952TIP3   OH236346   1.490   1.085  14.698  0.0587 -0.2924  0.5248
 4952TIP3    H136347   1.536   1.002  14.708  0.0409 -0.3088  0.4698
 4952TIP3    H236348   1.423   1.068  14.632  0.2740 -0.1432  0.2650
 4953TIP3   OH236349   2.790   5.964  11.980  0.2121  0.3718  0.1752
 4953TIP3    H136350   2.844   5.891  11.950 -1.0755 -0.3992 -0.3192
 4953TIP3    H236351   2.733   5.926  12.046 -1.3682  0.6007 -1.0135
 4954TIP3   OH236352   3.511   0.795   2.653 -0.1852 -0.0896  0.3742
 4954TIP3    H136353   3.481   0.723   2.708  0.5354 -1.0727 -0.5125
 4954TIP3    H236354   3.480   0.773   2.566  2.1862 -0.6011 -0.3724
 4955TIP3   OH236355   0.088   0.549  15.157  0.3635 -0.3901 -0.2416
 4955TIP3    H136356   0.111   0.624  15.211 -0.4948  0.7375 -1.3996
 4955TIP3    H236357  -0.003   0.530  15.179  0.7898 -1.5523  0.5612
 4956TIP3   OH236358   0.036   1.524   0.321  0.3474 -0.0252 -0.0280
 4956TIP3    H136359   0.063   1.496   0.408  0.4526 -0.9227 -0.3460
 4956TIP3    H236360  -0.007   1.447   0.283 -0.9251  0.7776 -0.2617
 4957TIP3   OH236361   4.926   5.013  15.500 -0.4787 -0.3269 -0.2296
 4957TIP3    H136362   4.889   5.011  15.412 -1.5530  1.3865  0.1424
 4957TIP3    H236363   4.976   5.095  15.503  1.7930 -1.6566 -0.0831
 4958TIP3   OH236364   1.707   2.494  15.052 -0.4183  0.3119 -0.2768
 4958TIP3    H136365   1.703   2.398  15.050 -1.0726  0.2958  1.2758
 4958TIP3    H236366   1.716   2.519  14.960 -2.9739 -1.1351 -0.9686
 4959TIP3   OH236367   4.640   6.046   5.287  0.0770 -0.0436  0.5968
 4959TIP3    H136368   4.730   6.079   5.297  1.0630 -2.1003 -1.0222
 4959TIP3    H236369   4.637   6.016   5.196 -2.0407 -0.6777  0.8704
 4960TIP3   OH236370   3.300   5.447  12.150  0.1480  0.2898  0.0849
 4960TIP3    H136371   3.223   5.457  12.094 -1.5227  0.6995  2.3653
 4960TIP3    H236372   3.317   5.353  12.152  0.5179  0.3080 -1.4423
 4961TIP3   OH236373   6.273   6.311   3.511  0.1123 -0.6743 -0.1546
 4961TIP3    H136374   6.205   6.323   3.446  0.3897 -0.8016 -0.4672
 4961TIP3    H236375   6.345   6.367   3.482  0.0105 -0.2600  0.3671
 4962TIP3   OH236376   2.141   6.629   3.206  0.3388  0.9021  0.4618
 4962TIP3    H136377   2.160   6.614   3.113 -0.3011  0.3251  0.4207
 4962TIP3    H236378   2.223   6.663   3.242  1.1041 -0.4202  0.0267
 4963TIP3   OH236379   0.337   2.544   4.863 -0.0598 -0.3457 -0.0499
 4963TIP3    H136380   0.299   2.581   4.943 -0.9718 -1.4316  0.0313
 4963TIP3    H236381   0.408   2.488   4.894 -0.3122 -0.6436 -0.0084
 4964TIP3   OH236382   4.319   5.126  14.098  0.0550 -0.4975 -0.1645
 4964TIP3    H136383   4.271   5.136  14.180 -0.7501 -0.1497 -0.6727
 4964TIP3    H236384   4.408   5.156  14.118 -0.3360  0.2933  0.3748
 4965TIP3   OH236385   1.992   2.684   5.631 -0.1768 -0.3816 -0.0019
 4965TIP3    H136386   2.001   2.630   5.710 -0.3250 -0.2021  0.1402
 4965TIP3    H236387   1.966   2.770   5.664  0.6583 -0.0579 -0.1809
 4966TIP3   OH236388   6.723   3.259   4.660  0.4517 -0.1599 -0.5316
 4966TIP3    H136389   6.664   3.245   4.734  0.9431 -2.1218 -0.4810
 4966TIP3    H236390   6.809   3.270   4.700  0.4985  0.2520 -0.7410
 4967TIP3   OH236391   4.919   4.872   1.038  0.0875 -0.3026  0.2505
 4967TIP3    H136392   4.922   4.956   0.993 -0.2945  1.0632  2.6891
 4967TIP3    H236393   4.993   4.823   1.004  0.3610  1.0537 -1.1320
 4968TIP3   OH236394   6.379   2.330   0.196  0.0319 -0.0222  0.2054
 4968TIP3    H136395   6.295   2.287   0.184  0.7438 -0.9484 -1.6272
 4968TIP3    H236396   6.437   2.288   0.132  2.0167  0.2550  1.7787
 4969TIP3   OH236397   1.631   5.086   0.829  0.4140  0.2187 -0.7291
 4969TIP3    H136398   1.594   5.006   0.791  0.2997  1.1891 -2.7255
 4969TIP3    H236399   1.602   5.084   0.920  1.4737 -2.6396 -0.3964
 4970TIP3   OH236400   6.529   1.009   5.570  0.4976 -0.0982  0.0624
 4970TIP3    H136401   6.613   0.965   5.584  0.6057 -0.0309 -0.3779
 4970TIP3    H236402   6.500   0.979   5.484 -0.0418 -0.2997  0.3117
 4971TIP3   OH236403   5.267   0.710   1.370 -0.2421  0.0784 -0.3458
 4971TIP3    H136404   5.193   0.770   1.380 -0.8620 -0.4253 -1.8864
 4971TIP3    H236405   5.297   0.723   1.280  0.7515 -0.6403 -0.1234
 4972TIP3   OH236406   2.801   0.818   3.111  0.2749  0.1711  0.6669
 4972TIP3    H136407   2.892   0.789   3.121  1.3255  3.2321  0.6535
 4972TIP3    H236408   2.797   0.899   3.162 -2.1206  0.7508 -0.3913
 4973TIP3   OH236409   1.892   1.032   0.602 -0.2679  0.1122  0.4541
 4973TIP3    H136410   1.867   1.123   0.618  0.3850  0.3986 -0.1537
 4973TIP3    H236411   1.970   1.018   0.656 -0.1034  0.0438  0.1978
 4974TIP3   OH236412   5.423   3.629   6.448 -0.0546 -0.8969 -0.0727
 4974TIP3    H136413   5.495   3.613   6.388  0.2134 -1.4879  0.3971
 4974TIP3    H236414   5.445   3.711   6.492 -1.5051  0.9178 -2.6070
 4975TIP3   OH236415   3.469   4.637   4.225  0.0941 -0.0689 -0.0191
 4975TIP3    H136416   3.551   4.625   4.273  0.5213 -1.9096 -1.1566
 4975TIP3    H236417   3.406   4.579   4.268  0.0234 -0.4352 -0.6077
 4976TIP3   OH236418   1.970   5.652   3.141 -0.2739  0.4378  0.1473
 4976TIP3    H136419   2.011   5.709   3.076 -0.1655  0.9207  0.6369
 4976TIP3    H236420   1.891   5.698   3.167 -0.9939 -0.3597 -0.5863
 4977TIP3   OH236421   0.216   0.986  12.352  0.2914  0.3524  0.1082
 4977TIP3    H136422   0.281   1.036  12.402  1.4102 -0.1792 -0.7813
 4977TIP3    H236423   0.172   1.051  12.298 -0.4897  0.8398  1.3081
 4978TIP3   OH236424   0.577   2.873  13.809 -0.1927  0.2890 -0.1598
 4978TIP3    H136425   0.673   2.867  13.806 -0.3138 -2.5607 -0.0041
 4978TIP3    H236426   0.555   2.940  13.744  1.8426  0.2964 -0.8939
 4979TIP3   OH236427   5.124   4.651  11.137  0.7055 -0.1111 -0.4156
 4979TIP3    H136428   5.090   4.698  11.061  0.0228  1.8280  1.0502
 4979TIP3    H236429   5.193   4.707  11.172 -1.1205  0.6240  2.2309
 4980TIP3   OH236430   0.764   3.377   2.780 -0.9140 -0.5296 -0.0833
 4980TIP3    H136431   0.772   3.446   2.715  0.6111 -0.3630  0.2623
 4980TIP3    H236432   0.798   3.415   2.861 -0.0666 -1.6839  0.1136
 4981TIP3   OH236433   0.868   0.246   2.284 -0.0512 -0.3155  0.0072
 4981TIP3    H136434   0.901   0.332   2.260 -0.5434 -0.8355 -2.7238
 4981TIP3    H236435   0.932   0.184   2.249 -0.1926 -1.0775  1.0812
 4982TIP3   OH236436   4.691   5.940  12.140  0.3729  0.2746 -0.5303
 4982TIP3    H136437   4.670   5.847  12.132 -1.8627  0.7960 -0.8930
 4982TIP3    H236438   4.759   5.943  12.208 -0.8142 -1.4576  0.7751
 4983TIP3   OH236439   3.320   5.726  12.149 -0.2484 -0.4215  0.3773
 4983TIP3    H136440   3.336   5.633  12.163  0.8362 -0.1531  0.9605
 4983TIP3    H236441   3.403   5.761  12.118 -1.0756  0.0724 -1.3684
 4984TIP3   OH236442   1.808   2.384   1.371 -0.2589 -0.6842  0.1314
 4984TIP3    H136443   1.843   2.471   1.393  0.6436 -1.2017  0.7854
 4984TIP3    H236444   1.731   2.374   1.426 -2.1661  0.9432 -2.1470
 4985TIP3   OH236445   3.162   4.270   2.479  0.0014 -0.3202  0.0600
 4985TIP3    H136446   3.225   4.305   2.416 -0.4401 -0.2782 -0.3613
 4985TIP3    H236447   3.206   4.195   2.518  0.5020  0.0029  0.1242
 4986TIP3   OH236448   0.018   5.820   0.480  0.1616  0.3463  0.4540
 4986TIP3    H136449   0.048   5.892   0.535  1.3451  1.0655 -1.1015
 4986TIP3    H236450   0.029   5.851   0.391 -1.3657 -0.9552 -0.2225
 4987TIP3   OH236451   1.696   4.708  12.404 -0.2504  0.4550  0.0448
 4987TIP3    H136452   1.766   4.643  12.396  0.7289  1.3095  1.4704
 4987TIP3    H236453   1.706   4.764  12.328  1.7212  1.6039  1.1106
 4988TIP3   OH236454   6.001   0.189   1.898  0.3388 -0.1757  0.0621
 4988TIP3    H136455   6.024   0.170   1.807  1.1936 -2.8976  0.7863
 4988TIP3    H236456   5.911   0.221   1.894 -0.4289 -2.3767 -1.5597
 4989TIP3   OH236457   5.035   4.162  16.845 -0.4643 -0.0492  0.0775
 4989TIP3    H136458   5.036   4.234  16.908  0.0307 -0.4015  0.4765
 4989TIP3    H236459   4.973   4.099  16.881 -0.2973 -0.1805  0.1353
 4990TIP3   OH236460   5.665   6.709  15.795 -0.5263  0.2348  0.0845
 4990TIP3    H136461   5.589   6.760  15.770  0.1499  0.9522 -0.5123
 4990TIP3    H236462   5.656   6.698  15.890 -1.8718 -0.5205 -0.1198
 4991TIP3   OH236463   3.465   0.524   4.187 -0.4885 -0.3636 -0.4712
 4991TIP3    H136464   3.402   0.473   4.239  0.0077 -0.8866 -0.3856
 4991TIP3    H236465   3.480   0.470   4.109  0.9197 -0.8818  0.1580
 4992TIP3   OH236466   5.856   4.468  11.942  0.4444  0.3515 -0.3246
 4992TIP3    H136467   5.948   4.440  11.944  0.8552  1.6158 -0.8610
 4992TIP3    H236468   5.807   4.392  11.973  1.6753 -0.3337 -0.0193
 4993TIP3   OH236469   5.553   6.296   0.466  0.1855 -0.4839 -0.1881
 4993TIP3    H136470   5.529   6.384   0.436  1.2495  0.0438  0.4229
 4993TIP3    H236471   5.479   6.267   0.518  0.4426  0.7098  0.8854
 4994TIP3   OH236472   3.688   6.543   5.390  0.7658  0.1472 -0.5750
 4994TIP3    H136473   3.695   6.500   5.475 -0.7049  0.0215 -0.4984
 4994TIP3    H236474   3.776   6.542   5.355  1.4190  0.2948  1.0017
 4995TIP3   OH236475   0.841   0.880   1.424  0.7703  0.2504  0.7356
 4995TIP3    H136476   0.849   0.853   1.332 -2.5313  2.4456 -0.2972
 4995TIP3    H236477   0.752   0.854   1.448  1.3001  0.5381  3.0465
 4996TIP3   OH236478   0.473   1.264  10.351 -0.7204 -0.3253  0.1790
 4996TIP3    H136479   0.499   1.302  10.435  0.8685  0.5088 -0.6612
 4996TIP3    H236480   0.516   1.319  10.285 -1.8880 -1.0058 -1.1845
 4997TIP3   OH236481   5.857   1.644  13.409  0.5645 -0.3196 -0.9404
 4997TIP3    H136482   5.927   1.708  13.394  0.2748  0.4204  0.7831
 4997TIP3    H236483   5.903   1.561  13.419  1.2212  0.1748  0.2633
 4998TIP3   OH236484   4.267   6.477  12.693 -0.4069  0.0489 -0.8309
 4998TIP3    H136485   4.281   6.437  12.607  0.5177 -0.9426 -0.2328
 4998TIP3    H236486   4.335   6.440  12.748  0.4066  2.3686 -0.2116
 4999TIP3   OH236487   3.926   3.452   1.621 -0.2132 -0.0641 -0.2248
 4999TIP3    H136488   3.978   3.414   1.549  0.8854  1.0693 -0.0476
 4999TIP3    H236489   3.836   3.445   1.591  0.2881  1.3247 -2.2105
 5000TIP3   OH236490   6.590   1.186   4.138  0.2894 -0.2690  0.0999
 5000TIP3    H136491   6.564   1.100   4.170 -0.4444 -0.0681  0.0678
 5000TIP3    H236492   6.545   1.195   4.054  1.9328 -0.6533 -0.8459
 5001TIP3   OH236493   0.499   5.294  12.347 -0.1258 -0.9197 -0.1014
 5001TIP3    H136494   0.556   5.233  12.301  1.1063 -0.1840  0.4077
 5001TIP3    H236495   0.560   5.355  12.389 -1.3145  0.4413 -0.3210
 5002TIP3   OH236496   2.635   6.098   1.480  0.4892  0.3904 -0.2416
 5002TIP3    H136497   2.562   6.156   1.462 -0.0672 -0.0212  0.6504
 5002TIP3    H236498   2.712   6.155   1.475  0.3049  0.4607 -2.9733
 5003TIP3   OH236499   1.885   0.655  16.031  0.2821  0.0032 -0.2779
 5003TIP3    H136500   1.903   0.615  16.116 -1.1396 -0.1678 -0.0388
 5003TIP3    H236501   1.894   0.583  15.969 -1.5767 -0.5475  0.0738
 5004TIP3   OH236502   5.322   5.891  11.898  0.2143  0.0045 -0.1907
 5004TIP3    H136503   5.368   5.809  11.916 -0.2255 -0.4208 -0.9553
 5004TIP3    H236504   5.229   5.867  11.902  0.0789  0.5962  0.1761
 5005TIP3   OH236505   5.567   1.832  15.568  0.0154  0.1458 -0.0694
 5005TIP3    H136506   5.530   1.766  15.627 -1.3829 -0.2564 -1.3678
 5005TIP3    H236507   5.614   1.892  15.626 -2.7996  0.7746  1.6929
 5006TIP3   OH236508   2.562   1.671   4.766 -0.1942 -0.5558 -0.0326
 5006TIP3    H136509   2.494   1.634   4.823  0.3843 -0.1170  0.9478
 5006TIP3    H236510   2.644   1.644   4.806  0.2210 -0.4573 -0.8064
 5007TIP3   OH236511   3.626   2.152   5.368  0.2164 -0.2162 -0.0213
 5007TIP3    H136512   3.670   2.075   5.332 -0.5861 -0.9899  0.6110
 5007TIP3    H236513   3.665   2.163   5.455  0.7506  0.4528 -0.3442
 5008TIP3   OH236514   3.643   2.671   3.453 -0.6364 -0.3042  0.0625
 5008TIP3    H136515   3.638   2.591   3.400 -0.7811 -1.1471  1.3216
 5008TIP3    H236516   3.724   2.713   3.425 -1.1031 -0.3339 -1.3784
 5009TIP3   OH236517   4.932   4.129   1.144  0.1911  0.5665  0.2363
 5009TIP3    H136518   5.013   4.162   1.106 -0.2244  1.5050  0.1588
 5009TIP3    H236519   4.863   4.160   1.085 -0.6224  3.3356  2.5299
 5010TIP3   OH236520   6.721   2.576   3.112  0.6745  0.1308  0.0535
 5010TIP3    H136521   6.644   2.588   3.057  0.0939 -2.7890  0.1507
 5010TIP3    H236522   6.686   2.562   3.200  1.3659  0.1183  0.3354
 5011TIP3   OH236523   0.609   3.259   0.694 -0.1799  1.0205  0.7430
 5011TIP3    H136524   0.603   3.278   0.601 -0.3364  0.5615  0.6555
 5011TIP3    H236525   0.611   3.163   0.699  0.4991  1.0480  1.1686
 5012TIP3   OH236526   1.124   1.810  13.722  0.1735 -0.2726 -0.1861
 5012TIP3    H136527   1.081   1.792  13.639 -1.0452  1.1475  0.1118
 5012TIP3    H236528   1.110   1.904  13.736  0.1697 -0.5420  1.7191
 5013TIP3   OH236529   4.014   6.820   2.355 -0.1904  0.9879  0.0617
 5013TIP3    H136530   4.092   6.764   2.363  1.0274  2.8024  1.1422
 5013TIP3    H236531   3.975   6.820   2.443 -2.8092 -1.7964 -0.9849
 5014TIP3   OH236532   1.883   0.074   0.329  0.2328 -0.2404 -0.1607
 5014TIP3    H136533   1.932   0.005   0.284  0.4377  0.1118 -0.4812
 5014TIP3    H236534   1.886   0.148   0.269  2.6948  1.0836  1.5268
 5015TIP3   OH236535   2.812   1.446  10.562  0.4122 -0.2457  0.1919
 5015TIP3    H136536   2.838   1.366  10.607  2.0468  0.1964  0.0662
 5015TIP3    H236537   2.848   1.437  10.474 -2.7948 -1.1193 -1.1173
 5016TIP3   OH236538   6.402   1.328  13.126 -0.3380  0.5144 -0.0394
 5016TIP3    H136539   6.346   1.284  13.190 -1.9450  1.8720 -0.4936
 5016TIP3    H236540   6.481   1.274  13.124 -1.8709 -1.8310  0.1153
 5017TIP3   OH236541   2.881   0.280  17.265 -0.3125 -0.4646 -0.4680
 5017TIP3    H136542   2.874   0.354  17.326 -1.7926  0.1057 -1.3039
 5017TIP3    H236543   2.927   0.213  17.315 -1.7181 -0.1067  1.4031
 5018TIP3   OH236544   5.200   1.855   0.340  0.0536  0.1114 -0.2700
 5018TIP3    H136545   5.227   1.768   0.310  1.1520  0.0604  0.8546
 5018TIP3    H236546   5.202   1.850   0.435 -1.8948  0.7557 -0.1677
 5019TIP3   OH236547   4.106   6.113  12.118 -0.5461  0.0939 -0.0980
 5019TIP3    H136548   4.195   6.115  12.084 -0.5996 -0.8172 -0.3051
 5019TIP3    H236549   4.052   6.091  12.042 -0.6670 -1.8958  0.5321
 5020TIP3   OH236550   4.394   4.681  12.042  0.1090 -0.1566  0.1021
 5020TIP3    H136551   4.336   4.691  11.966 -0.1799 -1.1910  0.1751
 5020TIP3    H236552   4.380   4.590  12.071 -0.4454  0.4946  1.9270
 5021TIP3   OH236553   3.096   1.305   6.235  0.3942  0.4415 -0.0452
 5021TIP3    H136554   3.068   1.396   6.246  1.6925  0.7739  0.6440
 5021TIP3    H236555   3.020   1.253   6.261 -1.0270  1.3207 -2.2994
 5022TIP3   OH236556   5.467   4.455   1.041  0.5939  0.4900  0.1081
 5022TIP3    H136557   5.458   4.389   0.972 -4.9257  0.1725  0.9118
 5022TIP3    H236558   5.463   4.538   0.994 -0.3753  0.2694 -0.2030
 5023TIP3   OH236559   1.369   2.106  12.771 -0.1388 -0.2825 -0.0798
 5023TIP3    H136560   1.389   2.174  12.835  0.9929 -0.4807 -0.2199
 5023TIP3    H236561   1.329   2.036  12.823 -1.0905  0.3881  0.0965
 5024TIP3   OH236562   4.319   1.080  12.801 -0.2760 -0.3938 -0.0237
 5024TIP3    H136563   4.256   1.036  12.744 -1.6473 -0.3377  1.4013
 5024TIP3    H236564   4.335   1.016  12.871 -0.6401  0.5373  0.9199
 5025TIP3   OH236565   4.788   1.394   1.017  0.4839  0.3413  0.5884
 5025TIP3    H136566   4.745   1.406   1.101  1.8473  0.8017  1.2340
 5025TIP3    H236567   4.847   1.319   1.030 -0.9994 -1.0963 -0.6480
 5026TIP3   OH236568   0.200   1.669  15.601  0.0675 -0.0760  0.0311
 5026TIP3    H136569   0.201   1.587  15.552  2.4234 -0.2480  0.3369
 5026TIP3    H236570   0.169   1.644  15.688  0.6693 -0.6331  0.0891
 5027TIP3   OH236571   3.135   5.332  16.868 -0.0503 -0.3765 -0.5255
 5027TIP3    H136572   3.203   5.265  16.858 -0.8983 -1.7726  2.6044
 5027TIP3    H236573   3.171   5.394  16.931 -1.7068 -1.2192  1.2990
 5028TIP3   OH236574   6.709   5.119  12.389 -0.5200  0.4921 -0.2332
 5028TIP3    H136575   6.682   5.150  12.302  0.2040  1.5830 -0.0749
 5028TIP3    H236576   6.651   5.045  12.407  0.0859 -0.4736 -2.1401
 5029TIP3   OH236577   1.874   6.343  14.815 -0.5669 -0.3703  0.0434
 5029TIP3    H136578   1.962   6.362  14.781  0.1779 -1.4587  1.3019
 5029TIP3    H236579   1.840   6.428  14.842 -0.2787  0.1893 -1.3360
 5030TIP3   OH236580   2.641   5.422   2.866  1.0952 -0.5212  0.1733
 5030TIP3    H136581   2.585   5.483   2.818 -1.0058 -1.5968  1.1976
 5030TIP3    H236582   2.714   5.404   2.806  0.2343  0.6961 -1.2771
 5031TIP3   OH236583   5.437   2.840  12.474 -0.2423  0.3447 -0.0980
 5031TIP3    H136584   5.461   2.900  12.403 -0.7153  1.6021  0.7878
 5031TIP3    H236585   5.459   2.753  12.440 -0.5109  0.9202 -1.8078
 5032TIP3   OH236586   5.179   4.706  12.745 -0.1508 -0.1460 -0.3119
 5032TIP3    H136587   5.154   4.680  12.834  0.4022 -0.1199 -0.1544
 5032TIP3    H236588   5.188   4.801  12.749 -0.3805 -0.1151 -0.4640
 5033TIP3   OH236589   6.387   4.412   4.239  0.0834  0.1806 -0.6103
 5033TIP3    H136590   6.460   4.392   4.297  0.1602 -1.1888 -1.1722
 5033TIP3    H236591   6.310   4.382   4.286 -0.0217  0.6845 -0.4596
 5034TIP3   OH236592   3.336   0.434  14.304  0.2315 -0.6234  0.1713
 5034TIP3    H136593   3.363   0.512  14.353 -0.1738 -0.6147  0.3918
 5034TIP3    H236594   3.390   0.434  14.226  1.0515 -0.7609  0.7374
 5035TIP3   OH236595   1.691   3.009   2.524 -0.4044 -0.6881  0.6575
 5035TIP3    H136596   1.742   2.979   2.449  0.1558  0.4948  0.5563
 5035TIP3    H236597   1.603   2.977   2.507  0.2945 -2.8064  0.8558
 5036TIP3   OH236598   5.467   0.269  16.533  1.1116 -0.1645 -0.1134
 5036TIP3    H136599   5.533   0.214  16.490  1.3992  0.7848 -0.9086
 5036TIP3    H236600   5.470   0.352  16.485  2.8177  1.6497  2.9398
 5037TIP3   OH236601   3.238   3.162  10.902 -0.1714 -0.1490  0.2220
 5037TIP3    H136602   3.291   3.231  10.942  1.3898 -1.6207  0.7195
 5037TIP3    H236603   3.190   3.207  10.833  1.8164  1.2090 -0.3212
 5038TIP3   OH236604   2.216   1.595   2.249 -0.0141  0.3116  0.1735
 5038TIP3    H136605   2.241   1.591   2.156 -1.5012  0.7414 -0.2537
 5038TIP3    H236606   2.189   1.506   2.270  0.3554  0.2059  0.2147
 5039TIP3   OH236607   3.726   5.330  12.152 -0.1211  0.0858 -0.1724
 5039TIP3    H136608   3.784   5.254  12.140 -0.2387 -0.0218 -0.0601
 5039TIP3    H236609   3.786   5.403  12.169  0.1345  0.4888 -2.5919
 5040TIP3   OH236610   1.818   4.840  12.855  0.2643  0.0173  0.3545
 5040TIP3    H136611   1.804   4.821  12.948 -0.9216 -3.5685 -0.4928
 5040TIP3    H236612   1.733   4.871  12.824  0.7705  1.6301  0.5035
 5041TIP3   OH236613   5.689   5.473   1.156 -0.3308 -0.4489 -0.2250
 5041TIP3    H136614   5.621   5.408   1.167 -0.1825 -0.4677  0.5616
 5041TIP3    H236615   5.690   5.491   1.061  0.0566 -2.0375 -0.5373
 5042TIP3   OH236616   0.888   2.606  11.869  0.1299 -0.1797  0.1283
 5042TIP3    H136617   0.882   2.694  11.908 -0.1748 -0.3032  0.3563
 5042TIP3    H236618   0.960   2.564  11.916 -0.0666 -0.2362  0.3806
 5043TIP3   OH236619   2.594   5.298  16.344  0.1356 -0.5777 -0.4399
 5043TIP3    H136620   2.509   5.323  16.306 -0.2165 -1.2042 -0.0696
 5043TIP3    H236621   2.595   5.341  16.429 -0.1231 -1.1569 -0.1424
 5044TIP3   OH236622   4.718   6.192   0.242  0.6487  0.2764  0.2187
 5044TIP3    H136623   4.752   6.256   0.305 -0.2532  1.7411 -0.7654
 5044TIP3    H236624   4.651   6.144   0.292 -0.5048  1.8420  0.2500
 5045TIP3   OH236625   2.989   5.822  11.331 -0.4825  0.1336  0.0720
 5045TIP3    H136626   2.921   5.781  11.277  0.7181  0.7208 -1.9490
 5045TIP3    H236627   3.061   5.759  11.330  0.4257  1.1535 -0.9844
 5046TIP3   OH236628   1.306   1.193   5.950  0.8646 -0.4939 -0.2901
 5046TIP3    H136629   1.383   1.246   5.971  1.6202 -1.5975 -0.2333
 5046TIP3    H236630   1.232   1.244   5.982  1.4904  1.0755 -1.3383
 5047TIP3   OH236631   2.084   5.054  11.610  0.1256 -0.5623  0.0836
 5047TIP3    H136632   2.061   4.999  11.535 -0.6246 -0.1560  0.0109
 5047TIP3    H236633   2.170   5.023  11.638  1.3458  0.6505 -2.2317
 5048TIP3   OH236634   4.254   1.663  14.218  0.1284  0.2177  0.6460
 5048TIP3    H136635   4.344   1.648  14.246 -0.2919 -0.7590  1.5151
 5048TIP3    H236636   4.215   1.715  14.289  0.2496  1.4353 -0.1531
 5049TIP3   OH236637   4.671   1.799  11.179 -0.0041  0.5429 -0.3648
 5049TIP3    H136638   4.625   1.868  11.131 -1.0496  0.3232  0.3017
 5049TIP3    H236639   4.723   1.845  11.244 -0.6808  0.7149  0.0602
 5050TIP3   OH236640   2.432   2.076  16.945  0.3573 -0.0804  0.0890
 5050TIP3    H136641   2.434   1.981  16.952  0.3504 -0.1738 -1.0835
 5050TIP3    H236642   2.352   2.095  16.895  0.4039  0.5311  0.2401
 5051TIP3   OH236643   6.020   6.522   6.325  0.1708 -0.4633 -0.1684
 5051TIP3    H136644   6.098   6.578   6.319  0.8427 -1.3049  0.5723
 5051TIP3    H236645   6.053   6.433   6.314 -0.6378 -0.8544  0.5116
 5052TIP3   OH236646   6.501   3.372  12.019  0.3571  0.3677 -0.3626
 5052TIP3    H136647   6.564   3.367  12.091  0.8312 -2.9006 -0.9104
 5052TIP3    H236648   6.554   3.366  11.940 -0.5104 -1.2292 -0.8513
 5053TIP3   OH236649   0.791   6.609   1.865  0.4511  0.0606  0.3582
 5053TIP3    H136650   0.702   6.601   1.832  0.4921  0.9236  0.0027
 5053TIP3    H236651   0.795   6.698   1.900  1.7633  0.7905 -1.5160
 5054TIP3   OH236652   6.506   2.084  12.115  0.9190  0.8780  0.8419
 5054TIP3    H136653   6.428   2.089  12.169  0.9581 -1.4747  1.1997
 5054TIP3    H236654   6.557   2.012  12.153  2.3161  1.0825 -0.5654
 5055TIP3   OH236655   1.159   2.298   0.020  0.2667  0.2391  0.3818
 5055TIP3    H136656   1.082   2.283  -0.034  0.3230  1.1657  0.0316
 5055TIP3    H236657   1.125   2.302   0.110  0.5743 -4.6222  0.8790
 5056TIP3   OH236658   0.211   1.337   0.028 -0.6131 -0.0388 -0.0919
 5056TIP3    H136659   0.168   1.394   0.092  0.6144  0.8602 -0.0535
 5056TIP3    H236660   0.303   1.362   0.032 -0.6553  0.7041 -2.9059
 5057TIP3   OH236661   0.048   6.653  11.339 -0.1746  0.8406  0.2794
 5057TIP3    H136662   0.102   6.648  11.418 -0.2865 -0.9089  0.2590
 5057TIP3    H236663   0.110   6.640  11.267 -0.1200  2.1338  0.0755
 5058TIP3   OH236664   3.488   3.611   2.506  0.0094  0.2366  0.3900
 5058TIP3    H136665   3.405   3.596   2.460  0.2611  0.0496 -0.0093
 5058TIP3    H236666   3.537   3.670   2.447  0.4147 -0.1629  0.3226
 5059TIP3   OH236667   2.077   4.164   1.141  0.0081 -0.6720  0.6785
 5059TIP3    H136668   2.019   4.194   1.211 -0.2890  1.0802 -0.3011
 5059TIP3    H236669   2.157   4.135   1.185 -1.0199 -1.6891  1.9130
 5060TIP3   OH236670   4.659   0.080   2.552  0.0406 -0.1331  0.6414
 5060TIP3    H136671   4.622   0.168   2.561 -1.5745 -0.9774  2.7197
 5060TIP3    H236672   4.749   0.094   2.524 -1.2529  2.0520 -2.6211
 5061TIP3   OH236673   6.199   3.573  11.454  0.6921  0.1378 -0.1664
 5061TIP3    H136674   6.154   3.558  11.538  2.5268 -1.0298  0.6308
 5061TIP3    H236675   6.236   3.661  11.462 -1.6462  1.2271 -0.9403
 5062TIP3   OH236676   6.536   1.872  14.723  0.4136 -0.1305 -0.3409
 5062TIP3    H136677   6.458   1.903  14.769  1.1102  0.5977  0.3883
 5062TIP3    H236678   6.586   1.825  14.790  0.3935 -0.9878 -0.9140
 5063TIP3   OH236679   2.549   6.339   5.598  0.2147 -0.4477 -0.3608
 5063TIP3    H136680   2.621   6.381   5.646 -0.6937  0.4580  0.2279
 5063TIP3    H236681   2.573   6.246   5.595  0.9145 -0.3120  0.7297
 5064TIP3   OH236682   5.373   5.862   0.407 -0.2541 -0.0964 -0.4387
 5064TIP3    H136683   5.378   5.953   0.437  0.4587 -0.0858 -0.5793
 5064TIP3    H236684   5.298   5.826   0.453 -0.7387  0.6576 -0.6282
 5065TIP3   OH236685   6.081   2.672   5.862  0.2504  0.0603  0.3659
 5065TIP3    H136686   6.007   2.626   5.901  0.1838  0.6457  0.9166
 5065TIP3    H236687   6.043   2.748   5.819  0.5911  0.6135  1.0445
 5066TIP3   OH236688   3.904   5.704   2.026 -0.2665  0.5016  0.4655
 5066TIP3    H136689   3.944   5.757   2.095  1.1362  1.3755 -0.9993
 5066TIP3    H236690   3.879   5.622   2.070  1.4815  0.6671  1.8028
 5067TIP3   OH236691   0.967   1.476   1.995 -0.2090 -0.1167 -0.2239
 5067TIP3    H136692   0.969   1.399   1.938  1.2932 -1.3998  1.5082
 5067TIP3    H236693   1.039   1.531   1.963  0.0981 -0.4469 -0.1042
 5068TIP3   OH236694   5.257   1.212   2.470  0.0510 -0.5992  0.7056
 5068TIP3    H136695   5.260   1.279   2.538 -0.3408  1.7815 -1.5219
 5068TIP3    H236696   5.167   1.180   2.471 -0.8097  1.6496 -0.6876
 5069TIP3   OH236697   4.962   5.761  13.202  0.4736  0.5443  0.3280
 5069TIP3    H136698   5.007   5.678  13.185  0.2785  0.5583 -0.2761
 5069TIP3    H236699   4.928   5.787  13.117 -1.5178  0.0372  0.9544
 5070TIP3   OH236700   2.467   1.042  13.014 -0.4090 -0.2271  0.0648
 5070TIP3    H136701   2.471   1.076  13.104  1.8456  1.9175 -0.7997
 5070TIP3    H236702   2.412   1.105  12.967 -0.2571 -0.4729 -0.4413
 5071TIP3   OH236703   0.691   1.680   4.729  0.4321  0.0046  0.4146
 5071TIP3    H136704   0.708   1.588   4.749 -0.9124 -0.1330  1.0144
 5071TIP3    H236705   0.637   1.678   4.650  3.4586  0.4488 -1.7837
 5072TIP3   OH236706   3.930   4.961  15.167  0.1940  0.5270 -0.2542
 5072TIP3    H136707   4.025   4.948  15.165 -0.1056 -1.7373 -2.2587
 5072TIP3    H236708   3.919   5.055  15.160  2.2839  0.6547 -2.4767
 5073TIP3   OH236709   4.168   3.640  17.201  0.5263  0.1948 -0.2539
 5073TIP3    H136710   4.190   3.638  17.108  0.1152  0.1321 -0.3523
 5073TIP3    H236711   4.074   3.621  17.203  0.8957 -1.6155  0.3102
 5074TIP3   OH236712   1.022   6.369  16.995 -0.2142 -0.4430 -0.2533
 5074TIP3    H136713   0.948   6.367  16.935 -1.2971 -0.3705  1.0470
 5074TIP3    H236714   1.055   6.458  16.990 -1.4084  0.0564  0.5638
 5075TIP3   OH236715   5.056   3.839   4.293  0.0642 -0.0172 -0.0380
 5075TIP3    H136716   4.961   3.839   4.279  0.3150 -1.9482 -2.1374
 5075TIP3    H236717   5.079   3.932   4.296 -1.6105  0.5241 -1.9218
 5076TIP3   OH236718   6.095   1.424  14.017 -0.4642 -0.7837  0.0873
 5076TIP3    H136719   6.037   1.446  13.944  0.4390  0.7323 -0.2003
 5076TIP3    H236720   6.042   1.440  14.095 -0.8599 -0.6745 -0.1965
 5077TIP3   OH236721   1.278   1.307  14.904  0.4976  0.1483  0.3825
 5077TIP3    H136722   1.190   1.293  14.870  0.7613 -1.1133  0.1759
 5077TIP3    H236723   1.303   1.223  14.943  1.9030  0.2305 -0.2795
 5078TIP3   OH236724   4.275   3.049  16.880  0.1424 -0.1914 -0.5913
 5078TIP3    H136725   4.212   3.002  16.826  1.2267 -1.9997 -0.3391
 5078TIP3    H236726   4.245   3.036  16.970  0.0286  0.2371 -0.5663
 5079TIP3   OH236727   1.093   0.523   4.541 -0.2449 -0.0191 -0.2444
 5079TIP3    H136728   1.073   0.468   4.465 -0.6623 -0.8224  0.4396
 5079TIP3    H236729   1.183   0.498   4.565  0.2497  0.9321 -1.0548
 5080TIP3   OH236730   6.607   4.581   2.706 -0.3777 -0.6788 -0.0345
 5080TIP3    H136731   6.668   4.622   2.645 -2.8733  0.7131 -1.6645
 5080TIP3    H236732   6.654   4.580   2.789  1.7331  0.6676 -1.1636
 5081TIP3   OH236733   4.075   1.332   4.063 -0.0841  0.5313 -0.4437
 5081TIP3    H136734   4.051   1.421   4.039  0.3227  0.7132 -0.1674
 5081TIP3    H236735   3.992   1.285   4.066 -0.2697  0.8245 -0.8971
 5082TIP3   OH236736   1.105   3.454   2.633 -0.0838  0.1971  0.2407
 5082TIP3    H136737   1.091   3.393   2.560 -0.5635 -1.6755  1.8757
 5082TIP3    H236738   1.022   3.502   2.640  0.2337  0.9336 -0.9406
 5083TIP3   OH236739   1.003   0.436   6.087 -0.6280 -0.8058  0.2523
 5083TIP3    H136740   1.007   0.530   6.069 -1.8952 -1.0548 -1.4454
 5083TIP3    H236741   1.071   0.398   6.033 -1.0702 -1.0144 -0.1607
 5084TIP3   OH236742   2.970   3.919   1.664  0.3258  0.1062 -0.3371
 5084TIP3    H136743   3.052   3.936   1.709 -0.1174  1.7673 -0.1148
 5084TIP3    H236744   2.925   4.004   1.663 -1.4672 -0.8068 -0.2614
 5085TIP3   OH236745   2.767   6.380  13.921  0.5831 -0.2551 -0.1639
 5085TIP3    H136746   2.855   6.380  13.956  1.2452  0.2642 -1.7704
 5085TIP3    H236747   2.740   6.288  13.926  1.1683 -0.3997  0.4273
 5086TIP3   OH236748   2.470   0.530   3.878 -0.0735  0.3983 -0.5127
 5086TIP3    H136749   2.463   0.519   3.783  0.1962  0.6458 -0.5596
 5086TIP3    H236750   2.563   0.542   3.894  0.1722 -1.9909  0.0372
 5087TIP3   OH236751   2.799   2.302   4.322 -0.2104 -0.2852  0.5528
 5087TIP3    H136752   2.819   2.242   4.394 -0.0976  0.3473  1.0531
 5087TIP3    H236753   2.748   2.372   4.363  1.7177  1.2134  0.4581
 5088TIP3   OH236754   3.070   5.674   0.039  0.2830  0.3735 -0.2841
 5088TIP3    H136755   3.058   5.729  -0.039  1.1140  0.7525 -0.1485
 5088TIP3    H236756   3.007   5.708   0.102 -2.5137 -1.8041 -1.7562
 5089TIP3   OH236757   6.596   0.664  10.525  0.2714 -0.5236 -0.2821
 5089TIP3    H136758   6.617   0.756  10.540 -0.3103 -0.2705 -1.0000
 5089TIP3    H236759   6.573   0.630  10.612 -0.4487  0.2451 -0.1774
 5090TIP3   OH236760   6.814   4.495  12.012 -0.6720  0.1945 -0.0086
 5090TIP3    H136761   6.874   4.484  11.938 -1.8433 -0.0249 -0.9450
 5090TIP3    H236762   6.789   4.406  12.036  1.7660  0.0933  2.4173
 5091TIP3   OH236763   4.839   3.384   1.950  0.1751 -0.2736 -0.7468
 5091TIP3    H136764   4.804   3.346   1.869 -2.3134 -0.3564  0.3330
 5091TIP3    H236765   4.929   3.407   1.928  0.1265 -1.9970 -2.9957
 5092TIP3   OH236766   5.812   4.102   2.645 -0.1653  0.0552 -0.8167
 5092TIP3    H136767   5.794   4.195   2.659  0.2959 -0.1583  1.3749
 5092TIP3    H236768   5.847   4.071   2.729  1.6036 -1.6404 -2.1295
 5093TIP3   OH236769   5.116   1.542  16.439  0.9418  0.1025 -0.0427
 5093TIP3    H136770   5.024   1.558  16.462  1.9250  2.7014  2.4584
 5093TIP3    H236771   5.151   1.629  16.417  2.8610 -0.8163 -0.7325
 5094TIP3   OH236772   5.662   5.323  11.961  0.1398 -0.3406  0.3458
 5094TIP3    H136773   5.741   5.319  12.016  0.4754  2.1344  0.0968
 5094TIP3    H236774   5.590   5.300  12.019  0.9700 -2.0831  0.7105
 5095TIP3   OH236775   1.901   1.774   0.624  0.2341  0.2844 -0.4922
 5095TIP3    H136776   1.927   1.822   0.546  0.8451 -0.1224 -0.5409
 5095TIP3    H236777   1.879   1.842   0.688 -0.4511  0.6147 -1.0748
 5096TIP3   OH236778   4.253   1.377   3.577  0.0811 -0.2606 -0.4699
 5096TIP3    H136779   4.266   1.293   3.620  0.6586  0.6681  1.2196
 5096TIP3    H236780   4.336   1.423   3.588 -0.0989  0.3815 -1.7205
 5097TIP3   OH236781   3.217   4.937  12.189 -0.5187  0.1392  0.1228
 5097TIP3    H136782   3.286   4.872  12.198 -0.7045  0.1425  1.7646
 5097TIP3    H236783   3.194   4.961  12.279 -0.5016  2.4221 -0.4362
 5098TIP3   OH236784   1.395   1.149  13.710 -0.5440  0.3807  0.5593
 5098TIP3    H136785   1.393   1.163  13.805 -0.6755  1.6176  0.3848
 5098TIP3    H236786   1.370   1.234  13.673  0.4044  0.1614 -0.5994
 5099TIP3   OH236787   4.953   3.446   2.789  0.0629 -0.7496 -0.4347
 5099TIP3    H136788   4.949   3.462   2.884 -1.4054  0.1404 -0.6284
 5099TIP3    H236789   5.020   3.378   2.779  0.1333 -0.9551  1.2570
 5100TIP3   OH236790   4.399   1.985  13.194 -0.3134 -0.1741 -0.2472
 5100TIP3    H136791   4.379   1.891  13.197  0.9105 -0.4284 -0.0738
 5100TIP3    H236792   4.478   1.994  13.246 -0.4103  0.9618 -0.2907
 5101TIP3   OH236793   1.152   5.793   2.674  0.0948 -0.1047 -0.2063
 5101TIP3    H136794   1.183   5.717   2.625  2.5309  1.4828 -1.2128
 5101TIP3    H236795   1.171   5.773   2.766  0.4852 -0.8027 -0.4467
 5102TIP3   OH236796   2.050   0.931  13.095  0.1209  0.4442 -0.1412
 5102TIP3    H136797   2.140   0.900  13.085 -0.6218 -1.2758 -1.9006
 5102TIP3    H236798   2.017   0.884  13.171  0.7012  1.0401  0.4786
 5103TIP3   OH236799   0.836   3.085  14.886  0.2258  0.1708  0.7527
 5103TIP3    H136800   0.748   3.060  14.911  0.8147 -2.2097  0.5671
 5103TIP3    H236801   0.876   3.004  14.853  2.1854  1.3885  0.0263
 5104TIP3   OH236802   1.840   1.601   1.938  0.1680  0.1576  0.2928
 5104TIP3    H136803   1.767   1.660   1.958 -0.3728  0.1096 -1.4772
 5104TIP3    H236804   1.827   1.527   1.998 -1.1713  0.2037  0.0854
 5105TIP3   OH236805   2.709   1.175   5.618 -0.2063  0.2914 -0.5438
 5105TIP3    H136806   2.623   1.137   5.634  0.2071 -0.5415 -0.2886
 5105TIP3    H236807   2.737   1.208   5.703 -0.1373  0.2915 -0.5661
 5106TIP3   OH236808   0.122   3.683  16.081 -0.1147  0.3805  0.3734
 5106TIP3    H136809   0.136   3.777  16.094  0.7458  0.4070 -0.6029
 5106TIP3    H236810   0.175   3.662  16.003 -1.8260 -0.5344 -0.5730
 5107TIP3   OH236811   1.504   0.714   1.910 -0.2619 -0.0811 -0.2779
 5107TIP3    H136812   1.489   0.644   1.974 -0.5801  0.0199 -0.2404
 5107TIP3    H236813   1.583   0.687   1.864 -0.0299 -0.1489  0.1626
 5108TIP3   OH236814   2.378   2.989   1.002 -0.2215  0.8823  0.3865
 5108TIP3    H136815   2.453   3.037   1.037  0.0579  0.4881  0.3281
 5108TIP3    H236816   2.344   2.939   1.077  1.4871 -1.3998 -0.2871
 5109TIP3   OH236817   5.508   4.176   5.765  0.1093  0.0410 -0.3205
 5109TIP3    H136818   5.556   4.128   5.833 -0.0651  0.0384 -0.1990
 5109TIP3    H236819   5.446   4.231   5.813 -0.8213 -0.8281 -0.5128
 5110TIP3   OH236820   4.690   0.614  15.404 -0.0409  0.0339 -0.0429
 5110TIP3    H136821   4.648   0.606  15.490 -0.0147 -3.5188 -0.2841
 5110TIP3    H236822   4.625   0.581  15.343  0.2135  1.8825 -1.3395
 5111TIP3   OH236823   0.346   6.708  17.060 -0.3867 -0.6442 -0.4266
 5111TIP3    H136824   0.296   6.699  16.979  2.2573 -2.9375 -1.8990
 5111TIP3    H236825   0.325   6.796  17.092 -3.1940 -0.5405 -2.4052
 5112TIP3   OH236826   6.604   0.884  13.008 -0.5599  0.1413  0.0654
 5112TIP3    H136827   6.627   0.847  12.923  0.2167  1.0659 -0.1280
 5112TIP3    H236828   6.600   0.979  12.993  1.0277  0.4439  1.3796
 5113TIP3   OH236829   2.673   3.359   1.074  1.0129 -0.1304  0.3973
 5113TIP3    H136830   2.643   3.285   1.126  0.3293  1.6706  2.6185
 5113TIP3    H236831   2.728   3.411   1.133 -0.0309  2.1240 -0.5228
 5114TIP3   OH236832   3.699   2.728  11.640  0.1529 -0.1430 -0.2010
 5114TIP3    H136833   3.747   2.691  11.714 -0.1588  0.8657  0.5136
 5114TIP3    H236834   3.617   2.760  11.678  0.1309  0.6723 -0.9226
 5115TIP3   OH236835   4.719   0.255  12.885  0.2028 -0.6816 -0.0303
 5115TIP3    H136836   4.697   0.343  12.914 -2.8482 -1.3281 -0.1815
 5115TIP3    H236837   4.675   0.197  12.947 -0.2432 -2.0674 -1.5805
 5116TIP3   OH236838   2.241   1.487   1.551 -0.5291  0.6197 -0.2231
 5116TIP3    H136839   2.201   1.533   1.476  0.4172 -1.3596 -2.0056
 5116TIP3    H236840   2.192   1.405   1.557 -0.3612  0.6078  1.1450
 5117TIP3   OH236841   5.085   4.019   3.748  0.8243 -0.4128  0.0577
 5117TIP3    H136842   5.118   3.991   3.663 -0.2743 -1.4724 -0.0384
 5117TIP3    H236843   5.136   4.097   3.770  1.7891 -0.7124 -1.1137
 5118TIP3   OH236844   4.365   0.148   4.013 -0.3301  0.0683 -0.2719
 5118TIP3    H136845   4.298   0.213   3.996  1.1467  1.6703 -0.1284
 5118TIP3    H236846   4.381   0.154   4.108 -0.2653 -0.5779 -0.2364
 5119TIP3   OH236847   1.519   5.423  10.908 -0.2558  0.0783 -0.3345
 5119TIP3    H136848   1.595   5.393  10.958 -0.4695 -0.7035 -0.4728
 5119TIP3    H236849   1.445   5.376  10.947 -0.2389 -1.6563 -2.3217
 5120TIP3   OH236850   1.512   5.855   4.963 -0.1405 -0.0731 -0.3208
 5120TIP3    H136851   1.460   5.816   5.034  1.0245 -0.4833  0.3365
 5120TIP3    H236852   1.582   5.902   5.009  0.1783  0.3034 -1.1906
 5121TIP3   OH236853   4.282   1.585   2.079  0.0589 -0.1440 -0.6813
 5121TIP3    H136854   4.273   1.640   2.001  1.4445 -0.7291 -1.2721
 5121TIP3    H236855   4.330   1.640   2.142 -3.2299  1.2470  0.7249
 5122TIP3   OH236856   4.368   2.990  11.615 -0.5835 -0.5183 -0.0908
 5122TIP3    H136857   4.285   3.035  11.596  0.3774  0.3437 -2.4080
 5122TIP3    H236858   4.433   3.037  11.563  1.1669 -1.9497  0.7755
 5123TIP3   OH236859   5.138   4.280   3.842 -0.3642 -0.1339 -0.1584
 5123TIP3    H136860   5.213   4.335   3.818 -1.0973 -0.1044 -2.5592
 5123TIP3    H236861   5.066   4.313   3.788 -1.7710 -1.0304  1.1376
 5124TIP3   OH236862   2.032   4.373  11.310  0.5546  0.3626  0.4848
 5124TIP3    H136863   2.021   4.467  11.299 -2.4929  0.2225  1.9631
 5124TIP3    H236864   1.974   4.350  11.382  0.6526 -2.7872 -0.3600
 5125TIP3   OH236865   2.060   5.221  14.691 -0.6903  0.1833 -0.3861
 5125TIP3    H136866   1.970   5.243  14.665 -0.4430  0.6417 -0.8377
 5125TIP3    H236867   2.115   5.261  14.625 -0.1682 -0.5276 -0.3919
 5126TIP3   OH236868   0.777   1.113   2.483 -0.1267  0.1171 -0.0047
 5126TIP3    H136869   0.708   1.075   2.537  0.7872 -0.2286  0.9300
 5126TIP3    H236870   0.814   1.039   2.435 -0.8167  0.3964 -1.0115
 5127TIP3   OH236871   0.046   3.090   3.427 -0.0014  0.2906  0.4995
 5127TIP3    H136872  -0.021   3.157   3.430  0.4647  0.7509  0.6811
 5127TIP3    H236873   0.034   3.039   3.508  1.0654  1.5407  1.4690
 5128TIP3   OH236874   2.291   4.400  11.218  0.5916  0.1614 -0.1433
 5128TIP3    H136875   2.271   4.388  11.125 -1.0909 -0.2647  0.2711
 5128TIP3    H236876   2.206   4.402  11.261  1.0626  5.2325  0.8395
 5129TIP3   OH236877   5.942   2.540  12.302 -0.3453  0.7235  0.4739
 5129TIP3    H136878   6.027   2.583  12.307 -0.3673  0.8348 -0.0062
 5129TIP3    H236879   5.879   2.608  12.321 -0.1676 -0.2958  5.1162
 5130TIP3   OH236880   0.995   5.359   3.322  0.0007 -0.8488  0.0432
 5130TIP3    H136881   0.994   5.271   3.360  0.0830 -1.3165 -1.0301
 5130TIP3    H236882   0.911   5.368   3.279 -0.3539 -0.0669  0.8822
 5131TIP3   OH236883   1.995   5.982   6.561 -0.0234 -0.3849  0.6384
 5131TIP3    H136884   1.909   5.943   6.548  0.5771 -1.3934 -0.2873
 5131TIP3    H236885   2.038   5.976   6.476  0.8345  0.4448  1.0023
 5132TIP3   OH236886   6.041   3.530   5.841 -0.1912  0.4969 -0.6143
 5132TIP3    H136887   5.970   3.591   5.821  1.1619  2.1928 -0.2958
 5132TIP3    H236888   6.079   3.562   5.922  0.5493 -0.7708 -0.4434
 5133TIP3   OH236889   2.970   5.120   2.446  0.2441 -0.2343 -0.1004
 5133TIP3    H136890   2.898   5.092   2.501 -0.8478 -0.4309 -1.5894
 5133TIP3    H236891   2.967   5.061   2.370  2.2730 -0.5667  0.0498
 5134TIP3   OH236892   5.207   6.693   3.576 -0.5277 -0.6025  0.1894
 5134TIP3    H136893   5.245   6.781   3.583  0.6645 -1.0010 -0.9072
 5134TIP3    H236894   5.201   6.662   3.666  0.4176  0.0572  0.4913
 5135TIP3   OH236895   5.595   1.549  11.141  0.0786  0.3017 -0.3068
 5135TIP3    H136896   5.510   1.567  11.101  1.0188  2.1957 -1.5145
 5135TIP3    H236897   5.615   1.628  11.191  0.3080 -0.8609  1.4985
 5136TIP3   OH236898   4.942   6.470   2.442 -0.0398 -0.2930  0.0195
 5136TIP3    H136899   5.013   6.535   2.445 -2.0217  2.0231 -1.8615
 5136TIP3    H236900   4.919   6.456   2.534  1.4427  0.5016  0.5306
 5137TIP3   OH236901   1.045   5.428  13.552 -0.4136  0.0828  0.1182
 5137TIP3    H136902   1.021   5.501  13.609 -0.7255  0.0534  0.0256
 5137TIP3    H236903   1.097   5.468  13.482  0.3539  0.0528  0.6661
 5138TIP3   OH236904   4.069   0.095  15.054 -0.0831  0.2384  0.1246
 5138TIP3    H136905   4.095   0.008  15.025  1.9979  0.6049  0.7696
 5138TIP3    H236906   4.040   0.140  14.975 -1.8254 -1.2435 -0.1025
 5139TIP3   OH236907   0.328   3.270  16.323  0.6556 -0.3079 -0.0344
 5139TIP3    H136908   0.370   3.209  16.262  1.5584  0.8345 -0.5642
 5139TIP3    H236909   0.263   3.316  16.271  0.5861 -0.1788  0.1655
 5140TIP3   OH236910   2.237   2.976  15.807 -0.2906 -0.2481 -0.1218
 5140TIP3    H136911   2.224   2.896  15.858  0.1313 -0.0719  0.2710
 5140TIP3    H236912   2.322   2.962  15.764  0.6763  0.7430  1.3897
 5141TIP3   OH236913   4.938   4.199  11.178  0.3621 -0.1792  0.0113
 5141TIP3    H136914   4.850   4.164  11.166  0.2484  0.3471 -0.7301
 5141TIP3    H236915   4.949   4.261  11.106  1.4022 -0.3753 -0.0004
 5142TIP3   OH236916   3.997   5.679  12.652  0.0489 -0.0915  0.7556
 5142TIP3    H136917   4.055   5.693  12.727 -0.7281 -2.6643  1.9066
 5142TIP3    H236918   3.916   5.646  12.691 -1.6005  1.8016 -0.9788
 5143TIP3   OH236919   5.864   2.590   6.003 -0.0991 -0.1437  0.9387
 5143TIP3    H136920   5.855   2.514   6.059  1.1975 -1.5768 -0.7450
 5143TIP3    H236921   5.776   2.604   5.968  0.2926 -3.0934 -1.4845
 5144TIP3   OH236922   6.052   4.704   2.861 -0.0254 -0.5327 -0.3318
 5144TIP3    H136923   6.129   4.720   2.806  0.1376 -0.7366 -0.1646
 5144TIP3    H236924   6.001   4.639   2.812  0.0079 -0.5449 -0.3508
 5145TIP3   OH236925   2.979   3.544   2.360  0.1160  0.4806 -0.4541
 5145TIP3    H136926   3.044   3.491   2.405 -1.5338 -1.4065 -0.2460
 5145TIP3    H236927   2.910   3.558   2.425 -1.2438 -0.3858 -1.6826
 5146TIP3   OH236928   1.654   0.595   6.898  0.3075 -0.1861 -0.1386
 5146TIP3    H136929   1.689   0.683   6.885 -1.0684  0.0343 -2.6693
 5146TIP3    H236930   1.559   0.608   6.907  0.2499 -1.2748  0.8920
 5147TIP3   OH236931   3.548   2.357  10.785 -0.4385 -0.2016  0.2181
 5147TIP3    H136932   3.491   2.291  10.744  0.3541  0.0208 -1.2542
 5147TIP3    H236933   3.588   2.311  10.859 -0.3529 -1.1992 -0.4348
 5148TIP3   OH236934   0.496   4.539  15.583 -0.3241  0.3001 -0.0036
 5148TIP3    H136935   0.525   4.481  15.653  0.3794  0.2659 -0.3191
 5148TIP3    H236936   0.421   4.494  15.543 -1.1261  0.6186  1.1323
 5149TIP3   OH236937   0.981   0.848  16.838 -0.1126 -0.1473 -0.3971
 5149TIP3    H136938   0.885   0.844  16.835 -0.0633 -0.0046 -2.2556
 5149TIP3    H236939   1.000   0.882  16.926 -1.7308 -0.9593  0.2962
 5150TIP3   OH236940   2.084   3.537   6.369 -0.2495 -0.2221  0.5878
 5150TIP3    H136941   2.131   3.455   6.354 -1.1518 -0.8556  1.1786
 5150TIP3    H236942   2.128   3.601   6.313  1.0625 -0.8944  0.8529
 5151TIP3   OH236943   4.595   1.569   0.094  0.3864 -0.1969 -0.1938
 5151TIP3    H136944   4.676   1.616   0.075  1.7368 -2.8689 -1.3444
 5151TIP3    H236945   4.592   1.499   0.029 -2.3935 -0.7044  0.4140
 5152TIP3   OH236946   0.905   4.878  15.611  0.4682 -0.1656  0.0944
 5152TIP3    H136947   0.857   4.948  15.567  1.3246  0.6204  0.3869
 5152TIP3    H236948   0.855   4.798  15.592 -0.7951  0.5972  0.1832
 5153TIP3   OH236949   2.961   4.707   0.863 -0.2156  0.0700  0.0602
 5153TIP3    H136950   2.976   4.786   0.811  0.2796  0.1997  0.3938
 5153TIP3    H236951   3.016   4.641   0.823 -0.4506 -0.0465 -0.0730
 5154TIP3   OH236952   3.617   0.675  15.017  0.1053  0.0995 -0.3988
 5154TIP3    H136953   3.564   0.599  15.041  1.4312  0.3271  3.6345
 5154TIP3    H236954   3.706   0.653  15.047  1.1929  1.9351 -2.1244
 5155TIP3   OH236955   5.877   1.428   6.195 -0.6504 -0.1204  0.3596
 5155TIP3    H136956   5.875   1.390   6.107 -1.6410  0.3643  0.1599
 5155TIP3    H236957   5.899   1.355   6.253 -1.2137 -0.7079 -0.1567
 5156TIP3   OH236958   1.697   2.391   3.735  0.2376  0.2742 -0.2247
 5156TIP3    H136959   1.705   2.342   3.653 -0.1132 -1.0663  0.5415
 5156TIP3    H236960   1.753   2.345   3.797  0.9938  1.6474  0.1493
 5157TIP3   OH236961   6.751   1.118  13.479  0.0465  0.2472 -0.3023
 5157TIP3    H136962   6.823   1.056  13.470 -0.3837 -0.5807  1.7206
 5157TIP3    H236963   6.741   1.156  13.392  2.5521 -0.0354 -0.7430
 5158TIP3   OH236964   2.192   0.708   2.769  0.0759 -0.6205  0.3697
 5158TIP3    H136965   2.174   0.766   2.844 -5.7982 -0.1337 -1.1735
 5158TIP3    H236966   2.183   0.765   2.692 -3.1553 -2.8974 -1.0474
 5159TIP3   OH236967   0.232   1.086  15.281  0.3377 -0.2016 -0.1999
 5159TIP3    H136968   0.312   1.082  15.229 -0.2530  0.1766 -1.1479
 5159TIP3    H236969   0.239   1.169  15.329  0.9047 -0.5724  0.3583
 5160TIP3   OH236970   3.716   3.340   2.163 -0.1366 -0.2183 -0.2337
 5160TIP3    H136971   3.672   3.414   2.121 -0.4709 -0.9476 -1.1926
 5160TIP3    H236972   3.700   3.352   2.256  0.8594  1.5946 -0.2572
 5161TIP3   OH236973   5.790   5.693   0.992  0.0089 -0.0137 -0.4829
 5161TIP3    H136974   5.747   5.759   1.047  0.5223  0.1959 -0.3301
 5161TIP3    H236975   5.875   5.680   1.034  0.0836 -0.4399 -0.7752
 5162TIP3   OH236976   2.131   0.027  10.724 -0.2234 -0.2312 -0.3568
 5162TIP3    H136977   2.086   0.075  10.794  0.0242  0.2857 -0.5513
 5162TIP3    H236978   2.136  -0.063  10.756 -0.8047 -0.1563 -0.0443
 5163TIP3   OH236979   4.774   1.238  10.970 -0.1392 -0.0448  0.0855
 5163TIP3    H136980   4.695   1.217  11.019 -0.1913 -1.5497 -0.6329
 5163TIP3    H236981   4.752   1.220  10.879  0.7097  0.4904 -0.2322
 5164TIP3   OH236982   1.743   3.535   6.614 -0.5741  0.4634  0.1668
 5164TIP3    H136983   1.685   3.590   6.665 -1.1863  0.2286 -0.2731
 5164TIP3    H236984   1.733   3.447   6.651 -0.4191  0.4442  0.1644
 5165TIP3   OH236985   3.323   4.884   2.760  0.3020  0.0484  0.5087
 5165TIP3    H136986   3.316   4.802   2.711 -1.6673  1.1553 -1.1499
 5165TIP3    H236987   3.234   4.899   2.794  0.7966  1.1876  1.3277
 5166TIP3   OH236988   0.698   1.103   5.381  0.1133 -0.0864 -0.1791
 5166TIP3    H136989   0.661   1.033   5.434 -0.8034 -0.2289 -0.9939
 5166TIP3    H236990   0.749   1.058   5.314 -1.1111 -0.0168 -1.1759
 5167TIP3   OH236991   2.744   6.753   0.338  0.2654 -0.0630  0.5473
 5167TIP3    H136992   2.669   6.725   0.285  1.7756 -1.3570 -0.9679
 5167TIP3    H236993   2.804   6.793   0.275  0.7200  1.3016  1.8056
 5168TIP3   OH236994   0.067   4.975  11.434 -0.4636 -0.4133  0.9426
 5168TIP3    H136995  -0.007   4.953  11.491 -2.1165  0.9416 -0.6527
 5168TIP3    H236996   0.040   4.946  11.347  1.0587 -0.2919  0.4247
 5169TIP3   OH236997   2.241   2.967  16.265  0.2377 -0.5518  0.2813
 5169TIP3    H136998   2.155   2.928  16.252  0.5228 -0.4157 -2.1999
 5169TIP3    H236999   2.237   3.051  16.219  2.1314 -1.1961 -1.1541
 5170TIP3   OH237000   4.107   2.256  11.606  0.3866  0.4880  0.5495
 5170TIP3    H137001   4.058   2.186  11.649 -1.5647  1.8132  0.5641
 5170TIP3    H237002   4.197   2.223  11.601 -0.2193 -1.4438  1.7647
 5171TIP3   OH237003   5.664   2.766  13.682  0.2622  0.6771 -0.2974
 5171TIP3    H137004   5.701   2.803  13.762 -0.3592 -0.4406  0.5207
 5171TIP3    H237005   5.740   2.742  13.629  0.7795 -2.4050  1.7330
 5172TIP3   OH237006   3.547   4.496  11.248 -0.5922 -0.1988  0.5501
 5172TIP3    H137007   3.565   4.549  11.171 -1.0933  0.8061  1.1152
 5172TIP3    H237008   3.622   4.511  11.306 -0.6508 -0.2401  0.6367
 5173TIP3   OH237009   5.071   4.395  10.616  0.1168  0.1901  0.1299
 5173TIP3    H137010   5.047   4.484  10.589 -0.8312 -0.1732 -0.2505
 5173TIP3    H237011   5.147   4.373  10.562 -0.0371  0.5267 -0.2243
 5174TIP3   OH237012   1.606   5.546   3.579 -0.0569 -0.2316  0.1952
 5174TIP3    H137013   1.610   5.634   3.540  0.9578  0.0028  0.8085
 5174TIP3    H237014   1.565   5.492   3.512  0.1860  0.5116 -0.5651
 5175TIP3   OH237015   4.935   0.623   1.713  0.0293  0.0217  0.4693
 5175TIP3    H137016   4.854   0.579   1.686  0.2191  1.0056 -1.7935
 5175TIP3    H237017   4.978   0.560   1.771 -2.0971 -0.7202  1.2982
 5176TIP3   OH237018   5.899   2.871  12.236 -0.4587 -0.2275  0.0778
 5176TIP3    H137019   5.944   2.805  12.183 -0.3383 -1.2438  1.4165
 5176TIP3    H237020   5.920   2.848  12.326 -2.0088  0.4877  0.6422
 5177TIP3   OH237021   0.366   1.637  13.832 -0.6334 -0.2750 -0.1653
 5177TIP3    H137022   0.369   1.721  13.877 -0.1874 -0.5149  0.2594
 5177TIP3    H237023   0.275   1.628  13.804 -1.0566 -0.3763  1.1996
 5178TIP3   OH237024   4.798   1.610   1.504  0.3585 -0.0512  0.5895
 5178TIP3    H137025   4.856   1.599   1.428 -0.7830  1.2303 -0.4975
 5178TIP3    H237026   4.752   1.693   1.487  0.2030  0.3257  2.7653
 5179TIP3   OH237027   3.814   1.842  12.261  0.1935 -0.1486 -0.1502
 5179TIP3    H137028   3.854   1.923  12.228  2.0228 -0.1999  1.8314
 5179TIP3    H237029   3.801   1.789  12.183 -1.3949  2.1751 -1.5502
 5180TIP3   OH237030   1.902   1.991   5.532 -1.0513  0.3746  0.1618
 5180TIP3    H137031   1.838   2.001   5.602 -1.1163 -1.5709  0.3913
 5180TIP3    H237032   1.973   2.051   5.557 -1.7506  0.8404  1.0874
 5181TIP3   OH237033   2.866   1.896   4.868  0.2490 -0.2041  0.2372
 5181TIP3    H137034   2.852   1.900   4.773 -1.4280  0.1795  0.4787
 5181TIP3    H237035   2.930   1.966   4.886 -0.8968  1.0247 -0.3757
 5182TIP3   OH237036   4.924   3.278  13.996 -0.0239  1.1730 -0.6280
 5182TIP3    H137037   4.835   3.250  13.974  0.3967 -0.9284  0.2011
 5182TIP3    H237038   4.925   3.284  14.091  1.1162 -0.3610 -0.5131
 5183TIP3   OH237039   5.545   1.285   1.224  0.4151  0.1879 -0.7407
 5183TIP3    H137040   5.476   1.252   1.166 -1.2668  2.2225 -0.0059
 5183TIP3    H237041   5.531   1.239   1.307  0.7478 -0.3375 -0.9774
 5184TIP3   OH237042   3.159   6.010  15.112  0.0472  0.2156  0.2773
 5184TIP3    H137043   3.130   6.075  15.048 -1.4464 -1.9867 -1.3341
 5184TIP3    H237044   3.115   6.035  15.193  0.7251  2.1132  0.0861
 5185TIP3   OH237045   6.473   3.220   1.641  0.3721 -0.2948  0.4767
 5185TIP3    H137046   6.391   3.269   1.652  0.4863 -0.0208  0.1135
 5185TIP3    H237047   6.462   3.143   1.696  0.6134  0.6450  1.8533
 5186TIP3   OH237048   0.905   1.440   3.311  0.1983 -0.2289 -0.6842
 5186TIP3    H137049   0.997   1.446   3.336 -0.0739 -1.5337  0.7495
 5186TIP3    H237050   0.869   1.375   3.371 -1.1255 -1.4654 -2.7451
 5187TIP3   OH237051   4.959   2.121   3.913  0.0277 -0.3270 -0.3729
 5187TIP3    H137052   4.944   2.042   3.861  0.8521  0.0222 -1.1583
 5187TIP3    H237053   4.962   2.192   3.848 -0.1305  0.2699  0.2685
 5188TIP3   OH237054   5.747   4.732   1.952  0.6784 -0.0319  0.0658
 5188TIP3    H137055   5.715   4.719   2.041  0.3772 -0.3320 -0.0886
 5188TIP3    H237056   5.761   4.643   1.918 -0.2006  0.0655 -0.5514
 5189TIP3   OH237057   3.100   3.293   1.282 -0.1427  0.0300 -0.3743
 5189TIP3    H137058   3.127   3.268   1.194 -0.6872 -0.1394 -0.4948
 5189TIP3    H237059   3.153   3.371   1.303  3.2674 -2.5082  0.9198
 5190TIP3   OH237060   0.429   6.086   5.964  0.2093 -0.9294  0.0978
 5190TIP3    H137061   0.350   6.083   6.018  0.4899 -1.4087  0.4936
 5190TIP3    H237062   0.439   6.178   5.941 -0.4910 -0.8752  0.0078
 5191TIP3   OH237063   5.742   2.456  10.340  0.1078 -0.2618 -0.3129
 5191TIP3    H137064   5.794   2.383  10.306  1.2974  0.2177  0.4625
 5191TIP3    H237065   5.805   2.525  10.355 -1.0842  1.1493 -1.5898
 5192TIP3   OH237066   4.795   5.888  16.336  0.5067 -0.9286  0.3384
 5192TIP3    H137067   4.831   5.868  16.250 -0.6077 -0.1550 -0.3184
 5192TIP3    H237068   4.833   5.973  16.359 -0.3624 -0.4192 -0.0692
 5193TIP3   OH237069   3.878   3.710  12.819 -0.0341 -0.4216 -0.0588
 5193TIP3    H137070   3.782   3.713  12.827  0.0687 -0.7380  1.2637
 5193TIP3    H237071   3.910   3.721  12.908  1.1294 -2.1035 -0.2555
 5194TIP3   OH237072   2.318   0.885   0.557 -0.1802 -0.3837  0.7391
 5194TIP3    H137073   2.347   0.911   0.469 -0.0475 -1.2969  0.5011
 5194TIP3    H237074   2.333   0.790   0.559 -1.7297 -0.6335  1.1500
 5195TIP3   OH237075   0.513   3.377  12.098  0.0893  0.3361 -0.4582
 5195TIP3    H137076   0.582   3.428  12.055  0.0849  1.1679  0.5227
 5195TIP3    H237077   0.503   3.417  12.184 -0.6607 -0.6510 -0.0770
 5196TIP3   OH237078   4.390   0.527  13.277 -0.1154  0.3253  0.0164
 5196TIP3    H137079   4.425   0.522  13.366 -0.2269 -1.1172 -0.0103
 5196TIP3    H237080   4.341   0.609  13.275  2.0804  1.6844  0.4750
 5197TIP3   OH237081   1.161   5.670  11.690 -0.0483  0.6441 -0.1670
 5197TIP3    H137082   1.206   5.725  11.625  1.9104 -0.3538  0.2865
 5197TIP3    H237083   1.157   5.583  11.649  1.9103 -0.1942  1.2733
 5198TIP3   OH237084   0.342   2.253   3.170 -0.1215  0.2332  0.4187
 5198TIP3    H137085   0.404   2.275   3.100 -0.3067  2.0904  0.8349
 5198TIP3    H237086   0.258   2.244   3.126 -0.0689  0.4885  0.2657
 5199TIP3   OH237087   2.063   3.928  13.100 -0.2177 -0.1461 -0.1687
 5199TIP3    H137088   2.122   3.990  13.056 -0.2911  0.3457  0.4203
 5199TIP3    H237089   2.043   3.863  13.032  2.1593 -1.1410  0.0137
 5200TIP3   OH237090   6.056   1.855  13.329  0.2467  0.7520  0.3306
 5200TIP3    H137091   6.115   1.791  13.289  0.2719  0.6992  0.4531
 5200TIP3    H237092   6.112   1.930  13.351  0.1542  0.9549 -0.1289
 5201TIP3   OH237093   1.370   5.329   6.173  0.0248 -0.2726  0.0735
 5201TIP3    H137094   1.359   5.236   6.153  2.4547 -0.4339 -0.7113
 5201TIP3    H237095   1.413   5.331   6.259 -0.8593  0.1787  0.5247
 5202TIP3   OH237096   1.153   0.458  15.992 -0.0816 -0.3037  0.1139
 5202TIP3    H137097   1.094   0.388  15.964 -0.3162  0.4959 -1.4514
 5202TIP3    H237098   1.173   0.506  15.911  1.2581  0.5292  0.9274
 5203TIP3   OH237099   1.180   5.494   1.051  0.2107 -0.2493 -0.3981
 5203TIP3    H137100   1.198   5.575   1.003 -1.6525 -1.2965 -2.9852
 5203TIP3    H237101   1.255   5.437   1.033  0.5719  0.1691 -0.2131
 5204TIP3   OH237102   6.451   1.369   3.402  0.4915  0.5321 -0.1719
 5204TIP3    H137103   6.389   1.330   3.464 -0.6299  2.9123  0.2682
 5204TIP3    H237104   6.428   1.331   3.317  1.2011 -1.7755  0.6173
 5205TIP3   OH237105   0.189   4.069  12.571  0.1909  0.2632  0.0239
 5205TIP3    H137106   0.117   4.123  12.539 -1.2044 -1.5074  0.0877
 5205TIP3    H237107   0.149   4.012  12.637  2.1571  0.9320  1.8513
 5206TIP3   OH237108   5.201   4.363  16.522 -0.2218 -0.2265 -0.1522
 5206TIP3    H137109   5.105   4.356  16.524 -0.3027  0.2829 -1.6611
 5206TIP3    H237110   5.223   4.403  16.606 -1.3025 -0.5542  0.3116
 5207TIP3   OH237111   3.702   3.198  13.295  0.0420  0.2178 -0.2760
 5207TIP3    H137112   3.687   3.149  13.214  0.1716 -0.1977 -0.0538
 5207TIP3    H237113   3.705   3.289  13.269  0.9178  0.0218 -0.8555
 5208TIP3   OH237114   4.406   2.844  13.482  0.2758  0.2251  0.1819
 5208TIP3    H137115   4.472   2.880  13.424  1.2013 -0.3574  0.8657
 5208TIP3    H237116   4.454   2.786  13.541 -1.1004 -1.6786 -0.5185
 5209TIP3   OH237117   3.142   4.609   2.790 -0.1336 -0.5142 -0.6300
 5209TIP3    H137118   3.105   4.697   2.795 -0.7536 -0.8958  2.2094
 5209TIP3    H237119   3.227   4.621   2.748  1.8436  2.1619  3.8118
 5210TIP3   OH237120   3.727   1.418  11.936  0.4433 -0.3234 -0.4063
 5210TIP3    H137121   3.711   1.338  11.886  0.8051 -1.9650  2.0189
 5210TIP3    H237122   3.822   1.424  11.941  0.4920  1.7400 -2.8055
 5211TIP3   OH237123   1.483   3.077   3.427  0.7799  0.1664  0.2533
 5211TIP3    H137124   1.569   3.037   3.442  0.9507  0.2566 -0.4936
 5211TIP3    H237125   1.427   3.003   3.401  1.4378  0.6172 -2.5261
 5212TIP3   OH237126   0.282   4.227   5.752 -0.3589 -0.1511  0.2091
 5212TIP3    H137127   0.349   4.227   5.683 -1.5046 -1.0435 -0.9408
 5212TIP3    H237128   0.282   4.137   5.785  0.9275  0.5260  2.1619
 5213TIP3   OH237129   0.442   5.734   1.399  0.2682  0.1269  0.6246
 5213TIP3    H137130   0.382   5.659   1.406 -0.4822  0.7063  0.5396
 5213TIP3    H237131   0.429   5.766   1.309  1.4602 -0.3607  0.2766
 5214TIP3   OH237132   4.720   5.063  12.150 -0.5725  0.1194 -0.2590
 5214TIP3    H137133   4.652   5.000  12.173  0.7268 -1.6884 -1.1986
 5214TIP3    H237134   4.746   5.039  12.061 -0.4985  2.4162 -0.8922
 5215TIP3   OH237135   3.577   3.522   0.214  0.5836 -0.0642  0.4464
 5215TIP3    H137136   3.532   3.543   0.296  0.5262  1.7761 -0.0231
 5215TIP3    H237137   3.507   3.517   0.149  0.7926  0.2047  0.1978
 5216TIP3   OH237138   5.128   5.747  15.322 -0.0794  0.5355 -0.0680
 5216TIP3    H137139   5.138   5.820  15.260  1.3402  1.3351  1.0765
 5216TIP3    H237140   5.065   5.779  15.386 -1.0903 -0.0666 -0.7481
 5217TIP3   OH237141   2.290   1.540  12.578  0.4959 -0.0733  0.2169
 5217TIP3    H137142   2.257   1.623  12.612  3.4987  1.1227  0.3562
 5217TIP3    H237143   2.238   1.524  12.499 -2.4067  0.1918  2.0170
 5218TIP3   OH237144   0.227   5.851  16.520 -0.0323 -0.1751 -0.0857
 5218TIP3    H137145   0.209   5.926  16.464  1.6711  0.6751  0.4666
 5218TIP3    H237146   0.277   5.887  16.593 -1.7209 -1.3567  1.7086
 5219TIP3   OH237147   4.869   0.246  14.827  0.2644 -0.2225 -0.0742
 5219TIP3    H137148   4.788   0.253  14.776  0.3210  0.3553 -0.0856
 5219TIP3    H237149   4.848   0.284  14.912  0.6701  0.4039 -0.2489
 5220TIP3   OH237150   3.613   5.773  11.759  0.3837 -0.1836 -0.3490
 5220TIP3    H137151   3.676   5.747  11.826  1.6771 -0.6290 -1.7405
 5220TIP3    H237152   3.554   5.698  11.751  0.7819 -0.4930 -0.3817
 5221TIP3   OH237153   4.483   3.469  16.060 -0.1243  0.3516 -0.1073
 5221TIP3    H137154   4.422   3.395  16.053 -1.2439  1.4761 -2.7206
 5221TIP3    H237155   4.569   3.429  16.059 -0.7549 -1.1451  1.9394
 5222TIP3   OH237156   0.406   3.882   6.505 -0.0699 -0.4109 -1.1497
 5222TIP3    H137157   0.337   3.868   6.440 -1.5273  1.6584 -0.1400
 5222TIP3    H237158   0.448   3.797   6.514 -0.6010 -1.0321 -3.9057
 5223TIP3   OH237159   3.649   2.550  14.942 -0.3413  0.1016 -0.2103
 5223TIP3    H137160   3.606   2.472  14.979 -1.4160  1.1621  0.8029
 5223TIP3    H237161   3.582   2.591  14.887 -0.5691  1.6411  1.1944
 5224TIP3   OH237162   1.177   5.227   2.287  0.3403 -0.1556  0.0049
 5224TIP3    H137163   1.246   5.196   2.346 -0.3048  0.6545  1.2228
 5224TIP3    H237164   1.155   5.151   2.233  0.3351 -1.1715  1.4073
 5225TIP3   OH237165   0.861   2.857  14.182  0.0631  0.4321  0.1983
 5225TIP3    H137166   0.866   2.951  14.202 -2.1863  0.6703 -0.2440
 5225TIP3    H237167   0.768   2.835  14.193  0.0781 -1.1293 -2.4113
 5226TIP3   OH237168   5.999   4.966  13.624  0.2106 -0.0235 -0.4698
 5226TIP3    H137169   6.066   4.908  13.663  0.8698  0.1963 -1.2592
 5226TIP3    H237170   5.938   4.983  13.695  1.0036 -0.2253  0.2654
 5227TIP3   OH237171   6.770   3.529  15.554 -0.5305  0.0454 -0.9236
 5227TIP3    H137172   6.758   3.547  15.648 -0.0557 -0.6794 -0.7217
 5227TIP3    H237173   6.733   3.606  15.510 -1.1749  0.1821 -0.1536
 5228TIP3   OH237174   5.606   3.356  13.900 -0.5355  0.2304 -0.3258
 5228TIP3    H137175   5.658   3.275  13.896  0.0309  0.6226 -1.0617
 5228TIP3    H237176   5.645   3.406  13.971  0.1103  0.5315 -0.8892
 5229TIP3   OH237177   1.475   6.327  15.429 -0.2095  0.4019  0.1193
 5229TIP3    H137178   1.504   6.236  15.429  0.6305  0.6672 -0.3254
 5229TIP3    H237179   1.462   6.348  15.337 -1.3944  0.4273  0.2797
 5230TIP3   OH237180   0.421   5.231  15.995  0.5272  0.1750  0.5249
 5230TIP3    H137181   0.485   5.226  15.924  0.4470 -1.0548  0.5330
 5230TIP3    H237182   0.474   5.231  16.075  0.4740 -3.1992  0.6240
 5231TIP3   OH237183   3.362   1.110  13.207 -0.1352 -0.0657 -0.4288
 5231TIP3    H137184   3.432   1.048  13.184  0.6951  1.0668 -1.0214
 5231TIP3    H237185   3.289   1.085  13.151  0.5058  0.0753 -1.3464
 5232TIP3   OH237186   3.226   5.729   3.107 -0.0890 -0.3306 -0.1197
 5232TIP3    H137187   3.304   5.690   3.147 -0.4173 -1.5517 -0.6309
 5232TIP3    H237188   3.165   5.655   3.097 -0.8194  0.3681 -0.8787
 5233TIP3   OH237189   5.701   1.557   4.008 -0.2946 -0.2194 -0.2907
 5233TIP3    H137190   5.666   1.522   3.926  0.0510 -0.7356 -0.2136
 5233TIP3    H237191   5.632   1.617   4.039 -1.0336 -1.0860 -0.2363
 5234TIP3   OH237192   1.455   2.654  15.165  0.6222 -0.5249 -0.3577
 5234TIP3    H137193   1.382   2.658  15.227  0.5920 -1.0755 -0.3511
 5234TIP3    H237194   1.519   2.716  15.199  0.5522 -0.7325  0.1558
 5235TIP3   OH237195   1.665   4.537   1.018  0.2175  0.6667  0.0365
 5235TIP3    H137196   1.597   4.552   1.084 -1.0691 -2.4696 -0.4856
 5235TIP3    H237197   1.709   4.457   1.048 -0.9335 -1.2853 -3.3000
 5236TIP3   OH237198   3.653   0.890   0.708  0.4398 -0.1720  0.0633
 5236TIP3    H137199   3.671   0.984   0.711  0.1254 -0.0366 -1.6928
 5236TIP3    H237200   3.738   0.848   0.720  0.9734  0.3791 -1.7622
 5237TIP3   OH237201   4.695   1.692   5.049 -0.3269 -0.4152  0.0290
 5237TIP3    H137202   4.624   1.754   5.069 -1.1883 -1.1246 -0.7916
 5237TIP3    H237203   4.665   1.610   5.088 -0.1911 -0.8415 -0.7666
 5238TIP3   OH237204   6.187   1.402  11.517 -0.0274 -0.4637 -0.0170
 5238TIP3    H137205   6.110   1.366  11.560  0.9974 -1.4898  1.0227
 5238TIP3    H237206   6.153   1.458  11.448 -1.7037 -2.9743 -1.3063
 5239TIP3   OH237207   5.027   2.999   1.578  0.1858 -0.4392 -0.2105
 5239TIP3    H137208   4.967   2.930   1.551 -0.4199  0.7062 -1.8844
 5239TIP3    H237209   4.987   3.080   1.545  1.5787  0.5628  0.4872
 5240TIP3   OH237210   4.008   5.328  12.008  0.2397  0.5059  0.5642
 5240TIP3    H137211   4.095   5.361  11.983  0.1205  1.0963  0.9311
 5240TIP3    H237212   3.947   5.381  11.957  0.0849  0.2282  0.4599
 5241TIP3   OH237213   5.432   5.126  11.832 -0.1147 -0.7173  0.0193
 5241TIP3    H137214   5.381   5.045  11.833 -2.2702  0.6058 -0.4844
 5241TIP3    H237215   5.453   5.141  11.924 -1.6786 -0.6630  0.3937
 5242TIP3   OH237216   5.173   6.043   4.477 -0.2206  0.0112 -0.6513
 5242TIP3    H137217   5.200   6.002   4.395 -0.7948 -0.6245 -0.5301
 5242TIP3    H237218   5.221   6.126   4.480  2.3387 -1.4192 -0.0885
 5243TIP3   OH237219   4.948   0.220  11.912  0.2216 -0.5513 -0.3738
 5243TIP3    H137220   5.017   0.169  11.953 -0.5284 -1.1621  0.1574
 5243TIP3    H237221   4.903   0.262  11.985  1.7287  2.0710 -0.8900
 5244TIP3   OH237222   2.956   5.510   0.485 -0.0162 -0.1243  0.1841
 5244TIP3    H137223   2.962   5.444   0.554  0.9796 -0.7214 -0.4621
 5244TIP3    H237224   2.906   5.581   0.525  1.4407 -0.0144  1.9145
 5245TIP3   OH237225   1.782   5.694   4.519  0.0814  0.1223 -0.5460
 5245TIP3    H137226   1.754   5.775   4.562 -1.2212 -0.8855  0.5537
 5245TIP3    H237227   1.785   5.629   4.590 -0.5668 -1.1817 -1.6883
 5246TIP3   OH237228   0.219   1.973  10.867 -0.0442  0.1497  0.2262
 5246TIP3    H137229   0.226   1.881  10.841 -0.5715  0.7026 -1.9178
 5246TIP3    H237230   0.127   1.995  10.855  0.2264  1.1858 -0.0192
 5247TIP3   OH237231   4.412   2.577   2.416  0.1762 -0.1718  0.5108
 5247TIP3    H137232   4.334   2.626   2.389 -0.6786 -0.6388  2.0452
 5247TIP3    H237233   4.379   2.514   2.481  1.6611 -1.0983  0.3801
 5248TIP3   OH237234   5.517   3.940   1.163  0.0032  0.2152 -0.5864
 5248TIP3    H137235   5.432   3.975   1.136 -0.8106  0.6675  2.3422
 5248TIP3    H237236   5.495   3.862   1.215  1.3573  0.2512  0.0538
 5249TIP3   OH237237   4.846   6.453  15.987  0.2284  0.4938  0.6396
 5249TIP3    H137238   4.914   6.495  15.934  1.3973 -0.5974  1.2515
 5249TIP3    H237239   4.764   6.486  15.950  1.0662  1.4426 -0.4383
 5250TIP3   OH237240   0.922   1.137   2.098  0.6938  0.7222 -0.5363
 5250TIP3    H137241   0.982   1.101   2.032  0.5929  0.3220 -0.4135
 5250TIP3    H237242   0.852   1.177   2.047 -0.0240 -0.6700 -0.6847
 5251TIP3   OH237243   3.122   2.060   6.837  0.2022  0.2956  0.0111
 5251TIP3    H137244   3.205   2.104   6.857 -0.3888  1.1092  0.7443
 5251TIP3    H237245   3.126   1.978   6.887  1.0834 -0.2399 -0.9329
 5252TIP3   OH237246   4.153   2.689   2.748 -0.4720 -0.7441 -0.5106
 5252TIP3    H137247   4.143   2.784   2.741  2.7759 -0.3810 -1.3968
 5252TIP3    H237248   4.094   2.653   2.682 -0.0455  0.7945 -1.7573
 5253TIP3   OH237249   6.047   0.716  12.056  0.3888  0.0034  0.4013
 5253TIP3    H137250   6.015   0.749  12.140  0.0200  1.7107 -0.3846
 5253TIP3    H237251   6.142   0.715  12.066  0.4617  1.9360  0.2637
 5254TIP3   OH237252   5.592   2.697   3.076 -0.2962  0.0499  0.3323
 5254TIP3    H137253   5.519   2.643   3.045 -1.1924  0.9992  0.7386
 5254TIP3    H237254   5.551   2.761   3.134  0.9562  0.2076  1.0591
 5255TIP3   OH237255   0.217   3.171   1.194 -0.0230  0.0351 -0.5604
 5255TIP3    H137256   0.177   3.086   1.212  0.6929 -0.7448 -2.4515
 5255TIP3    H237257   0.276   3.186   1.267  0.0400 -1.2393 -0.3306
 5256TIP3   OH237258   5.495   4.611   0.800  0.0533 -0.6048  0.2474
 5256TIP3    H137259   5.528   4.541   0.744 -0.9421 -1.2349  0.4374
 5256TIP3    H237260   5.563   4.679   0.796 -0.8778  0.2301 -3.2801
 5257TIP3   OH237261   2.221   5.073   3.961 -0.1904 -0.2498  0.3235
 5257TIP3    H137262   2.260   4.991   3.931  1.4149  1.3515 -2.1472
 5257TIP3    H237263   2.144   5.084   3.904 -1.0042 -0.5432  1.3549
 5258TIP3   OH237264   5.058   2.491  14.874 -0.1180 -0.5654  0.3311
 5258TIP3    H137265   5.148   2.514  14.852 -0.2152 -1.3109 -0.9541
 5258TIP3    H237266   5.030   2.557  14.936  0.8374  0.5468 -0.4041
 5259TIP3   OH237267   5.324   3.730  16.590  0.2420  0.4538 -0.3474
 5259TIP3    H137268   5.256   3.751  16.654 -0.4344  1.0559 -1.2453
 5259TIP3    H237269   5.371   3.812  16.578  0.0103  0.4862 -1.0399
 5260TIP3   OH237270   0.740   5.423  13.447  0.0206 -0.2422 -0.1051
 5260TIP3    H137271   0.792   5.426  13.527 -1.4278  1.2815  0.8263
 5260TIP3    H237272   0.651   5.444  13.476 -0.8013 -1.1756 -1.8920
 5261TIP3   OH237273   3.582   6.212   5.464  0.5023  0.3295  0.2086
 5261TIP3    H137274   3.618   6.282   5.409 -1.4085 -0.3577 -1.9749
 5261TIP3    H237275   3.638   6.137   5.447  0.6634  0.4634  0.1465
 5262TIP3   OH237276   3.499   2.795  14.078  0.6696  0.5817  0.4853
 5262TIP3    H137277   3.488   2.760  13.989  0.8898  0.5548  0.4688
 5262TIP3    H237278   3.594   2.804  14.089  0.7124 -0.5806  1.1665
 5263TIP3   OH237279   3.464   4.743  13.924 -0.5607 -0.7063  0.2670
 5263TIP3    H137280   3.514   4.783  13.853 -0.9460 -0.7453 -0.0275
 5263TIP3    H237281   3.504   4.778  14.004 -1.0588  0.4803  0.0122
 5264TIP3   OH237282   6.549   1.294   5.603 -0.1418 -0.1730  0.8562
 5264TIP3    H137283   6.554   1.201   5.580 -1.8969 -0.6647  2.3849
 5264TIP3    H237284   6.465   1.323   5.568 -0.1786  0.5319  1.5201
 5265TIP3   OH237285   0.644   1.597   4.297  0.1177 -0.5586  0.3242
 5265TIP3    H137286   0.669   1.687   4.318 -0.1362 -0.4689  0.2517
 5265TIP3    H237287   0.589   1.570   4.370 -2.3822  0.4340 -1.1073
 5266TIP3   OH237288   1.942   2.492  15.474 -0.2610 -0.4129  0.1044
 5266TIP3    H137289   1.851   2.499  15.446 -0.3547  2.2592  0.9242
 5266TIP3    H237290   1.943   2.416  15.532 -2.0282 -0.2948  0.3263
 5267TIP3   OH237291   5.741   2.762   1.321 -0.4760 -0.0936  0.0468
 5267TIP3    H137292   5.733   2.721   1.406  3.2462  0.7475  0.8808
 5267TIP3    H237293   5.659   2.812   1.310 -0.9584 -0.1579  3.1210
 5268TIP3   OH237294   2.728   5.619  12.944  0.4281 -0.0700 -0.8141
 5268TIP3    H137295   2.651   5.653  12.989  0.9459  0.4197 -0.2806
 5268TIP3    H237296   2.784   5.696  12.931  0.2533 -0.1878 -2.3716
 5269TIP3   OH237297   2.287   5.040   4.459  0.0400 -0.0534  0.1860
 5269TIP3    H137298   2.264   5.076   4.374  1.9785  0.9751  0.0908
 5269TIP3    H237299   2.300   5.116   4.515  1.7505 -0.6484  0.6223
 5270TIP3   OH237300   2.811   3.444  15.053 -0.1191  0.5985 -0.4336
 5270TIP3    H137301   2.716   3.450  15.062 -0.0069  0.3292  1.0848
 5270TIP3    H237302   2.825   3.416  14.963 -1.5381 -0.5438 -0.3180
 5271TIP3   OH237303   2.851   3.758   6.343 -0.0954  0.1485  0.1612
 5271TIP3    H137304   2.767   3.757   6.389 -0.6279  2.6250 -0.6744
 5271TIP3    H237305   2.867   3.850   6.325  2.2307 -0.4043 -0.7869
 5272TIP3   OH237306   0.901   5.420   0.345 -0.1150 -0.1804 -0.3876
 5272TIP3    H137307   0.815   5.402   0.382 -0.9085  0.9626 -1.6065
 5272TIP3    H237308   0.937   5.334   0.324  0.0476 -0.7957  2.2971
 5273TIP3   OH237309   2.678   4.408   2.466  0.0426 -0.3824  0.0669
 5273TIP3    H137310   2.666   4.324   2.510  3.2428 -0.9428 -0.0528
 5273TIP3    H237311   2.769   4.432   2.483 -0.4958  2.5179 -0.8763
 5274TIP3   OH237312   4.381   3.849   1.446  0.1262 -0.4907  0.5753
 5274TIP3    H137313   4.305   3.878   1.496 -1.4464 -1.6180 -1.1038
 5274TIP3    H237314   4.364   3.757   1.428  1.9676 -0.7987  0.2521
 5275TIP3   OH237315   2.027   1.673  11.441  0.0092  0.2326  0.0633
 5275TIP3    H137316   1.970   1.610  11.484 -1.1701  1.6675  0.6772
 5275TIP3    H237317   2.098   1.687  11.503  0.5997 -0.9415 -0.3421
 5276TIP3   OH237318   6.280   4.372   0.845  0.4255 -0.0551 -0.2594
 5276TIP3    H137319   6.224   4.434   0.890 -0.3976 -0.6346 -0.4577
 5276TIP3    H237320   6.365   4.416   0.836  0.4261  0.2794  1.3107
 5277TIP3   OH237321   6.461   1.988  15.503  0.3526 -0.2264  0.0369
 5277TIP3    H137322   6.527   2.040  15.550 -1.6552  0.5362  2.0719
 5277TIP3    H237323   6.487   1.897  15.520  1.8375  0.0556 -0.5979
 5278TIP3   OH237324   1.042   5.215  13.709 -0.2240  0.0088  0.4426
 5278TIP3    H137325   1.098   5.205  13.786 -0.0656 -0.2188  0.2970
 5278TIP3    H237326   1.078   5.291  13.663  1.4036 -1.4906 -0.8603
 5279TIP3   OH237327   2.917   2.964   3.420  0.0529  0.0626  0.2461
 5279TIP3    H137328   2.932   3.004   3.334 -0.5206 -1.0595 -0.3862
 5279TIP3    H237329   2.842   2.907   3.406 -1.2766  1.3371  1.9783
 5280TIP3   OH237330   4.467   3.510  11.570 -0.2961 -0.5902  0.4425
 5280TIP3    H137331   4.555   3.539  11.547 -1.0250  1.4211  0.0924
 5280TIP3    H237332   4.462   3.522  11.665  0.0906 -1.5260  0.5852
 5281TIP3   OH237333   2.985   1.330  11.520  0.5420 -0.5184  0.1630
 5281TIP3    H137334   3.064   1.294  11.559 -0.5136 -0.8688  2.0388
 5281TIP3    H237335   2.946   1.256  11.473  2.3287  0.1531 -2.4648
 5282TIP3   OH237336   2.694   4.871  15.541  0.2027  0.0050 -0.4092
 5282TIP3    H137337   2.712   4.965  15.543 -0.3548  0.0882  0.6980
 5282TIP3    H237338   2.779   4.829  15.557  0.2926  0.3219 -0.0741
 5283TIP3   OH237339   6.743   5.444  16.888  0.4453  0.1591  0.4907
 5283TIP3    H137340   6.736   5.354  16.919 -0.7337  0.7597  2.0072
 5283TIP3    H237341   6.757   5.497  16.966 -1.6735  1.5918 -0.0427
 5284TIP3   OH237342   0.108   6.650  16.423 -0.0556  0.1601 -0.1633
 5284TIP3    H137343   0.203   6.659  16.414  0.0028 -1.0032 -0.7944
 5284TIP3    H237344   0.073   6.700  16.349  0.1105 -0.5271 -0.7109
 5285TIP3   OH237345   0.848   4.044  12.227  0.2114 -0.0038  0.2762
 5285TIP3    H137346   0.924   4.085  12.268 -0.4772  1.1979  0.3801
 5285TIP3    H237347   0.809   4.112  12.173  0.3462 -1.1939 -1.3741
 5286TIP3   OH237348   3.458   6.003   6.555  0.0687 -0.4024 -0.2861
 5286TIP3    H137349   3.439   6.074   6.616 -0.9652 -0.8147 -0.1326
 5286TIP3    H237350   3.553   6.009   6.540  0.0984  0.5536  0.2846
 5287TIP3   OH237351   2.764   0.916  11.109  0.7367  0.1567 -0.2828
 5287TIP3    H137352   2.799   0.995  11.069 -0.1074 -0.1755 -1.7305
 5287TIP3    H237353   2.836   0.880  11.161  1.8240  0.6782 -1.4172
 5288TIP3   OH237354   5.879   1.759   3.465 -0.5389 -0.3991  0.4951
 5288TIP3    H137355   5.863   1.674   3.424  1.8822 -1.4353  1.6031
 5288TIP3    H237356   5.806   1.769   3.527 -0.1728 -2.2997  1.2970
 5289TIP3   OH237357   5.641   0.607  13.473 -1.1197  0.1761  0.4360
 5289TIP3    H137358   5.724   0.631  13.432 -0.6314 -1.8923  0.1780
 5289TIP3    H237359   5.578   0.670  13.436  0.1596  1.2473  0.0217
 5290TIP3   OH237360   5.919   4.542   5.437 -0.0063  0.2722 -0.4238
 5290TIP3    H137361   5.869   4.585   5.367 -4.0788  0.0827  2.2211
 5290TIP3    H237362   5.984   4.607   5.463 -0.5792  1.5810 -2.1697
 5291TIP3   OH237363   1.245   3.233  16.626 -0.1275 -0.3167 -0.3418
 5291TIP3    H137364   1.280   3.320  16.645  0.3621 -0.9824  1.9069
 5291TIP3    H237365   1.319   3.186  16.587  0.7556 -0.8755  1.9219
 5292TIP3   OH237366   4.219   0.625  10.608 -0.4554 -0.2960 -0.0943
 5292TIP3    H137367   4.129   0.592  10.604 -0.6579  0.3763 -1.2846
 5292TIP3    H237368   4.217   0.692  10.676 -0.0992 -2.4967  2.1794
 5293TIP3   OH237369   1.047   3.779   3.003 -0.6058 -0.0425 -0.1724
 5293TIP3    H137370   1.128   3.769   2.953  0.5751  1.5550  1.3499
 5293TIP3    H237371   1.056   3.864   3.046 -2.6735 -0.2909  0.8114
 5294TIP3   OH237372   5.469   4.144   4.181  0.2471 -0.6044  0.1546
 5294TIP3    H137373   5.422   4.061   4.191 -1.1559 -0.0511 -1.6782
 5294TIP3    H237374   5.447   4.194   4.260 -0.1528 -1.3682  0.5297
 5295TIP3   OH237375   3.420   3.420  14.129 -0.4619  0.6765 -0.2058
 5295TIP3    H137376   3.429   3.487  14.061  2.8951 -1.0309 -1.5766
 5295TIP3    H237377   3.346   3.367  14.099  2.1216 -1.2064 -3.7566
 5296TIP3   OH237378   3.353   6.755   1.603  0.2623  0.3188  0.0402
 5296TIP3    H137379   3.270   6.708   1.596  0.8725 -0.5653 -1.3921
 5296TIP3    H237380   3.329   6.848   1.605 -0.7725  0.0483  0.1115
 5297TIP3   OH237381   3.611   6.080  15.156 -0.3629 -0.7211  0.6110
 5297TIP3    H137382   3.541   6.088  15.091 -0.5284  0.1330  0.8783
 5297TIP3    H237383   3.691   6.070  15.105 -0.3037  1.4375  0.2106
 5298TIP3   OH237384   0.531   2.836  11.766  0.0334 -0.4787  0.0101
 5298TIP3    H137385   0.478   2.757  11.782 -0.2540 -0.3278 -0.1984
 5298TIP3    H237386   0.480   2.907  11.803  0.2521 -0.3784  0.1166
 5299TIP3   OH237387   0.779   6.124  13.487  0.5037  0.6240  0.1645
 5299TIP3    H137388   0.798   6.217  13.472 -0.8562  0.6477 -1.5328
 5299TIP3    H237389   0.866   6.084  13.497  1.1898  1.7975 -0.8705
 5300TIP3   OH237390   1.427   4.086  11.501 -0.4165  0.6948 -0.5043
 5300TIP3    H137391   1.402   4.172  11.533 -2.7819  0.3817 -1.4696
 5300TIP3    H237392   1.445   4.098  11.408 -1.2424  0.0427 -0.7475
 5301TIP3   OH237393   5.532   5.318   0.508 -0.2242  0.1298 -0.2410
 5301TIP3    H137394   5.501   5.237   0.548  0.0420 -0.3821 -1.0745
 5301TIP3    H237395   5.619   5.332   0.546 -1.2648  1.3547  1.7920
 5302TIP3   OH237396   4.443   3.382  17.154 -0.4195 -0.1348  0.0061
 5302TIP3    H137397   4.504   3.443  17.113 -1.1057  0.2430 -0.4618
 5302TIP3    H237398   4.429   3.416  17.242  1.4961 -1.2567  0.7633
 5303TIP3   OH237399   5.084   2.633   4.975 -0.6449 -0.1440 -0.2176
 5303TIP3    H137400   5.133   2.652   4.895  0.3453  1.0581  0.6588
 5303TIP3    H237401   5.038   2.715   4.995  0.2022 -0.0013  1.1874
 5304TIP3   OH237402   4.143   2.976  13.408  0.0004 -0.3188  0.9841
 5304TIP3    H137403   4.190   3.050  13.369  0.0344  0.4699  2.4873
 5304TIP3    H237404   4.211   2.927  13.454  0.1011 -1.7078 -0.6204
 5305TIP3   OH237405   4.748   6.763  14.055 -0.0040 -0.0070  0.4574
 5305TIP3    H137406   4.785   6.691  14.106 -0.3334 -0.4087  0.1304
 5305TIP3    H237407   4.668   6.787  14.102 -1.5907 -1.9565 -1.1441
 5306TIP3   OH237408   3.919   3.973  11.440  0.3544  0.6442 -0.5557
 5306TIP3    H137409   3.909   4.068  11.435 -1.3278  0.5059  0.0349
 5306TIP3    H237410   3.980   3.952  11.370  1.3378  2.2485 -0.1960
 5307TIP3   OH237411   0.032   3.587  11.387  0.2841  0.0772 -0.1119
 5307TIP3    H137412   0.026   3.673  11.346  1.2766  0.2652  0.1369
 5307TIP3    H237413  -0.018   3.596  11.469  3.5279  1.5769  1.8304
 5308TIP3   OH237414   0.685   2.274   0.121  1.0293  0.0705  0.4314
 5308TIP3    H137415   0.662   2.361   0.087  2.4531  0.9797  1.7265
 5308TIP3    H237416   0.781   2.275   0.126  0.9605 -0.7927  2.4755
 5309TIP3   OH237417   3.892   1.137   6.335  0.2712  0.4304 -0.8016
 5309TIP3    H137418   3.831   1.184   6.392  1.1121  1.5313 -0.8130
 5309TIP3    H237419   3.910   1.055   6.382  1.1957  1.4579  0.6761
 5310TIP3   OH237420   0.497   0.446  15.346  0.7604  0.2178  0.0637
 5310TIP3    H137421   0.550   0.394  15.407 -1.0781 -1.0051  0.6881
 5310TIP3    H237422   0.544   0.441  15.263  1.8470 -0.4473  0.6999
 5311TIP3   OH237423   3.087   0.246  13.655 -0.0658 -0.4938  0.1970
 5311TIP3    H137424   2.994   0.226  13.642 -0.4282  1.0463  0.3571
 5311TIP3    H237425   3.097   0.256  13.749  0.2739 -0.6426  0.1777
 5312TIP3   OH237426   5.513   3.940  12.122  0.0288 -0.3035 -0.0370
 5312TIP3    H137427   5.476   3.925  12.035 -2.6747 -1.3225  1.2297
 5312TIP3    H237428   5.539   3.853  12.152  0.0449 -0.1005  0.5438
 5313TIP3   OH237429   6.478   3.560   6.898 -0.4215  0.5104  0.4384
 5313TIP3    H137430   6.543   3.630   6.901 -0.1655  0.2442  1.0445
 5313TIP3    H237431   6.515   3.496   6.837 -0.4607  0.7022  0.2105
 5314TIP3   OH237432   2.696   4.694  16.708  0.3676 -0.1764 -0.0766
 5314TIP3    H137433   2.651   4.660  16.785  0.6354 -0.9464 -0.2546
 5314TIP3    H237434   2.712   4.617  16.654  0.8669  0.2531 -0.5402
 5315TIP3   OH237435   0.072   6.576   6.485  0.2721 -0.7024  0.2561
 5315TIP3    H137436   0.116   6.642   6.539 -1.1902 -0.6001  1.3789
 5315TIP3    H237437   0.129   6.499   6.489  1.2483  0.0105  0.1741
 5316TIP3   OH237438   3.540   2.286   5.917 -0.6966 -0.0340  0.0378
 5316TIP3    H137439   3.558   2.380   5.919  0.5124 -0.2669  0.6404
 5316TIP3    H237440   3.591   2.254   5.842  0.0058 -0.4194  0.6739
 5317TIP3   OH237441   5.397   3.663   1.417  0.0107  0.4762  0.5508
 5317TIP3    H137442   5.334   3.663   1.345  0.6027 -0.1466  0.0214
 5317TIP3    H237443   5.347   3.691   1.493 -1.2160 -1.1986  0.3897
 5318TIP3   OH237444   1.432   0.900   5.419  0.7110 -0.8605 -0.3840
 5318TIP3    H137445   1.442   0.993   5.438  3.1895 -1.2232  0.1694
 5318TIP3    H237446   1.352   0.875   5.466  1.3444  0.4542  1.4386
 5319TIP3   OH237447   2.890   4.536  13.664 -0.1529  0.4185 -0.2401
 5319TIP3    H137448   2.866   4.447  13.689 -1.3404  0.9493  0.5599
 5319TIP3    H237449   2.983   4.531  13.642  0.9647 -0.1170  4.1963
 5320TIP3   OH237450   4.871   0.183  13.455  0.4359  0.0170 -0.1067
 5320TIP3    H137451   4.885   0.126  13.380  0.7985  0.8128 -0.6532
 5320TIP3    H237452   4.893   0.271  13.423 -1.9157  0.7481  0.1785
 5321TIP3   OH237453   4.050   5.413   0.339 -0.2128  0.4882  1.1472
 5321TIP3    H137454   4.066   5.458   0.422 -0.3331  1.3293  0.7266
 5321TIP3    H237455   4.109   5.457   0.277 -0.7761  0.4789  0.6000
 5322TIP3   OH237456   4.106   3.525  12.971 -0.4103 -0.4049 -0.4711
 5322TIP3    H137457   4.139   3.570  13.048  0.1029  0.3203 -1.1053
 5322TIP3    H237458   4.129   3.582  12.897 -1.0918 -0.9738 -1.1420
 5323TIP3   OH237459   6.481   2.207   4.815 -0.3585 -0.7112 -0.6712
 5323TIP3    H137460   6.424   2.267   4.767 -0.0682 -0.2624 -0.4529
 5323TIP3    H237461   6.562   2.205   4.764  0.5829  1.1074  0.7223
 5324TIP3   OH237462   6.203   1.137   0.407  0.7150  0.2968  0.4148
 5324TIP3    H137463   6.180   1.079   0.335  0.0988  2.3876 -1.0971
 5324TIP3    H237464   6.135   1.121   0.473 -1.4546  1.7899 -1.4079
 5325TIP3   OH237465   0.048   6.237  16.146  0.0214  0.6863  0.2632
 5325TIP3    H137466   0.039   6.222  16.052 -0.8917  0.9368  0.3099
 5325TIP3    H237467   0.064   6.150  16.183 -0.4395  0.4754 -0.0306
 5326TIP3   OH237468   5.884   3.627   4.716  0.0058 -0.1498  0.0652
 5326TIP3    H137469   5.869   3.690   4.645  1.4819  1.2412  0.9357
 5326TIP3    H237470   5.964   3.581   4.689 -0.6284 -1.1036 -0.1878
 5327TIP3   OH237471   3.439   4.756  14.427 -0.1302 -0.3865 -0.2656
 5327TIP3    H137472   3.392   4.832  14.460 -0.0425 -0.5848  0.3203
 5327TIP3    H237473   3.532   4.777  14.440 -0.0874 -0.3941 -0.5483
 5328TIP3   OH237474   2.142   4.131  10.981  0.3498  0.1905 -0.1297
 5328TIP3    H137475   2.194   4.052  10.962 -1.4289 -0.2248 -3.5176
 5328TIP3    H237476   2.067   4.099  11.030  1.3325  0.3110  1.5244
 5329TIP3   OH237477   3.014   5.438   3.647  0.0610  0.0918  0.8903
 5329TIP3    H137478   3.015   5.407   3.557 -2.0101 -1.3902  1.3282
 5329TIP3    H237479   3.014   5.533   3.640  1.5705  0.0188 -0.6050
 5330TIP3   OH237480   2.220   4.793   0.367 -0.4282  0.6851  0.1286
 5330TIP3    H137481   2.135   4.832   0.347 -0.6364  1.1913  1.8825
 5330TIP3    H237482   2.275   4.815   0.292 -1.6279  0.9868 -0.6836
 5331TIP3   OH237483   6.122   6.379   1.707 -0.2602 -0.3944  0.3167
 5331TIP3    H137484   6.172   6.384   1.626  0.0502 -1.0476  0.4639
 5331TIP3    H237485   6.100   6.286   1.715 -0.2356 -0.3387  1.0154
 5332TIP3   OH237486   1.879   1.000   4.876  0.1062 -0.3154 -0.4520
 5332TIP3    H137487   1.822   0.926   4.852  0.1595 -0.1637 -1.0779
 5332TIP3    H237488   1.861   1.066   4.809  0.8347 -0.1693 -0.5124
 5333TIP3   OH237489   4.027   1.894   2.301  0.2272 -0.4039 -0.1570
 5333TIP3    H137490   4.075   1.896   2.218  1.7162 -0.9423  0.6702
 5333TIP3    H237491   4.051   1.977   2.344  1.0504 -1.0268  0.6016
 5334TIP3   OH237492   1.143   2.389  11.724 -0.0346 -0.6715  0.1415
 5334TIP3    H137493   1.088   2.445  11.778 -1.0391 -1.7294  0.2232
 5334TIP3    H237494   1.177   2.447  11.656  0.3316  0.4152  1.2357
 5335TIP3   OH237495   5.163   5.318   1.482 -0.0315 -0.1657 -0.2807
 5335TIP3    H137496   5.080   5.275   1.503  0.4886 -1.7813 -1.4210
 5335TIP3    H237497   5.139   5.407   1.456 -1.2507 -0.1663  0.7953
 5336TIP3   OH237498   2.551   1.832   2.190  0.0256 -0.3286  0.0169
 5336TIP3    H137499   2.634   1.880   2.188 -0.6806  0.9764  1.1063
 5336TIP3    H237500   2.525   1.824   2.098  1.0932 -0.2926 -0.2889
 5337TIP3   OH237501   5.671   5.521   5.132  0.7389 -0.7616  0.3499
 5337TIP3    H137502   5.695   5.535   5.223 -0.0720 -0.8163  0.5729
 5337TIP3    H237503   5.588   5.473   5.135  0.2288  0.0323 -0.3982
 5338TIP3   OH237504   2.983   5.305   4.150 -0.5797 -0.3037  0.1896
 5338TIP3    H137505   2.964   5.394   4.122  0.4114 -0.5417 -1.2684
 5338TIP3    H237506   3.057   5.313   4.210  1.8888 -0.4548 -2.7123
 5339TIP3   OH237507   4.484   5.901  11.935  0.0307  0.5039  0.1320
 5339TIP3    H137508   4.562   5.928  11.983  0.0736  0.9561 -0.1876
 5339TIP3    H237509   4.516   5.872  11.850 -0.1991  1.1699 -0.1843
 5340TIP3   OH237510   0.440   1.758  12.316 -0.3894 -0.1434 -0.0066
 5340TIP3    H137511   0.391   1.718  12.245  0.2293  0.6030 -0.8588
 5340TIP3    H237512   0.374   1.803  12.368 -0.8445 -0.7088 -0.0822
 5341TIP3   OH237513   5.040   6.761  17.197  0.5665 -0.3337  0.6679
 5341TIP3    H137514   5.048   6.671  17.228 -3.2277 -0.5750  1.1302
 5341TIP3    H237515   5.004   6.810  17.271 -1.6208  0.6146 -0.9716
 5342TIP3   OH237516   2.323   4.931   0.662  0.1646 -0.2063 -0.2005
 5342TIP3    H137517   2.296   4.902   0.574  0.3788 -0.9720 -0.0160
 5342TIP3    H237518   2.309   5.026   0.661  0.4535 -0.1676 -1.1684
 5343TIP3   OH237519   4.451   4.488  11.296 -0.0261  0.3324  0.6247
 5343TIP3    H137520   4.372   4.478  11.244 -0.2811  3.1656  0.3771
 5343TIP3    H237521   4.493   4.402  11.294 -1.5891 -0.4084 -1.7064
 5344TIP3   OH237522   2.391   3.091   0.057  0.0100 -0.8617 -0.5301
 5344TIP3    H137523   2.433   3.148  -0.008 -0.1928  1.1580  1.0392
 5344TIP3    H237524   2.300   3.086   0.028 -0.5120  1.5672  0.5565
 5345TIP3   OH237525   3.234   0.252   0.714  0.0116  0.2711  0.9006
 5345TIP3    H137526   3.246   0.245   0.809  1.2389 -0.9871  0.6788
 5345TIP3    H237527   3.300   0.315   0.686  2.2243 -2.1702  0.4356
 5346TIP3   OH237528   2.227   5.946  15.169  0.1858 -0.2804  0.2751
 5346TIP3    H137529   2.319   5.967  15.186  0.3450 -0.4914 -0.3122
 5346TIP3    H237530   2.177   6.013  15.216  0.6569  0.5994 -0.4678
 5347TIP3   OH237531   0.140   3.965   3.287 -0.1454  0.0406 -0.7159
 5347TIP3    H137532   0.140   4.029   3.216  0.5908  0.5805 -0.2307
 5347TIP3    H237533   0.133   4.017   3.367 -0.7150 -0.5514 -0.3779
 5348TIP3   OH237534   6.746   5.548   3.009 -0.9086  0.2230 -0.1866
 5348TIP3    H137535   6.679   5.594   3.059 -0.9805  1.3724 -1.3163
 5348TIP3    H237536   6.790   5.617   2.959  1.9667 -0.3265  1.4707
 5349TIP3   OH237537   4.522   0.292   3.104  0.3910  0.2505  0.4989
 5349TIP3    H137538   4.472   0.316   3.182  0.1785 -1.2102  0.8148
 5349TIP3    H237539   4.496   0.357   3.038 -2.6813 -1.0728  0.3471
 5350TIP3   OH237540   0.620   2.401   5.466  0.1387 -0.6913  0.0725
 5350TIP3    H137541   0.531   2.371   5.446  1.3414 -2.4765 -2.9485
 5350TIP3    H237542   0.624   2.489   5.427 -1.1691  0.6135  2.7729
 5351TIP3   OH237543   1.108   1.764   4.356  0.3978 -0.1762 -0.2584
 5351TIP3    H137544   1.039   1.779   4.291  0.0221 -0.5336  0.0555
 5351TIP3    H237545   1.063   1.766   4.440  1.1639  2.0966  0.1348
 5352TIP3   OH237546   5.673   3.182  12.839  0.3232  0.6161  0.6124
 5352TIP3    H137547   5.584   3.150  12.841  0.4176  0.3193  0.1175
 5352TIP3    H237548   5.684   3.228  12.922 -0.1584  0.3153  0.8410
 5353TIP3   OH237549   6.146   4.495  12.003 -0.5740  0.3548 -0.0323
 5353TIP3    H137550   6.213   4.427  12.003 -1.3721 -0.4513  0.4961
 5353TIP3    H237551   6.134   4.517  11.911  0.0428  0.1370 -0.1704
 5354TIP3   OH237552   4.323   0.495   3.837  0.2927 -0.2878  0.3175
 5354TIP3    H137553   4.309   0.421   3.778 -4.6568 -1.2710  2.4903
 5354TIP3    H237554   4.359   0.456   3.916  0.1685  0.0214  0.5252
 5355TIP3   OH237555   6.021   1.314  17.123 -0.1417  0.2418 -0.1709
 5355TIP3    H137556   6.110   1.320  17.159 -0.7767 -0.8630  1.6605
 5355TIP3    H237557   5.995   1.223  17.141 -0.9854  0.0546 -2.2830
 5356TIP3   OH237558   6.091   2.248  12.519  0.1501 -0.2662  0.3699
 5356TIP3    H137559   6.102   2.311  12.590  1.7744 -0.8279  0.6294
 5356TIP3    H237560   6.026   2.186  12.552 -0.6377  0.6410  0.5397
 5357TIP3   OH237561   3.314   0.106   4.303  0.1444 -0.4540 -0.3215
 5357TIP3    H137562   3.388   0.158   4.272  0.0860 -0.4475 -0.4549
 5357TIP3    H237563   3.331   0.018   4.269  0.9304 -0.8387  1.0539
 5358TIP3   OH237564   0.286   0.241   1.259  0.6409 -0.9117 -0.1352
 5358TIP3    H137565   0.341   0.213   1.333  0.7584 -3.2611 -1.0654
 5358TIP3    H237566   0.347   0.243   1.185  0.2975  0.4324 -0.3956
 5359TIP3   OH237567   2.293   4.475   3.169  0.0484  0.3511  0.0212
 5359TIP3    H137568   2.208   4.447   3.201 -0.4803 -0.7424 -2.2143
 5359TIP3    H237569   2.275   4.554   3.118  0.5563  0.7854  0.5012
 5360TIP3   OH237570   0.656   0.476  16.792  0.2643  0.1723  0.5074
 5360TIP3    H137571   0.751   0.476  16.802  0.3256  1.3589 -0.0205
 5360TIP3    H237572   0.638   0.402  16.735  0.5521 -2.1710  3.3164
 5361TIP3   OH237573   3.052   0.757   3.932 -0.0075  0.1169 -0.3121
 5361TIP3    H137574   3.078   0.709   3.853  1.5801  1.1057 -0.4115
 5361TIP3    H237575   3.131   0.805   3.958 -0.8006  0.5799  1.3129
 5362TIP3   OH237576   1.932   6.150   2.696  0.5239 -0.2074  0.0659
 5362TIP3    H137577   1.927   6.098   2.776 -0.1632 -0.4504 -0.1344
 5362TIP3    H237578   2.017   6.127   2.658  0.2846 -1.0894  0.0490
 5363TIP3   OH237579   6.005   2.822   1.364 -0.2929  0.4323  0.4516
 5363TIP3    H137580   5.911   2.823   1.383 -0.6126  0.7601 -1.0961
 5363TIP3    H237581   6.018   2.893   1.302  1.1099  0.8166  1.1660
 5364TIP3   OH237582   2.867   1.102  11.398  0.0862 -0.0369  0.4855
 5364TIP3    H137583   2.852   1.159  11.322  0.5289  1.1415  1.2755
 5364TIP3    H237584   2.931   1.037  11.367 -1.9697 -1.4027 -1.0472
 5365TIP3   OH237585   4.927   3.721  15.205 -0.4548  0.4503  0.5217
 5365TIP3    H137586   4.946   3.667  15.128 -2.0804  0.7647 -0.1177
 5365TIP3    H237587   5.008   3.718  15.257  0.6764  0.3003 -1.2213
 5366TIP3   OH237588   0.009   4.619  11.415 -0.1127  0.3276 -0.6535
 5366TIP3    H137589   0.062   4.602  11.493 -0.3181 -0.0429 -0.5935
 5366TIP3    H237590  -0.001   4.714  11.413 -1.0226  0.2571  0.3714
 5367TIP3   OH237591   5.932   4.685   1.085  0.5487  0.0787 -0.0281
 5367TIP3    H137592   5.875   4.650   1.153 -0.7113 -1.5349 -1.8631
 5367TIP3    H237593   5.972   4.762   1.125 -1.3576  0.0744  1.9962
 5368TIP3   OH237594   0.783   6.779   2.697  0.7304  0.2539 -0.3643
 5368TIP3    H137595   0.808   6.840   2.628  1.3495 -0.0484 -0.4107
 5368TIP3    H237596   0.864   6.733   2.720  1.0667  2.0373  2.2503
 5369TIP3   OH237597   2.131   6.672   4.357 -0.1578  0.0361  0.2275
 5369TIP3    H137598   2.098   6.705   4.441 -1.6541  0.4011 -0.4805
 5369TIP3    H237599   2.068   6.606   4.331 -0.5147  0.9668 -1.3177
 5370TIP3   OH237600   1.634   3.257   0.314  1.1036 -0.4183  0.4798
 5370TIP3    H137601   1.690   3.182   0.294  0.9388 -1.2915  3.1201
 5370TIP3    H237602   1.545   3.225   0.301  1.0486 -0.5378  1.1478
 5371TIP3   OH237603   1.304   1.677   1.221  0.1532 -0.1267  0.2447
 5371TIP3    H137604   1.226   1.625   1.241 -1.0263  1.1059 -1.0050
 5371TIP3    H237605   1.319   1.663   1.128  2.3250 -1.5137  0.7879
 5372TIP3   OH237606   3.294   1.470   0.302 -0.2232  0.4962  0.2421
 5372TIP3    H137607   3.269   1.396   0.247 -1.5460  2.0489 -1.3066
 5372TIP3    H237608   3.368   1.438   0.354 -1.0964 -2.0489 -0.0257
 5373TIP3   OH237609   4.547   4.289   0.640 -0.4065 -0.2542 -0.7260
 5373TIP3    H137610   4.641   4.268   0.636 -0.3091  0.2145 -0.9552
 5373TIP3    H237611   4.504   4.214   0.599 -0.1155 -0.3812 -0.8007
 5374TIP3   OH237612   5.049   1.188  14.357  0.3720  0.3728  0.2826
 5374TIP3    H137613   5.141   1.180  14.333  1.6980  2.2779  4.1873
 5374TIP3    H237614   5.024   1.101  14.389  1.8329  0.6233  2.2056
 5375TIP3   OH237615   2.790   2.462  14.807  0.7942  0.3247 -0.1415
 5375TIP3    H137616   2.703   2.497  14.827  0.7249 -1.2513  2.5170
 5375TIP3    H237617   2.780   2.367  14.813  2.1290 -0.0021 -2.4165
 5376TIP3   OH237618   4.890   6.131  16.412 -0.2269 -0.6715 -0.1712
 5376TIP3    H137619   4.864   6.214  16.370  0.3451 -0.7586 -0.6983
 5376TIP3    H237620   4.879   6.148  16.505 -1.3560 -0.4205 -0.3439
 5377TIP3   OH237621   0.252   0.282   5.840  0.4060 -0.4934  0.0365
 5377TIP3    H137622   0.242   0.322   5.927 -0.2130  0.8922 -0.6664
 5377TIP3    H237623   0.214   0.195   5.849 -1.4735  0.3668  0.6227
 5378TIP3   OH237624   4.854   6.696  15.023 -0.5272 -0.2055  0.4645
 5378TIP3    H137625   4.867   6.617  14.970 -0.5288 -0.3113  0.6230
 5378TIP3    H237626   4.916   6.759  14.987  0.2130 -0.6141  1.0307
 5379TIP3   OH237627   2.901   4.057   4.486  0.1149  0.0703 -0.0622
 5379TIP3    H137628   2.844   4.124   4.448 -0.2027 -0.4020 -0.4156
 5379TIP3    H237629   2.971   4.107   4.528  0.9950  0.5861 -2.1001
 5380TIP3   OH237630   2.383   1.801   0.699  0.7306  0.4345  0.0445
 5380TIP3    H137631   2.365   1.867   0.632 -1.0826  0.8982  0.9553
 5380TIP3    H237632   2.419   1.850   0.773 -0.7593  0.4662  0.7784
 5381TIP3   OH237633   0.290   0.253  14.453  0.0797  0.0731 -0.1291
 5381TIP3    H137634   0.281   0.210  14.538  1.3700 -0.3646 -0.2047
 5381TIP3    H237635   0.266   0.344  14.470  1.5279  0.2616  0.9840
 5382TIP3   OH237636   4.366   1.400  12.425 -0.5544 -0.0505 -0.2937
 5382TIP3    H137637   4.424   1.476  12.422 -0.4941 -0.1088 -0.6918
 5382TIP3    H237638   4.286   1.431  12.466 -0.0818 -0.0744  0.6503
 5383TIP3   OH237639   5.245   3.078  15.448  0.6483  0.2277  0.7166
 5383TIP3    H137640   5.314   3.130  15.407  0.9043  0.5407  1.5187
 5383TIP3    H237641   5.190   3.142  15.493 -0.6683  0.0596 -0.6137
 5384TIP3   OH237642   1.451   2.510   2.767  0.6894 -1.2907 -0.0436
 5384TIP3    H137643   1.473   2.600   2.741 -0.8356 -0.5716  1.0516
 5384TIP3    H237644   1.507   2.455   2.713  1.7799  0.3311 -0.6078
 5385TIP3   OH237645   3.808   6.549   4.136 -0.4895  0.8276 -0.0372
 5385TIP3    H137646   3.893   6.559   4.093  0.0623  0.5879  0.9736
 5385TIP3    H237647   3.777   6.463   4.108 -0.1687  0.7053 -0.0216
 5386TIP3   OH237648   4.481   6.779  11.990 -0.5894  0.7673  0.4528
 5386TIP3    H137649   4.513   6.853  12.040  3.3448 -0.7652  0.4483
 5386TIP3    H237650   4.545   6.768  11.919 -1.9541 -1.6138 -0.5092
 5387TIP3   OH237651   3.897   6.331   3.137 -0.3405  0.2273  0.3100
 5387TIP3    H137652   3.991   6.314   3.135 -0.2585  0.7615 -0.9629
 5387TIP3    H237653   3.862   6.275   3.068 -0.7072  1.4719 -0.5238
 5388TIP3   OH237654   1.862   5.874  15.625  0.0453 -0.1869  0.1267
 5388TIP3    H137655   1.868   5.779  15.633  0.9491 -0.2736 -1.2946
 5388TIP3    H237656   1.818   5.889  15.541 -0.4834  0.6524  0.5432
 5389TIP3   OH237657   2.116   2.475   0.245  0.2158  0.1724  0.2148
 5389TIP3    H137658   2.119   2.403   0.182  1.0272  0.1024  0.3290
 5389TIP3    H237659   2.173   2.542   0.208 -0.9818  0.9866 -0.1657
 5390TIP3   OH237660   2.943   2.373   1.909  0.3821 -0.1218  0.5330
 5390TIP3    H137661   2.884   2.388   1.983 -0.3075  1.2569 -0.2719
 5390TIP3    H237662   3.030   2.362   1.949 -0.1441 -0.4318  1.6062
 5391TIP3   OH237663   3.087   3.751   3.717 -0.8437  0.6289 -0.2190
 5391TIP3    H137664   3.146   3.810   3.670  3.0369 -2.5564  0.4297
 5391TIP3    H237665   3.117   3.754   3.807 -0.0198 -2.9298 -0.3268
 5392TIP3   OH237666   1.296   2.604  16.547  0.1879  0.4447  0.1178
 5392TIP3    H137667   1.327   2.580  16.460 -0.5786 -0.1939  0.0013
 5392TIP3    H237668   1.272   2.696  16.541 -1.5655 -0.0509 -0.8728
 5393TIP3   OH237669   1.720   2.794  16.170  0.2736  0.3911  0.1888
 5393TIP3    H137670   1.778   2.730  16.130  0.6482  0.3834  0.7340
 5393TIP3    H237671   1.777   2.843  16.231 -0.1602  0.7697  0.2934
 5394TIP3   OH237672   0.388   5.825  13.047  0.1799  0.1640  0.2266
 5394TIP3    H137673   0.301   5.813  13.085 -0.0853 -0.7963 -0.6393
 5394TIP3    H237674   0.441   5.860  13.118 -0.2084 -1.9176  1.5824
 5395TIP3   OH237675   4.396   5.534  12.164 -0.0204 -0.2445 -0.0369
 5395TIP3    H137676   4.404   5.573  12.251 -1.6910  1.7111 -0.7025
 5395TIP3    H237677   4.324   5.471  12.171  1.9668 -2.4796  0.7682
 5396TIP3   OH237678   3.499   3.945  14.421  0.1765 -0.3060 -0.1322
 5396TIP3    H137679   3.411   3.965  14.390 -0.2235  0.6315  1.5493
 5396TIP3    H237680   3.498   3.852  14.442 -0.7191 -0.0882  0.8258
 5397TIP3   OH237681   1.042   5.790   5.075  0.0136 -0.6190 -0.3432
 5397TIP3    H137682   1.105   5.809   5.144 -2.2766 -0.1911  1.6911
 5397TIP3    H237683   1.016   5.699   5.090 -2.1336  0.1492  0.7598
 5398TIP3   OH237684   6.752   2.709  10.372 -0.1137  0.1351 -0.3163
 5398TIP3    H137685   6.786   2.675  10.290 -1.2128 -2.7315  0.3800
 5398TIP3    H237686   6.701   2.638  10.409 -1.7535  2.2377  1.6441
 5399TIP3   OH237687   6.806   0.806  13.469 -0.0199  0.0500 -0.0666
 5399TIP3    H137688   6.883   0.767  13.510 -0.8468  0.8653  2.3354
 5399TIP3    H237689   6.771   0.737  13.412  2.8478 -0.0854 -1.7300
 5400TIP3   OH237690   1.418   0.430  15.628  0.0282  0.2845  0.3139
 5400TIP3    H137691   1.347   0.389  15.678  0.5338  0.2971  1.0515
 5400TIP3    H237692   1.393   0.417  15.537 -1.5187  1.3270  0.5671
 5401TIP3   OH237693   0.159   3.021  16.931 -0.4929  0.4492  0.0910
 5401TIP3    H137694   0.075   3.045  16.892 -0.1791  0.9113 -0.3087
 5401TIP3    H237695   0.194   3.104  16.965  0.7053  0.6271 -1.5074
 5402TIP3   OH237696   0.572   3.555   0.191  0.2443 -0.3355 -0.2821
 5402TIP3    H137697   0.564   3.569   0.097  0.5581 -1.4950 -0.4923
 5402TIP3    H237698   0.605   3.638   0.226 -0.3363  0.2485 -1.1285
 5403TIP3   OH237699   5.599   0.389   5.957 -0.0771  0.2592  0.0795
 5403TIP3    H137700   5.658   0.461   5.977 -2.0472  2.0291 -0.2720
 5403TIP3    H237701   5.535   0.390   6.028 -0.6453 -0.5908 -0.4072
 5404TIP3   OH237702   3.612   5.325  15.053  0.3923  0.4183  0.6103
 5404TIP3    H137703   3.536   5.312  15.110  1.3281 -0.5268  1.6704
 5404TIP3    H237704   3.579   5.305  14.965 -1.8919  4.8421  0.2898
 5405TIP3   OH237705   3.189   1.247   0.174 -0.4005 -0.2949  0.3278
 5405TIP3    H137706   3.118   1.230   0.111  0.7122 -4.0600 -0.0466
 5405TIP3    H237707   3.151   1.223   0.259  0.5278 -2.9122  0.0535
 5406TIP3   OH237708   6.694   0.056  12.375 -0.2028 -0.0512 -0.2171
 5406TIP3    H137709   6.705  -0.001  12.299 -3.2089 -0.4339 -0.4184
 5406TIP3    H237710   6.741   0.136  12.351  0.2335 -0.7644 -1.8249
 5407TIP3   OH237711   3.071   4.869   3.966 -0.1273 -0.2929 -0.6867
 5407TIP3    H137712   3.157   4.872   4.008  0.0628 -1.9570 -0.9106
 5407TIP3    H237713   3.087   4.825   3.882 -1.1304 -0.2621 -0.9006
 5408TIP3   OH237714   0.586   5.269  16.210 -0.3981  0.9211 -0.3072
 5408TIP3    H137715   0.514   5.253  16.271 -0.3456  0.7120 -0.3024
 5408TIP3    H237716   0.590   5.365  16.203 -0.9859  0.9281 -0.6686
 5409TIP3   OH237717   6.461   1.832  15.784 -0.2602  0.0531  1.0496
 5409TIP3    H137718   6.411   1.751  15.778 -1.0422  0.4499  1.9226
 5409TIP3    H237719   6.551   1.806  15.766 -0.5968 -0.8924  0.6803
 5410TIP3   OH237720   1.823   2.555  13.522  0.2723  0.1804  0.5396
 5410TIP3    H137721   1.787   2.508  13.446  0.8576 -0.3032  0.5551
 5410TIP3    H237722   1.902   2.506  13.545 -0.5351 -0.3629  2.1988
 5411TIP3   OH237723   4.362   1.886   5.928  0.5308 -0.4675  0.4263
 5411TIP3    H137724   4.309   1.934   5.992  1.0938  0.6568  0.0689
 5411TIP3    H237725   4.303   1.870   5.855  0.5309  0.2834  0.2632
 5412TIP3   OH237726   2.822   4.666  15.668 -0.6783  0.5876  0.2568
 5412TIP3    H137727   2.836   4.657  15.762  0.0236  0.3649  0.1293
 5412TIP3    H237728   2.750   4.607  15.649 -0.3395  0.0817  0.5291
 5413TIP3   OH237729   1.148   0.022   4.849  0.0133 -0.3311 -0.0882
 5413TIP3    H137730   1.072  -0.010   4.799  0.7219  0.2189 -1.5397
 5413TIP3    H237731   1.121   0.108   4.881 -0.5990 -0.8622  0.8618
 5414TIP3   OH237732   6.681   3.673   2.271  0.1287  0.4361  0.2114
 5414TIP3    H137733   6.666   3.689   2.178 -1.3354 -1.5968  0.0837
 5414TIP3    H237734   6.613   3.612   2.297  1.0623  0.2817  2.4323
 5415TIP3   OH237735   3.924   0.685   5.120  0.3630 -0.0055 -0.6361
 5415TIP3    H137736   3.875   0.710   5.042  1.0073  1.4797 -0.5790
 5415TIP3    H237737   3.915   0.589   5.125 -2.0898  0.1781 -0.9096
 5416TIP3   OH237738   3.181   1.287  15.445  0.0949 -0.2029  0.0118
 5416TIP3    H137739   3.204   1.257  15.357 -0.6760 -0.7763 -0.0058
 5416TIP3    H237740   3.102   1.339  15.433 -1.1762 -1.9315  0.5883
 5417TIP3   OH237741   4.493   0.956   0.946  0.0480  0.1993  0.0881
 5417TIP3    H137742   4.558   0.941   0.877  0.2914  2.0020 -0.0891
 5417TIP3    H237743   4.544   0.963   1.027  0.0261  1.1440  0.0169
 5418TIP3   OH237744   3.744   3.231   2.643 -0.3769  0.2126 -0.1559
 5418TIP3    H137745   3.754   3.250   2.736 -0.2856 -0.2074 -0.0806
 5418TIP3    H237746   3.773   3.141   2.633 -3.0863 -0.7184 -0.0919
 5419TIP3   OH237747   5.591   2.914   3.717 -0.1076 -0.0590 -0.5192
 5419TIP3    H137748   5.655   2.869   3.772  0.8454 -0.5868 -2.0265
 5419TIP3    H237749   5.639   2.990   3.682 -0.9719  0.7739  0.0878
 5420TIP3   OH237750   5.146   0.742  11.785 -0.1316 -0.3488  0.4635
 5420TIP3    H137751   5.160   0.792  11.705  0.0995 -0.4825  0.4198
 5420TIP3    H237752   5.205   0.667  11.777 -1.7586 -1.5760 -0.2699
 5421TIP3   OH237753   4.629   1.148  13.071 -0.2302 -0.0129  0.0127
 5421TIP3    H137754   4.552   1.176  13.022  0.5414  1.2282 -0.4984
 5421TIP3    H237755   4.612   1.177  13.161 -0.3013  0.3629 -0.1224
 5422TIP3   OH237756   4.509   2.579   1.153  0.3377 -0.2217 -0.1337
 5422TIP3    H137757   4.546   2.558   1.239 -0.3627 -0.9544 -0.0052
 5422TIP3    H237758   4.569   2.644   1.116  2.9203 -2.8531 -0.7912
 5423TIP3   OH237759   0.302   2.534   5.323  0.0870 -0.0554  0.0625
 5423TIP3    H137760   0.263   2.560   5.407  0.2301  0.8684 -0.1508
 5423TIP3    H237761   0.266   2.448   5.306 -0.2406 -0.0922  0.8940
 5424TIP3   OH237762   3.043   1.966   1.690 -0.3037 -0.0329  0.2910
 5424TIP3    H137763   2.987   1.904   1.644  0.9761 -1.3019  0.4010
 5424TIP3    H237764   3.059   1.925   1.775 -0.7670  1.2112  0.9877
 5425TIP3   OH237765   1.133   3.380  15.525  0.0228 -0.2154 -0.4419
 5425TIP3    H137766   1.119   3.475  15.530 -2.9972 -0.5887 -0.4528
 5425TIP3    H237767   1.155   3.354  15.614  0.4358  0.4385 -0.3506
 5426TIP3   OH237768   0.750   3.966   5.191 -0.0948 -0.0577  0.0773
 5426TIP3    H137769   0.750   3.961   5.095 -1.2518  0.0668  0.0588
 5426TIP3    H237770   0.760   4.059   5.210  1.9770 -0.2698  0.1167
 5427TIP3   OH237771   0.502   4.980   0.204  0.0286 -0.1774  0.2468
 5427TIP3    H137772   0.559   4.912   0.238  0.8152  0.4083  0.1069
 5427TIP3    H237773   0.441   4.999   0.276 -0.2120 -1.0359  0.2762
 5428TIP3   OH237774   4.333   0.290   3.651 -0.2149 -0.0447 -0.0392
 5428TIP3    H137775   4.348   0.326   3.564 -0.7679 -2.1948 -1.0596
 5428TIP3    H237776   4.397   0.219   3.659  0.5757  0.8351  1.7587
 5429TIP3   OH237777   1.539   5.359   4.190  0.4798  0.8203  0.1857
 5429TIP3    H137778   1.572   5.435   4.239  1.9936 -0.7831  1.7679
 5429TIP3    H237779   1.514   5.296   4.258 -0.9268 -0.0214 -1.0954
 5430TIP3   OH237780   3.795   2.561  13.010 -0.5619  0.8487 -0.1466
 5430TIP3    H137781   3.811   2.647  13.051  1.3311  0.6058 -0.3483
 5430TIP3    H237782   3.790   2.580  12.917 -0.0122  0.7233 -0.2013
 5431TIP3   OH237783   3.957   5.189  11.182 -0.7803  0.1484 -0.0486
 5431TIP3    H137784   3.952   5.279  11.212 -1.6927  0.2379 -0.4643
 5431TIP3    H237785   3.998   5.142  11.255 -2.8708  0.3815  1.3055
 5432TIP3   OH237786   6.647   2.470  13.212 -0.0382  0.9852 -0.2749
 5432TIP3    H137787   6.736   2.491  13.238  0.7336 -0.8329 -1.3447
 5432TIP3    H237788   6.656   2.418  13.132 -2.0741  1.2104 -0.6907
 5433TIP3   OH237789   4.710   5.598  13.012  0.7326  0.5108 -0.0253
 5433TIP3    H137790   4.738   5.517  12.969  1.3946  0.6086  0.2162
 5433TIP3    H237791   4.639   5.571  13.070  1.8399 -0.1266  1.0529
 5434TIP3   OH237792   2.409   6.439   6.925 -0.2070 -0.1507  0.2785
 5434TIP3    H137793   2.341   6.454   6.859  0.9404  1.6711 -0.5230
 5434TIP3    H237794   2.399   6.347   6.949 -2.9123  0.0657  0.1425
 5435TIP3   OH237795   5.910   0.958   3.224  0.1137 -0.0366 -0.3205
 5435TIP3    H137796   5.987   0.988   3.175 -0.4219  1.1967 -0.4130
 5435TIP3    H237797   5.942   0.945   3.313  0.7997 -1.0819 -0.7061
 5436TIP3   OH237798   2.092   6.517   5.852 -0.5264  0.1996  0.3564
 5436TIP3    H137799   2.116   6.428   5.828 -2.6439  0.2435 -2.1108
 5436TIP3    H237800   2.152   6.540   5.924  2.1527 -2.0407 -1.0908
 5437TIP3   OH237801   2.236   0.421  13.556  0.0114  0.1025 -0.3156
 5437TIP3    H137802   2.182   0.462  13.623 -0.5980  0.0746 -0.7869
 5437TIP3    H237803   2.224   0.327  13.571 -0.0850  0.0965 -0.4312
 5438TIP3   OH237804   2.469   5.950  11.924 -0.3156 -0.0417  0.1139
 5438TIP3    H137805   2.533   5.910  11.866  0.7167 -0.6667  1.6587
 5438TIP3    H237806   2.389   5.956  11.871  1.0796  1.0505 -1.9465
 5439TIP3   OH237807   6.782   0.130   2.296 -0.2873  0.4242  0.2129
 5439TIP3    H137808   6.744   0.196   2.355 -0.9318  1.1335 -0.9757
 5439TIP3    H237809   6.876   0.139   2.308 -0.4202  0.0883  1.6449
 5440TIP3   OH237810   1.960   6.217  12.880 -0.5509  0.1622  0.1103
 5440TIP3    H137811   1.996   6.135  12.846 -1.4976  0.6898 -2.2552
 5440TIP3    H237812   1.920   6.259  12.804 -2.6929  1.4215  1.8576
 5441TIP3   OH237813   5.407   6.538   4.446  0.0719 -0.2853  0.2325
 5441TIP3    H137814   5.490   6.493   4.461 -0.7674 -2.5789 -1.7031
 5441TIP3    H237815   5.411   6.566   4.354 -0.4091  1.5188  0.7429
 5442TIP3   OH237816   1.634   3.122  16.991  0.0359 -1.0501  0.7795
 5442TIP3    H137817   1.585   3.062  16.935 -0.4964 -0.1739  0.2804
 5442TIP3    H237818   1.713   3.143  16.941 -1.7713  1.9457 -0.9538
 5443TIP3   OH237819   3.184   2.380   4.963 -0.5242 -0.1661 -0.2820
 5443TIP3    H137820   3.170   2.461   5.014  1.5969 -0.9015  1.5289
 5443TIP3    H237821   3.265   2.344   4.997 -0.8879 -2.5389 -1.8351
 5444TIP3   OH237822   3.300   3.349   5.480 -0.2260 -0.0558 -0.7956
 5444TIP3    H137823   3.341   3.377   5.398 -0.1144 -0.2935 -0.8215
 5444TIP3    H237824   3.374   3.322   5.535 -0.2889  0.2579 -0.5575
 5445TIP3   OH237825   2.266   0.219  14.185  0.0160 -0.2859  0.5222
 5445TIP3    H137826   2.277   0.184  14.273  1.8447 -0.5351  0.2214
 5445TIP3    H237827   2.255   0.313  14.197  2.8513  0.0399  0.9036
 5446TIP3   OH237828   0.945   4.260   1.448 -0.0423  0.7950 -0.3052
 5446TIP3    H137829   0.988   4.217   1.374 -0.2581  1.6781 -0.9400
 5446TIP3    H237830   0.858   4.220   1.451  1.6098 -2.8662  2.5521
 5447TIP3   OH237831   6.264   6.707  13.225 -0.5736  0.3286  0.0129
 5447TIP3    H137832   6.328   6.650  13.182  0.4723  1.2477  0.3125
 5447TIP3    H237833   6.248   6.777  13.162 -1.9081 -0.3306 -0.3842
 5448TIP3   OH237834   3.155   4.150  15.278  0.0007 -0.3674 -0.0945
 5448TIP3    H137835   3.067   4.155  15.313 -0.3159  0.2007 -0.9677
 5448TIP3    H237836   3.145   4.161  15.184  1.0021 -0.2813 -0.2044
 5449TIP3   OH237837   4.599   3.904   6.037 -0.5297  0.0416  0.2859
 5449TIP3    H137838   4.622   3.815   6.009  0.3430 -0.3515  2.1517
 5449TIP3    H237839   4.670   3.959   6.004 -0.3931 -0.1479  0.2651
 5450TIP3   OH237840   5.660   4.858  15.471  0.2823  0.4877 -0.4366
 5450TIP3    H137841   5.576   4.900  15.455  0.9468  2.0045 -0.0376
 5450TIP3    H237842   5.666   4.851  15.566 -0.1419 -1.2220 -0.5104
 5451TIP3   OH237843   3.678   5.114  14.457  0.2402 -0.0171  0.7176
 5451TIP3    H137844   3.756   5.117  14.402 -0.3747 -0.0441 -0.1758
 5451TIP3    H237845   3.668   5.021  14.481  1.1830  0.1710  1.8759
 5452TIP3   OH237846   4.775   2.232   2.495  0.4700  0.1659  0.0752
 5452TIP3    H137847   4.771   2.136   2.502  0.1374  0.2567  1.2589
 5452TIP3    H237848   4.841   2.249   2.428 -1.6787 -0.9640 -2.3877
 5453TIP3   OH237849   4.970   0.102  12.504 -0.0275  0.5676 -0.5171
 5453TIP3    H137850   4.975   0.066  12.416  0.6986  0.1941 -0.3188
 5453TIP3    H237851   4.889   0.066  12.540  0.0525  0.1421 -0.7657
 5454TIP3   OH237852   0.588   0.947   2.608  0.5371  0.0203  0.1533
 5454TIP3    H137853   0.581   0.881   2.676  0.0449 -0.3785 -0.2806
 5454TIP3    H237854   0.521   1.012   2.630 -0.3421 -0.6390 -0.5239
 5455TIP3   OH237855   2.146   0.975  11.975 -0.0263  0.2457  0.3078
 5455TIP3    H137856   2.235   0.976  12.011  0.2143  0.4223 -0.2885
 5455TIP3    H237857   2.091   0.949  12.048  0.4272  0.9095  0.8957
 5456TIP3   OH237858   2.052   3.362   3.547  0.2911  0.0291 -0.4169
 5456TIP3    H137859   2.088   3.317   3.624 -0.0074 -1.3819 -1.0769
 5456TIP3    H237860   2.128   3.398   3.502  0.6338 -0.6415 -0.3789
 5457TIP3   OH237861   6.235   1.652  16.174 -0.7192  0.0340  0.7865
 5457TIP3    H137862   6.261   1.725  16.118 -1.0973  0.5895  1.3195
 5457TIP3    H237863   6.315   1.603  16.188 -0.9734 -1.1979 -1.7819
 5458TIP3   OH237864   2.348   1.552  14.940  0.5522 -0.1162 -0.3224
 5458TIP3    H137865   2.323   1.470  14.896  0.3238 -0.0900 -0.2401
 5458TIP3    H237866   2.271   1.577  14.990  1.0011 -0.4559  0.5521
 5459TIP3   OH237867   3.631   1.207   3.687  0.7057  0.0890 -0.2330
 5459TIP3    H137868   3.681   1.229   3.608  1.0515 -0.2299 -0.1043
 5459TIP3    H237869   3.588   1.288   3.711 -1.2153 -0.3427 -2.0438
 5460TIP3   OH237870   0.611   0.229   5.641 -0.3204 -0.5135 -0.2540
 5460TIP3    H137871   0.630   0.143   5.604  1.3924 -0.2732  0.0500
 5460TIP3    H237872   0.517   0.242   5.624 -0.8184 -2.8142  0.4928
 5461TIP3   OH237873   0.833   4.253  11.512 -0.2121 -0.1955 -0.0646
 5461TIP3    H137874   0.815   4.262  11.605 -2.1614  0.3840 -0.4596
 5461TIP3    H237875   0.801   4.335  11.473  1.2671 -0.1064 -1.1556
 5462TIP3   OH237876   4.011   2.576   0.837 -0.2819 -0.5030 -0.0042
 5462TIP3    H137877   3.976   2.504   0.889 -0.9107 -1.0512 -1.1708
 5462TIP3    H237878   4.060   2.534   0.767  0.3778  0.2253  0.0102
 5463TIP3   OH237879   0.896   2.828  12.173  0.2337 -0.4474  0.5186
 5463TIP3    H137880   0.883   2.738  12.206  0.4859 -1.3394 -1.7674
 5463TIP3    H237881   0.979   2.824  12.125  0.3703  1.0873  0.6259
 5464TIP3   OH237882   5.211   6.551  15.264 -0.2704  0.3613  0.3558
 5464TIP3    H137883   5.219   6.504  15.180 -1.0527  2.2517 -0.8225
 5464TIP3    H237884   5.289   6.606  15.269  0.5726 -0.9272  1.6621
 5465TIP3   OH237885   2.736   1.582   1.688 -0.0294 -0.1936  0.2565
 5465TIP3    H137886   2.779   1.510   1.642  0.3159 -0.8013  1.5177
 5465TIP3    H237887   2.805   1.647   1.702 -0.2281  0.1775 -0.4273
 5466TIP3   OH237888   1.122   0.645  16.709  0.2619 -0.0606  0.1242
 5466TIP3    H137889   1.139   0.670  16.618 -0.7070 -1.1827 -0.3779
 5466TIP3    H237890   1.075   0.720  16.746 -1.4422 -0.5518 -0.9846
 5467TIP3   OH237891   6.556   4.594   5.205  0.1394 -0.1237 -0.2834
 5467TIP3    H137892   6.530   4.502   5.210  1.8542 -0.7015 -1.4269
 5467TIP3    H237893   6.560   4.612   5.111  3.8252 -0.0940 -0.1768
 5468TIP3   OH237894   2.686   1.376   4.052  0.4193 -0.8144  0.1751
 5468TIP3    H137895   2.704   1.294   4.006  0.9515 -1.4630  1.5078
 5468TIP3    H237896   2.603   1.361   4.096 -1.1879  0.5725 -2.2866
 5469TIP3   OH237897   3.735   2.396  13.231  0.2358 -0.1667  0.5787
 5469TIP3    H137898   3.799   2.371  13.298  1.0191 -0.3037 -0.2066
 5469TIP3    H237899   3.788   2.428  13.158 -0.5508 -1.1409 -0.4429
 5470TIP3   OH237900   1.412   6.779   0.751 -0.4884  0.5223 -0.1239
 5470TIP3    H137901   1.477   6.841   0.719 -0.0578 -0.0942 -0.4508
 5470TIP3    H237902   1.365   6.751   0.672  1.6679 -2.2526 -0.4825
 5471TIP3   OH237903   1.160   2.405   3.059 -0.0017  0.2866 -0.2553
 5471TIP3    H137904   1.227   2.474   3.055 -0.2282  0.4199 -2.0954
 5471TIP3    H237905   1.189   2.348   3.130  0.7888  1.6656  0.5506
 5472TIP3   OH237906   3.491   4.263  12.550  0.6290 -0.2337 -0.2586
 5472TIP3    H137907   3.416   4.312  12.583  0.9490  0.0156  0.0930
 5472TIP3    H237908   3.520   4.313  12.474  0.3199 -0.4358 -0.5115
 5473TIP3   OH237909   4.565   0.729   3.002  0.1142 -0.0354 -0.5976
 5473TIP3    H137910   4.510   0.800   2.968  0.1587 -0.0802 -0.7620
 5473TIP3    H237911   4.523   0.649   2.970 -0.4159 -0.1164  0.2825
 5474TIP3   OH237912   3.562   5.967   5.890 -0.6271 -0.2105  0.1209
 5474TIP3    H137913   3.614   5.932   5.817  0.6118 -0.1221  0.9523
 5474TIP3    H237914   3.504   6.032   5.849  1.0443  0.8729 -0.5766
 5475TIP3   OH237915   0.535   2.586   2.401  0.1545 -0.3735  0.5380
 5475TIP3    H137916   0.530   2.536   2.482  0.0765 -1.0874  0.0989
 5475TIP3    H237917   0.563   2.674   2.428  0.6722 -0.7601  1.2656
 5476TIP3   OH237918   6.104   1.515   2.732  0.0266  0.1035  0.2269
 5476TIP3    H137919   6.017   1.495   2.765  0.0425  1.2060  0.9285
 5476TIP3    H237920   6.092   1.524   2.637 -0.2067 -1.9447  0.0296
 5477TIP3   OH237921   2.522   0.931  14.351  0.2135  0.0922 -0.2170
 5477TIP3    H137922   2.538   0.968  14.264 -0.6731 -0.0168 -0.4372
 5477TIP3    H237923   2.520   0.836  14.337  1.8573 -0.0177  0.2361
 5478TIP3   OH237924   4.512   6.424   4.032 -0.2185  0.2218 -0.2174
 5478TIP3    H137925   4.472   6.510   4.019 -0.1460  0.1972 -0.6333
 5478TIP3    H237926   4.515   6.412   4.127  1.1241  1.3073 -0.1162
 5479TIP3   OH237927   4.050   1.793   1.190  0.4940 -0.1741 -0.2024
 5479TIP3    H137928   3.984   1.851   1.228  0.7882 -0.0891  0.1812
 5479TIP3    H237929   4.017   1.774   1.102 -0.7321 -1.2245  0.4580
 5480TIP3   OH237930   1.543   1.937  10.977  0.0833  0.2935  0.3687
 5480TIP3    H137931   1.465   1.883  10.992  0.7034 -0.5201  0.7041
 5480TIP3    H237932   1.597   1.884  10.918  0.8168  0.4278  0.9182
 5481TIP3   OH237933   1.059   5.831   6.104  0.9338 -0.4577 -0.0983
 5481TIP3    H137934   1.138   5.819   6.050 -0.1699 -1.0768 -1.6350
 5481TIP3    H237935   1.019   5.744   6.107  0.2899 -0.1441  0.6430
 5482TIP3   OH237936   0.399   4.028  16.636 -0.0642 -0.0254 -0.6498
 5482TIP3    H137937   0.453   4.096  16.677 -1.6031  0.0885  1.2853
 5482TIP3    H237938   0.311   4.044  16.671 -0.5841 -2.5798 -0.7277
 5483TIP3   OH237939   2.447   5.419   5.096  0.4457 -0.3555  0.4070
 5483TIP3    H137940   2.353   5.415   5.117  0.7616 -2.7146  1.4761
 5483TIP3    H237941   2.490   5.421   5.181  1.3676  2.1717 -0.0664
 5484TIP3   OH237942   1.726   2.238  12.831 -0.1367 -0.0007  0.1687
 5484TIP3    H137943   1.665   2.197  12.769 -1.5556  0.8881  0.9580
 5484TIP3    H237944   1.733   2.329  12.802  1.4042 -0.2753 -0.3515
 5485TIP3   OH237945   2.289   1.272  11.422 -0.2773 -0.6792 -0.5892
 5485TIP3    H137946   2.231   1.227  11.361 -1.8125  1.4123 -0.7286
 5485TIP3    H237947   2.254   1.361  11.428  2.8451  0.6312 -0.5711
 5486TIP3   OH237948   3.287   4.952   4.486 -0.2439  0.0021 -0.8228
 5486TIP3    H137949   3.328   4.865   4.484  0.5767  0.3797 -0.5195
 5486TIP3    H237950   3.296   4.981   4.577 -0.6719  0.3338 -0.8854
 5487TIP3   OH237951   1.594   5.336  13.731  0.3806  0.2224 -0.2374
 5487TIP3    H137952   1.679   5.351  13.688  1.1302 -0.9401  0.8066
 5487TIP3    H237953   1.586   5.408  13.793  0.6099  0.3371 -0.3362
 5488TIP3   OH237954   1.161   3.678  14.287  0.2365  0.0997 -0.4116
 5488TIP3    H137955   1.173   3.744  14.218  0.2687 -0.6868 -1.1748
 5488TIP3    H237956   1.107   3.611  14.245  0.5697 -0.5632  0.2181
 5489TIP3   OH237957   4.044   3.215  13.732  0.5055 -0.5296  0.2091
 5489TIP3    H137958   3.984   3.184  13.799 -0.3290 -0.4249 -0.4813
 5489TIP3    H237959   4.064   3.305  13.757 -0.8814 -0.0354 -0.4154
 5490TIP3   OH237960   4.941   4.763   5.329 -0.1155  0.4740  0.0484
 5490TIP3    H137961   5.025   4.745   5.370 -1.1639 -2.8608  0.9190
 5490TIP3    H237962   4.876   4.728   5.390 -2.0310  0.9949 -1.6220
 5491TIP3   OH237963   6.806   0.275   5.724 -1.0984 -0.4050  0.1919
 5491TIP3    H137964   6.867   0.301   5.654  0.3901 -2.1267  0.8227
 5491TIP3    H237965   6.721   0.268   5.680 -0.7049  1.1852 -0.8754
 5492TIP3   OH237966   3.939   1.533   6.254 -0.4902  0.5878 -0.1839
 5492TIP3    H137967   3.979   1.448   6.236  0.2945  0.7496  0.7854
 5492TIP3    H237968   3.852   1.527   6.214  0.1259 -0.1139 -1.4607
 5493TIP3   OH237969   3.886   5.321  11.417 -0.0716 -0.1810  0.3632
 5493TIP3    H137970   3.937   5.243  11.440 -0.0170  0.7322  3.7393
 5493TIP3    H237971   3.942   5.370  11.357 -0.1711 -2.7661 -1.9172
 5494TIP3   OH237972   0.893   0.305  15.104  0.3833 -0.2240 -0.6627
 5494TIP3    H137973   0.879   0.302  15.009 -0.6424  0.1236 -0.5286
 5494TIP3    H237974   0.931   0.392  15.119 -0.3363  0.0865 -0.6411
 5495TIP3   OH237975   1.675   2.282   3.448  0.8806 -0.1757  0.0084
 5495TIP3    H137976   1.651   2.189   3.452 -0.1019  0.0908  0.4188
 5495TIP3    H237977   1.771   2.282   3.447  0.8796 -1.2099 -0.3777
 5496TIP3   OH237978   2.795   3.977   3.938  0.8515  0.4410 -0.3247
 5496TIP3    H137979   2.795   4.069   3.913 -0.1235  0.0231 -1.9673
 5496TIP3    H237980   2.714   3.964   3.986  0.5555  0.2538 -0.8672
 5497TIP3   OH237981   4.725   2.893  17.086  0.1167  0.0158  0.2891
 5497TIP3    H137982   4.732   2.939  17.002  0.5172 -0.5975 -0.0221
 5497TIP3    H237983   4.758   2.955  17.151  2.1244 -0.3598 -0.3151
 5498TIP3   OH237984   1.729   0.522   5.329  0.4119  0.2216 -0.3034
 5498TIP3    H137985   1.693   0.581   5.396 -2.1514 -0.1393 -1.3042
 5498TIP3    H237986   1.783   0.578   5.274 -1.1359  1.4376 -0.6024
 5499TIP3   OH237987   2.905   2.540  16.370  0.1700  0.0515  0.4519
 5499TIP3    H137988   2.916   2.619  16.423  0.1797  1.2710 -1.3213
 5499TIP3    H237989   2.843   2.566  16.302  0.0378 -1.5373 -0.0472
 5500TIP3   OH237990   3.224   3.309   3.904 -0.5068 -0.3861 -0.3771
 5500TIP3    H137991   3.252   3.324   3.814 -1.1167 -0.1381 -0.5259
 5500TIP3    H237992   3.163   3.236   3.898  0.2806 -1.0914 -0.0191
 5501TIP3   OH237993   4.853   5.107   2.667  0.6205 -0.0134  0.1565
 5501TIP3    H137994   4.783   5.133   2.608 -0.0085  0.0919  0.9388
 5501TIP3    H237995   4.844   5.012   2.675 -1.2520  0.2899  2.4753
 5502TIP3   OH237996   1.924   2.580  12.637 -0.6188 -0.5741 -0.0122
 5502TIP3    H137997   1.971   2.542  12.711  0.3654 -1.2323 -0.9514
 5502TIP3    H237998   1.951   2.527  12.562 -2.1309 -0.3516 -0.7354
 5503TIP3   OH237999   3.503   3.289   5.652  0.1871  0.2763  0.1135
 5503TIP3    H138000   3.488   3.363   5.711 -0.4942  0.2318 -0.0027
 5503TIP3    H238001   3.595   3.267   5.666 -0.2441 -0.4529  1.9916
 5504TIP3   OH238002   2.435   3.713  17.260  0.1723  0.1938  0.2183
 5504TIP3    H138003   2.471   3.793  17.298 -0.3918 -0.7540  2.8449
 5504TIP3    H238004   2.389   3.742  17.182 -1.4864  2.7186  2.0594
 5505TIP3   OH238005   3.852   3.587   4.893 -0.3732  0.0635 -0.1117
 5505TIP3    H138006   3.924   3.552   4.841  0.2360 -0.1931  0.8945
 5505TIP3    H238007   3.873   3.563   4.983 -2.7077 -1.7530 -0.0117
 5506TIP3   OH238008   1.490   3.010  16.780  0.3410  0.1798  0.1681
 5506TIP3    H138009   1.458   3.050  16.700 -0.7299 -0.8244  0.0822
 5506TIP3    H238010   1.410   2.988  16.830  0.9286 -0.9654  0.6319
 5507TIP3   OH238011   4.875   2.169  16.459  0.1091  0.1718  0.1894
 5507TIP3    H138012   4.872   2.265  16.457  1.7064  0.2756  1.3262
 5507TIP3    H238013   4.784   2.142  16.450 -0.2094  1.7429 -1.8501
 5508TIP3   OH238014   0.578   6.122   2.260 -0.0918  0.3957 -0.1675
 5508TIP3    H138015   0.542   6.192   2.206 -2.3881 -1.0400 -0.5611
 5508TIP3    H238016   0.506   6.098   2.319  0.5042 -1.9520 -0.3505
 5509TIP3   OH238017   5.282   5.265  17.240 -0.2556 -0.0242 -0.3047
 5509TIP3    H138018   5.195   5.264  17.280  0.2651 -1.7290  0.8061
 5509TIP3    H238019   5.296   5.357  17.218 -2.2092  0.3260 -0.2233
 5510TIP3   OH238020   1.758   4.532  12.811 -0.2583 -0.6444  0.0453
 5510TIP3    H138021   1.802   4.458  12.852 -0.1091 -0.3821  0.3584
 5510TIP3    H238022   1.713   4.576  12.883 -0.6247 -0.6210 -0.1927
 5511TIP3   OH238023   4.574   5.872   1.907 -0.1158  0.4785  0.2440
 5511TIP3    H138024   4.573   5.932   1.833  0.9791  1.4433  0.9885
 5511TIP3    H238025   4.565   5.929   1.984  1.6418 -0.2139  0.9969
 5512TIP3   OH238026   2.902   3.323  12.541 -0.2744  0.2161 -0.0862
 5512TIP3    H138027   2.881   3.376  12.618  0.0139 -0.2738  0.3381
 5512TIP3    H238028   2.991   3.292  12.558 -0.8350 -1.2859  0.1795
 5513TIP3   OH238029   1.816   2.233  17.009 -0.0654  0.1590  0.5734
 5513TIP3    H138030   1.799   2.326  17.016 -2.0723  0.1371 -2.7170
 5513TIP3    H238031   1.763   2.193  17.077 -0.5869  1.2776  0.8289
 5514TIP3   OH238032   0.719   1.246  14.843 -0.1206  0.7992 -0.4349
 5514TIP3    H138033   0.756   1.251  14.931  0.4815  0.2778 -0.6550
 5514TIP3    H238034   0.704   1.337  14.818 -0.6840  0.9353  0.3669
 5515TIP3   OH238035   2.066   4.049  15.520  0.6541 -0.6214  0.0338
 5515TIP3    H138036   2.019   4.035  15.602  0.5143 -0.8158 -0.0807
 5515TIP3    H238037   2.073   4.144  15.513  2.0700 -0.6246  1.0794
 5516TIP3   OH238038   6.813   3.031  12.785  0.3212 -0.4901 -0.1555
 5516TIP3    H138039   6.903   3.057  12.806  0.5814 -0.6850 -0.9803
 5516TIP3    H238040   6.809   2.938  12.808 -0.0488 -0.1789  1.0554
 5517TIP3   OH238041   4.176   6.761  13.575 -0.0135 -0.3347  0.0327
 5517TIP3    H138042   4.237   6.799  13.637  1.0460 -0.0874 -1.1486
 5517TIP3    H238043   4.192   6.808  13.493 -1.0250 -1.0180 -0.5742
 5518TIP3   OH238044   2.258   2.101   2.187 -0.1691 -0.0035  0.1027
 5518TIP3    H138045   2.333   2.110   2.128 -1.2257 -1.1466 -1.4229
 5518TIP3    H238046   2.293   2.056   2.264  1.1171  1.1243  0.1917
 5519TIP3   OH238047   3.279   3.309   0.424 -0.0786  0.4426 -0.3053
 5519TIP3    H138048   3.226   3.380   0.460  0.8843  0.7844  0.4682
 5519TIP3    H238049   3.369   3.330   0.452  0.6176  0.4087 -2.4315
 5520TIP3   OH238050   6.415   2.960   0.601  0.2739 -0.2653  0.0199
 5520TIP3    H138051   6.452   3.002   0.524  0.3372  2.2975  1.3978
 5520TIP3    H238052   6.491   2.931   0.652  0.3235  0.8719  0.6165
 5521TIP3   OH238053   4.766   4.455  11.056  0.3287  0.5896 -0.2568
 5521TIP3    H138054   4.799   4.545  11.049 -0.6254  1.0923  1.2689
 5521TIP3    H238055   4.671   4.464  11.045  0.1901 -0.1702  0.2758
 5522TIP3   OH238056   3.118   2.863  11.070 -0.6659 -0.4529 -0.3787
 5522TIP3    H138057   3.120   2.959  11.076 -0.2761 -0.3980 -1.2623
 5522TIP3    H238058   3.106   2.845  10.977  2.4017 -1.2856 -0.6751
 5523TIP3   OH238059   4.899   2.862  14.118 -0.6487  0.5148  0.3254
 5523TIP3    H138060   4.848   2.907  14.051 -0.5160  1.8531  1.1130
 5523TIP3    H238061   4.871   2.771  14.112 -0.3455  0.5163 -1.8309
 5524TIP3   OH238062   1.227   2.546   0.512  0.2497  0.1472 -1.3105
 5524TIP3    H138063   1.311   2.562   0.470  1.1136 -0.1690  0.2388
 5524TIP3    H238064   1.235   2.458   0.549  0.6558  1.4637  1.9866
 5525TIP3   OH238065   6.202   5.838   0.280 -0.3096 -0.1940 -0.0669
 5525TIP3    H138066   6.114   5.854   0.246  0.3746  0.0827 -1.7407
 5525TIP3    H238067   6.218   5.912   0.339 -1.4955 -0.6719  0.8744
 5526TIP3   OH238068   6.305   4.935   0.295  0.1125 -0.2286 -0.1021
 5526TIP3    H138069   6.362   4.981   0.233  1.1831  0.1332  1.1276
 5526TIP3    H238070   6.258   5.004   0.341 -0.0448 -0.4557  0.0803
 5527TIP3   OH238071   6.416   5.089   5.109  0.2501  0.3643  0.4689
 5527TIP3    H138072   6.493   5.120   5.159  0.6174 -0.9576  0.7268
 5527TIP3    H238073   6.406   4.998   5.134 -0.8454  0.2666 -0.3015
 5528TIP3   OH238074   3.343   3.601   3.662  0.3929  0.5744  0.1105
 5528TIP3    H138075   3.320   3.653   3.739  0.1355 -0.2991  0.6242
 5528TIP3    H238076   3.305   3.515   3.679 -0.9308  0.7873 -1.6569
 5529TIP3   OH238077   5.704   0.428   0.682  0.2555 -0.4497  0.0358
 5529TIP3    H138078   5.643   0.473   0.623  0.1222 -0.8761 -0.1526
 5529TIP3    H238079   5.780   0.409   0.627 -0.4133 -2.0525 -0.3584
 5530TIP3   OH238080   5.230   2.541  13.137 -0.2689  0.4388 -0.1350
 5530TIP3    H138081   5.279   2.474  13.185  1.3277  1.0269 -0.9108
 5530TIP3    H238082   5.196   2.495  13.061 -0.2100  0.2270 -0.0360
 5531TIP3   OH238083   4.977   5.440   2.603  0.0673  0.0147  0.4204
 5531TIP3    H138084   4.882   5.435   2.594  0.1830  0.2038 -1.1915
 5531TIP3    H238085   5.000   5.369   2.663 -1.3686  1.9554  3.3780
 5532TIP3   OH238086   2.762   5.725   2.828  0.1705  0.2810  0.1764
 5532TIP3    H138087   2.815   5.654   2.792  0.2544  0.3977  0.0732
 5532TIP3    H238088   2.805   5.748   2.910  0.2086  0.2928  0.1528
 5533TIP3   OH238089   1.036   6.518  15.850  0.2645 -0.8997  0.1815
 5533TIP3    H138090   1.090   6.589  15.883  2.3464 -1.5857 -1.6194
 5533TIP3    H238091   1.080   6.489  15.770 -2.1342 -2.2676 -0.7269
 5534TIP3   OH238092   1.706   0.399  17.229 -0.8583  0.0639  0.1772
 5534TIP3    H138093   1.616   0.394  17.198 -1.0198 -2.5893  0.8906
 5534TIP3    H238094   1.757   0.351  17.163 -0.5542 -1.6726  1.6231
 5535TIP3   OH238095   2.690   2.194  15.767 -0.0955  0.5144  0.0371
 5535TIP3    H138096   2.605   2.197  15.812  0.6187  2.5565  1.3451
 5535TIP3    H238097   2.668   2.188  15.674 -1.6525 -0.1003  0.4359
 5536TIP3   OH238098   2.025   5.536  11.498  0.0255  0.3780  0.1205
 5536TIP3    H138099   1.941   5.535  11.542 -0.7557 -0.5941 -1.3469
 5536TIP3    H238100   2.073   5.462  11.536 -0.5876 -0.3642 -0.5390
 5537TIP3   OH238101   2.336   1.926   1.358 -0.7344 -0.0152  0.4388
 5537TIP3    H138102   2.253   1.898   1.318 -0.1381 -1.2897  0.0760
 5537TIP3    H238103   2.355   1.859   1.423 -1.1930  1.5423  2.2259
 5538TIP3   OH238104   4.499   4.527   3.538 -0.0196  0.2233 -0.1542
 5538TIP3    H138105   4.494   4.545   3.632 -2.0757  0.7734 -0.3290
 5538TIP3    H238106   4.440   4.452   3.526  1.1075 -0.5633 -0.8499
 5539TIP3   OH238107   4.560   0.915   1.833  0.6928 -0.4071  0.2341
 5539TIP3    H138108   4.493   0.913   1.901 -0.3357 -1.4506 -0.7979
 5539TIP3    H238109   4.643   0.918   1.881 -0.0649  0.3921  1.5117
 5540TIP3   OH238110   2.813   6.210  10.685  0.0471  0.0283 -0.4618
 5540TIP3    H138111   2.814   6.291  10.735 -0.1472  0.0217 -0.4480
 5540TIP3    H238112   2.889   6.216  10.627 -0.1882  0.3946 -0.7369
 5541TIP3   OH238113   4.895   2.531   2.669 -0.1580 -0.2430 -0.0764
 5541TIP3    H138114   4.883   2.443   2.704  0.7192 -0.6844 -0.8490
 5541TIP3    H238115   4.823   2.543   2.607 -1.0843  0.1265  1.0575
 5542TIP3   OH238116   5.929   0.881  13.047 -0.1130 -0.2524  1.0380
 5542TIP3    H138117   5.989   0.807  13.058  1.5415  0.8282 -0.4094
 5542TIP3    H238118   5.940   0.907  12.956 -3.7888 -0.8442  0.3740
 5543TIP3   OH238119   5.275   0.761  17.197 -0.3663  0.3805 -0.0847
 5543TIP3    H138120   5.220   0.689  17.165 -1.5237  0.8813  0.7337
 5543TIP3    H238121   5.215   0.817  17.247  0.9955  0.6225  1.3429
 5544TIP3   OH238122   3.080   1.627  10.478  0.2543 -0.0389 -0.0788
 5544TIP3    H138123   3.001   1.614  10.530 -0.6577  1.6665 -0.9891
 5544TIP3    H238124   3.143   1.665  10.539  0.2540 -1.0493  0.5557
 5545TIP3   OH238125   1.421   4.083   3.280 -0.0064 -0.5066  0.1590
 5545TIP3    H138126   1.413   4.004   3.333  0.3298  0.2617  1.3602
 5545TIP3    H238127   1.460   4.052   3.198 -1.0512 -1.7818  0.1211
 5546TIP3   OH238128   5.182   5.855  11.624 -0.0076 -0.0411  0.5621
 5546TIP3    H138129   5.243   5.898  11.684  1.2332 -0.5963 -0.2625
 5546TIP3    H238130   5.197   5.761  11.638  2.5259 -0.2337 -2.7115
 5547TIP3   OH238131   1.745   3.143   5.593 -0.5993 -0.0463  0.1055
 5547TIP3    H138132   1.794   3.064   5.613 -0.9837  0.3086  2.5162
 5547TIP3    H238133   1.739   3.191   5.676 -1.0357  2.1457 -1.1366
 5548TIP3   OH238134   5.130   2.849  13.948 -0.3766 -0.1758  0.6539
 5548TIP3    H138135   5.100   2.921  13.893 -1.5494 -1.3425 -0.2511
 5548TIP3    H238136   5.073   2.852  14.025  1.6041  1.7877  2.1217
 5549TIP3   OH238137   4.483   3.916  11.780 -0.3552 -0.1057 -0.1686
 5549TIP3    H138138   4.395   3.882  11.796 -0.1557 -0.6711 -0.2604
 5549TIP3    H238139   4.492   3.912  11.685  0.3487 -1.5178 -0.0528
 5550TIP3   OH238140   3.930   5.168  13.548  0.2558  0.3709 -0.3776
 5550TIP3    H138141   3.872   5.093  13.534  1.1511 -0.6611  1.2813
 5550TIP3    H238142   4.009   5.146  13.499 -0.0231  0.9284 -1.0969
 5551TIP3   OH238143   5.348   2.890  10.634  0.4962  0.1560  0.0186
 5551TIP3    H138144   5.397   2.947  10.574  2.6760  0.2805  1.8819
 5551TIP3    H238145   5.343   2.806  10.589 -0.5605  1.0847 -1.6603
 5552TIP3   OH238146   3.551   6.528  13.111 -0.0421  0.2038 -0.2494
 5552TIP3    H138147   3.633   6.481  13.097  0.4735  0.8685  0.5293
 5552TIP3    H238148   3.483   6.467  13.080  0.4815 -1.7790  2.2617
 5553TIP3   OH238149   1.236   2.164  12.525 -0.1775  0.1629 -0.1895
 5553TIP3    H138150   1.271   2.173  12.614  0.4763  0.8542 -0.5206
 5553TIP3    H238151   1.246   2.251  12.486  2.6636 -0.9599 -2.0904
 5554TIP3   OH238152   1.153   0.370   3.976 -0.1183  0.2376  0.0805
 5554TIP3    H138153   1.114   0.298   3.926 -1.0906  0.8143  0.0109
 5554TIP3    H238154   1.224   0.401   3.920 -1.0918  0.7672 -0.8735
 5555TIP3   OH238155   2.269   4.604   1.991  0.1743  0.3788 -0.0911
 5555TIP3    H138156   2.333   4.670   2.016  0.1634  0.5425 -0.4786
 5555TIP3    H238157   2.316   4.546   1.931  0.0365  0.3525 -0.1751
 5556TIP3   OH238158   0.654   5.330   0.491  0.2344  0.2186  0.1456
 5556TIP3    H138159   0.608   5.378   0.560  0.2448 -0.4580  0.6294
 5556TIP3    H238160   0.694   5.256   0.537 -0.3421 -0.6245 -0.6968
 5557TIP3   OH238161   1.281   5.385  12.214  0.3222 -0.3115  0.3898
 5557TIP3    H138162   1.353   5.447  12.220  0.5064 -0.3545 -1.1180
 5557TIP3    H238163   1.223   5.421  12.147  0.3765 -1.6974 -0.4220
 5558TIP3   OH238164   0.755   4.000  15.874 -0.0455  0.0238 -0.1607
 5558TIP3    H138165   0.811   3.995  15.797  0.4086 -0.0164  0.1713
 5558TIP3    H238166   0.747   3.910  15.904 -0.5958 -0.0181 -0.4253
 5559TIP3   OH238167   4.732   0.985   2.131 -0.1458 -0.0580  0.2303
 5559TIP3    H138168   4.797   0.917   2.115 -2.2199 -1.6101 -1.7829
 5559TIP3    H238169   4.675   0.949   2.199  0.0927  0.6171  0.7977
 5560TIP3   OH238170   4.201   5.472   1.955 -0.2440  0.5618 -0.1270
 5560TIP3    H138171   4.267   5.410   1.924 -0.0240 -0.5542  2.4441
 5560TIP3    H238172   4.118   5.439   1.921 -0.3112 -2.0300  2.4318
 5561TIP3   OH238173   3.034   6.618  12.202  0.6095  0.0225  0.4040
 5561TIP3    H138174   2.999   6.570  12.127  1.6115 -0.3149  0.1473
 5561TIP3    H238175   2.969   6.604  12.271 -0.2314  0.1898 -0.3430
 5562TIP3   OH238176   5.309   2.922   1.539  0.2362  0.5669  0.0963
 5562TIP3    H138177   5.215   2.922   1.555  0.5157 -1.3378  1.9955
 5562TIP3    H238178   5.334   3.014   1.535 -1.6581  1.0728 -0.1361
 5563TIP3   OH238179   5.405   3.183   0.173  0.4819  0.3603 -0.5006
 5563TIP3    H138180   5.382   3.123   0.103  0.6245  0.1579 -0.3739
 5563TIP3    H238181   5.330   3.242   0.179 -1.0056 -1.6198  1.3527
 5564TIP3   OH238182   3.087   6.277  13.021 -0.3977  0.1852  0.8340
 5564TIP3    H138183   3.110   6.220  13.094 -0.6976  0.4327  1.1248
 5564TIP3    H238184   3.066   6.361  13.062 -0.9671  0.2078  0.4974
 5565TIP3   OH238185   4.967   3.678   1.534  0.9467  0.2104  0.3204
 5565TIP3    H138186   4.917   3.748   1.492  0.9377 -0.9274 -1.6400
 5565TIP3    H238187   4.916   3.656   1.612 -0.4493  0.5961 -0.4596
 5566TIP3   OH238188   5.261   4.576   3.647 -0.4724  0.4342  1.0501
 5566TIP3    H138189   5.307   4.501   3.685  0.6883  2.5751  4.0465
 5566TIP3    H238190   5.278   4.569   3.553  0.1973 -2.6251  1.3228
 5567TIP3   OH238191   5.763   0.581   5.135 -0.1857 -0.1209 -0.2516
 5567TIP3    H138192   5.681   0.594   5.087 -0.1818  2.8188  0.4313
 5567TIP3    H238193   5.737   0.534   5.214 -1.3044  1.1400  0.1513
 5568TIP3   OH238194   4.405   0.602   4.509 -0.2261 -0.1853  0.4113
 5568TIP3    H138195   4.397   0.623   4.416 -1.5161  0.0576  0.5548
 5568TIP3    H238196   4.416   0.507   4.512  1.6244  0.0077 -0.0660
 5569TIP3   OH238197   0.124   1.362  14.106 -0.3130  0.1279  0.2614
 5569TIP3    H138198   0.166   1.448  14.114  0.8053 -0.5281  1.7901
 5569TIP3    H238199   0.032   1.382  14.091  0.3364  1.5944 -2.0440
 5570TIP3   OH238200   0.023   6.382   0.194  0.0168  0.1280 -0.2121
 5570TIP3    H138201   0.094   6.438   0.226  0.5932 -0.2305 -0.8509
 5570TIP3    H238202   0.051   6.293   0.213 -0.8466  0.0331  0.6875
 5571TIP3   OH238203   0.886   0.529  11.476 -0.4123  0.3532 -0.0674
 5571TIP3    H138204   0.955   0.595  11.467  0.5700 -0.3368  1.9903
 5571TIP3    H238205   0.806   0.574  11.451  0.8412  1.0304 -2.9941
 5572TIP3   OH238206   4.606   4.313  17.012  0.1236 -0.2610 -0.4942
 5572TIP3    H138207   4.583   4.405  17.027  3.7492  0.6087  0.1366
 5572TIP3    H238208   4.561   4.265  17.081 -1.8270  0.9902 -0.8413
 5573TIP3   OH238209   6.613   5.921   3.888 -1.0253 -0.6837 -0.4650
 5573TIP3    H138210   6.620   5.826   3.891  1.9824 -0.5145 -1.3956
 5573TIP3    H238211   6.657   5.951   3.967 -0.5153 -0.0133 -0.9965
 5574TIP3   OH238212   3.304   3.559   0.979 -0.3257 -0.3418 -0.0763
 5574TIP3    H138213   3.386   3.606   0.968 -0.0299 -0.4698  1.5445
 5574TIP3    H238214   3.328   3.476   1.018 -1.3790  0.3154  2.0485
 5575TIP3   OH238215   0.099   4.922  15.586  0.1575  0.9852  0.3101
 5575TIP3    H138216   0.070   5.002  15.630  0.4861  1.3779 -0.1790
 5575TIP3    H238217   0.192   4.915  15.608  0.3441  1.2377 -0.4030
 5576TIP3   OH238218   1.136   6.310   1.316  0.4373 -0.2532 -0.4978
 5576TIP3    H138219   1.155   6.310   1.410  2.0747  0.7062 -0.8167
 5576TIP3    H238220   1.105   6.398   1.297 -2.0457 -1.0860 -0.4643
 5577TIP3   OH238221   4.392   6.062   4.117 -0.1364 -0.1696 -0.1192
 5577TIP3    H138222   4.417   5.973   4.092  0.7564  0.0146  0.0794
 5577TIP3    H238223   4.466   6.094   4.169 -0.9440  0.2909  0.7654
 5578TIP3   OH238224   2.229   0.081  15.389  0.2404  0.0708  0.6489
 5578TIP3    H138225   2.322   0.063  15.403  0.3647  1.2921  1.4332
 5578TIP3    H238226   2.215   0.168  15.426 -1.2130 -0.0855  0.5057
 5579TIP3   OH238227   0.186   3.591   1.271 -0.3840 -0.5816  0.5389
 5579TIP3    H138228   0.142   3.510   1.245  0.8304 -1.2333  0.4782
 5579TIP3    H238229   0.222   3.627   1.190 -0.7602 -0.0714  0.5944
 5580TIP3   OH238230   2.632   1.967  14.146 -0.0160 -0.4829  0.5016
 5580TIP3    H138231   2.627   1.912  14.224  0.5801 -1.1324  0.0802
 5580TIP3    H238232   2.668   2.050  14.178  0.8131 -0.9595  0.8022
 5581TIP3   OH238233   5.656   5.272  14.377  0.5754 -0.4349  0.3215
 5581TIP3    H138234   5.739   5.223  14.383  0.4119 -0.7748 -0.1240
 5581TIP3    H238235   5.589   5.204  14.381  0.3133 -0.1526  0.7510
 5582TIP3   OH238236   6.111   6.013  15.824 -0.1188  0.3839  0.0263
 5582TIP3    H138237   6.044   5.991  15.889 -3.4465 -0.4684 -3.5841
 5582TIP3    H238238   6.186   5.959  15.849 -1.4766 -0.3296  2.8299
 5583TIP3   OH238239   5.381   2.038  17.290 -0.2699 -0.0263 -0.1814
 5583TIP3    H138240   5.310   1.985  17.255  1.9566 -2.0921 -1.7493
 5583TIP3    H238241   5.443   1.975  17.327  1.6139  1.5589 -0.5096
 5584TIP3   OH238242   0.041   4.736  16.000 -0.5612 -0.7230 -0.2090
 5584TIP3    H138243   0.114   4.781  16.044  0.0564 -1.7873 -0.1263
 5584TIP3    H238244  -0.037   4.784  16.028  0.1325  0.6937 -0.6312
 5585TIP3   OH238245   2.077   3.250  14.371  0.4785 -0.1973  0.0911
 5585TIP3    H138246   2.086   3.317  14.439  2.2543 -0.0669 -0.2502
 5585TIP3    H238247   2.151   3.191  14.386  0.8857 -0.1654 -1.7478
 5586TIP3   OH238248   2.062   5.435   6.781  0.0428 -0.1649 -0.1179
 5586TIP3    H138249   2.000   5.464   6.715 -1.1496  0.9182  1.4275
 5586TIP3    H238250   2.143   5.419   6.733 -0.5398  1.4780 -1.7021
 5587TIP3   OH238251   6.011   1.753  16.550  0.7566  0.9700 -0.4891
 5587TIP3    H138252   6.064   1.679  16.521  0.3954  0.8818 -0.9338
 5587TIP3    H238253   5.935   1.752  16.492  0.4541  1.3220 -0.1004
 5588TIP3   OH238254   5.379   1.267  13.958 -0.1917 -0.1334 -0.2516
 5588TIP3    H138255   5.345   1.178  13.970  0.8327 -0.9535 -3.0394
 5588TIP3    H238256   5.441   1.279  14.029 -0.3013 -1.6916  0.1166
 5589TIP3   OH238257   3.436   2.265   3.436  0.0751 -0.1895  0.2981
 5589TIP3    H138258   3.509   2.312   3.396  0.3449 -2.1111 -1.5620
 5589TIP3    H238259   3.403   2.209   3.366 -3.2867  0.7353  1.0761
 5590TIP3   OH238260   2.149   0.519  12.220  0.5674  0.3619 -0.4398
 5590TIP3    H138261   2.113   0.456  12.158  1.2362 -0.4856  0.0096
 5590TIP3    H238262   2.174   0.466  12.296  2.3783  0.9662 -0.5831
 5591TIP3   OH238263   3.705   6.146  13.182  0.0910  0.2343 -0.6025
 5591TIP3    H138264   3.635   6.138  13.247  0.3139 -2.1849 -0.6158
 5591TIP3    H238265   3.692   6.071  13.123  1.3574  1.0221 -1.9169
 5592TIP3   OH238266   5.749   6.272   1.723 -0.1820  0.7423 -0.0765
 5592TIP3    H138267   5.745   6.366   1.708 -0.4022  0.5364 -1.4186
 5592TIP3    H238268   5.782   6.236   1.640  0.6585 -0.2827  0.7019
 5593TIP3   OH238269   5.178   4.395  10.993  0.1531  0.0907 -0.0929
 5593TIP3    H138270   5.268   4.365  10.989 -0.1318 -0.9623  0.9990
 5593TIP3    H238271   5.182   4.477  11.042  0.7814  1.2306 -2.0025
 5594TIP3   OH238272   0.678   1.344   4.169  0.7748 -0.2042  0.6702
 5594TIP3    H138273   0.658   1.437   4.178  1.8654  0.2658 -1.3827
 5594TIP3    H238274   0.706   1.317   4.256  0.8047  1.4814  1.2014
 5595TIP3   OH238275   0.760   3.400   4.131 -0.2333 -0.6584 -0.8646
 5595TIP3    H138276   0.664   3.404   4.131 -0.1949  0.3254  0.4523
 5595TIP3    H238277   0.781   3.357   4.048 -1.7577  0.5173 -1.9112
 5596TIP3   OH238278   2.192   0.408   0.192 -0.0892  0.1407 -0.1917
 5596TIP3    H138279   2.264   0.356   0.158 -0.9589 -0.0258 -1.7877
 5596TIP3    H238280   2.220   0.499   0.179 -0.7632  0.0898 -2.1468
 5597TIP3   OH238281   2.852   3.384  11.110 -0.0925 -0.6555 -0.3139
 5597TIP3    H138282   2.924   3.321  11.113 -0.9000 -1.6510 -1.8131
 5597TIP3    H238283   2.878   3.446  11.042  0.1929  0.0407  0.4150
 5598TIP3   OH238284   2.319   4.794  11.160  0.2977 -0.2342 -0.2935
 5598TIP3    H138285   2.415   4.793  11.156  0.4752  1.7649  1.9544
 5598TIP3    H238286   2.299   4.776  11.252 -1.5530 -2.1603 -1.0426
 5599TIP3   OH238287   0.709   4.369   3.330  0.2154  0.3615 -0.5214
 5599TIP3    H138288   0.778   4.321   3.376 -0.1803  1.0456  0.8307
 5599TIP3    H238289   0.628   4.340   3.372 -0.2036  0.6359 -1.1307
 5600TIP3   OH238290   3.649   3.057  14.458  0.1541  0.8820  0.7567
 5600TIP3    H138291   3.597   3.134  14.434 -2.1425 -0.8476 -0.0110
 5600TIP3    H238292   3.732   3.093  14.489  0.1116  3.5846 -1.9825
 5601TIP3   OH238293   4.372   6.136  11.982 -0.2083 -0.3364 -0.3103
 5601TIP3    H138294   4.395   6.055  11.938  1.0369 -0.0750 -0.1688
 5601TIP3    H238295   4.404   6.125  12.071  0.9743  0.7235 -0.5825
 5602TIP3   OH238296   3.609   4.159   1.778 -0.3347 -0.9425 -0.0005
 5602TIP3    H138297   3.686   4.147   1.722  0.6225 -2.2308  1.5457
 5602TIP3    H238298   3.556   4.081   1.763 -0.4609 -0.9103  0.2749
 5603TIP3   OH238299   6.598   0.008   2.905  0.1785 -0.4834 -0.1775
 5603TIP3    H138300   6.534  -0.062   2.910  1.4061 -1.5938  0.1829
 5603TIP3    H238301   6.670  -0.028   2.853  0.9704  0.3742  0.2879
 5604TIP3   OH238302   2.460   3.754  15.942 -0.1643  0.3128  0.4816
 5604TIP3    H138303   2.488   3.837  15.982  0.1562  1.0040 -1.1384
 5604TIP3    H238304   2.524   3.739  15.872 -1.1515 -0.4994 -0.2484
 5605TIP3   OH238305   1.621   0.560   0.147  0.3399  0.0442 -0.3805
 5605TIP3    H138306   1.672   0.523   0.075  2.0277  1.7881 -0.1413
 5605TIP3    H238307   1.684   0.613   0.196 -0.6839 -1.3701  2.6141
 5606TIP3   OH238308   3.028   3.832   5.191  0.6241  0.7626 -0.3027
 5606TIP3    H138309   3.067   3.886   5.260 -0.3497  1.9839 -0.6947
 5606TIP3    H238310   2.972   3.769   5.238 -0.5381  2.0008  0.0100
 5607TIP3   OH238311   4.293   4.911   0.375 -0.1789  0.4777 -0.3568
 5607TIP3    H138312   4.363   4.862   0.419 -0.9202  0.4910  0.8686
 5607TIP3    H238313   4.246   4.953   0.447 -0.9599  1.1106 -1.2413
 5608TIP3   OH238314   5.424   1.532   5.521 -0.6139 -0.3119  0.0245
 5608TIP3    H138315   5.396   1.617   5.553  2.0294  0.3831  0.5999
 5608TIP3    H238316   5.395   1.529   5.430 -0.3021  1.4043 -0.1362
 5609TIP3   OH238317   6.373   6.268   1.886 -0.1635 -0.1709 -0.6299
 5609TIP3    H138318   6.352   6.205   1.817  1.2507 -0.5055 -0.7604
 5609TIP3    H238319   6.312   6.340   1.871 -1.9523 -1.5791 -0.3486
 5610TIP3   OH238320   4.632   6.734   5.515 -0.3936 -0.3704 -0.0893
 5610TIP3    H138321   4.672   6.749   5.601  1.1509 -0.6353 -0.7433
 5610TIP3    H238322   4.681   6.790   5.455 -2.2133  0.6814 -0.6360
 5611TIP3   OH238323   6.713   0.897  10.660 -0.1241  0.2394 -0.5766
 5611TIP3    H138324   6.655   0.893  10.736 -0.9309 -1.4024 -1.2744
 5611TIP3    H238325   6.688   0.979  10.615 -2.8074 -1.0621 -1.5650
 5612TIP3   OH238326   0.913   3.955  14.645 -0.5903  0.2963 -0.5455
 5612TIP3    H138327   0.890   3.921  14.731 -2.0794  0.3386 -0.9055
 5612TIP3    H238328   0.967   3.886  14.605  1.0720  0.7608  0.8272
 5613TIP3   OH238329   0.673   0.428  14.874 -0.0037  0.1361  0.2032
 5613TIP3    H138330   0.656   0.445  14.781  3.1397 -0.7002 -0.6066
 5613TIP3    H238331   0.656   0.334  14.884 -0.5446  0.2705  0.4961
 5614TIP3   OH238332   5.005   6.766   0.620 -0.3865 -0.0747  0.6048
 5614TIP3    H138333   4.923   6.808   0.593  0.1746  0.8677  0.3579
 5614TIP3    H238334   5.064   6.839   0.640 -0.1465 -0.7490  2.4308
 5615TIP3   OH238335   6.673   4.781  16.621  0.0419 -0.2583  0.4128
 5615TIP3    H138336   6.589   4.780  16.574  0.4452 -0.6975 -0.3095
 5615TIP3    H238337   6.734   4.740  16.560  1.0546  1.1659  0.4518
 5616TIP3   OH238338   6.116   3.925  15.068  0.1297  0.4164 -0.7031
 5616TIP3    H138339   6.128   4.009  15.022  1.7296  0.0200 -1.0276
 5616TIP3    H238340   6.091   3.864  14.999 -1.3546  0.6821 -0.4160
 5617TIP3   OH238341   6.069   1.106  16.749 -0.4750 -0.4302  0.0988
 5617TIP3    H138342   6.009   1.036  16.775 -0.0182 -1.1539 -0.7361
 5617TIP3    H238343   6.029   1.143  16.670  0.8287 -1.8054 -1.2448
 5618TIP3   OH238344   6.386   4.424  16.807 -0.3268 -0.3566 -0.1470
 5618TIP3    H138345   6.371   4.484  16.734 -1.9884 -1.6003 -0.8565
 5618TIP3    H238346   6.420   4.344  16.766 -0.5659 -0.8083  0.5296
 5619TIP3   OH238347   5.316   4.903  11.947 -0.0470  0.3247 -0.5737
 5619TIP3    H138348   5.364   4.836  11.996  1.2975  1.7306  0.0684
 5619TIP3    H238349   5.250   4.935  12.008 -1.8417 -1.5984 -1.4498
 5620TIP3   OH238350   6.820   5.415  14.980 -0.1212 -0.1426 -0.0708
 5620TIP3    H138351   6.834   5.503  14.945  0.1726 -0.6853 -1.3281
 5620TIP3    H238352   6.836   5.356  14.906 -0.4295 -1.2516  0.7270
 5621TIP3   OH238353   3.735   2.272  13.857  0.4420  0.4134  0.1185
 5621TIP3    H138354   3.794   2.199  13.839 -0.3244 -0.3704  0.7411
 5621TIP3    H238355   3.694   2.250  13.940 -0.7837  0.9062 -0.3380
 5622TIP3   OH238356   4.000   1.473   3.549  0.8288  0.3451  0.1556
 5622TIP3    H138357   4.095   1.468   3.533  0.4652 -0.0022 -2.1730
 5622TIP3    H238358   3.977   1.563   3.525  0.2853 -0.1410 -1.2349
 5623TIP3   OH238359   6.502   5.072  16.641 -0.5823 -0.4181  0.2799
 5623TIP3    H138360   6.500   4.979  16.665  1.2681 -0.1054  1.7724
 5623TIP3    H238361   6.543   5.115  16.716  0.6825  1.2894 -1.3539
 5624TIP3   OH238362   4.808   1.762   2.035  0.5975  0.3505  0.1386
 5624TIP3    H138363   4.788   1.754   1.942  2.2162 -0.5797 -0.1477
 5624TIP3    H238364   4.768   1.684   2.075  0.5417  0.3620  0.1048
 5625TIP3   OH238365   3.401   0.441  12.964 -0.2614 -0.3688 -0.5643
 5625TIP3    H138366   3.359   0.471  12.884 -0.4980 -1.5077 -0.8778
 5625TIP3    H238367   3.346   0.475  13.035  0.7146  1.8098 -0.8186
 5626TIP3   OH238368   5.046   0.494   2.934  0.1920 -0.1803 -0.4761
 5626TIP3    H138369   5.029   0.419   2.992  1.8707  0.6575  1.1540
 5626TIP3    H238370   5.071   0.565   2.994 -0.0465  1.2944 -2.1031
 5627TIP3   OH238371   2.096   4.634   5.592  0.1933  0.0225  0.7041
 5627TIP3    H138372   2.065   4.557   5.545  1.5526 -0.7807  1.1042
 5627TIP3    H238373   2.190   4.619   5.604  0.3759  1.5017  1.2378
 5628TIP3   OH238374   1.623   4.837   3.838 -0.7005 -0.7035  0.0510
 5628TIP3    H138375   1.616   4.753   3.883 -0.2347 -0.8697 -0.1842
 5628TIP3    H238376   1.672   4.892   3.898 -0.0014 -0.9522 -0.2881
 5629TIP3   OH238377   4.671   1.274   4.838 -0.4495  0.1319 -0.1748
 5629TIP3    H138378   4.762   1.304   4.835  0.2924 -1.9382  0.3318
 5629TIP3    H238379   4.667   1.205   4.772 -1.6404  0.1731 -0.1525
 5630TIP3   OH238380   3.682   2.882   5.590  0.0355 -0.0173 -0.1667
 5630TIP3    H138381   3.621   2.830   5.642  1.0456 -0.5176  0.5421
 5630TIP3    H238382   3.627   2.928   5.526 -1.3082  1.3116  1.9100
 5631TIP3   OH238383   0.139   4.485  14.934 -0.4480 -0.0568  0.0101
 5631TIP3    H138384   0.064   4.474  14.876 -1.0440  1.3541  0.4752
 5631TIP3    H238385   0.170   4.574  14.915 -0.5501  0.3608  1.7166
 5632TIP3   OH238386   1.990   0.862  16.576  0.0800  0.2574 -0.0586
 5632TIP3    H138387   1.924   0.795  16.591 -0.0673  0.6233  0.9828
 5632TIP3    H238388   1.952   0.917  16.507 -0.9792  0.8099  0.9427
 5633TIP3   OH238389   2.069   2.700  14.133 -0.3379 -0.0989  0.9560
 5633TIP3    H138390   2.091   2.703  14.040  0.0341 -1.6450  0.9725
 5633TIP3    H238391   2.064   2.791  14.161 -0.0321  0.3569 -0.4809
 5634TIP3   OH238392   2.381   2.898   4.684 -0.3734  1.2070  0.5812
 5634TIP3    H138393   2.370   2.844   4.762  1.8822  0.1302  0.2028
 5634TIP3    H238394   2.389   2.987   4.718 -0.4568  0.8780  1.4889
 5635TIP3   OH238395   0.846   6.512  11.455  0.1723 -0.1918 -0.5088
 5635TIP3    H138396   0.786   6.575  11.495 -0.4596 -1.1859  0.1223
 5635TIP3    H238397   0.849   6.439  11.517 -0.3541 -1.4936 -1.9818
 5636TIP3   OH238398   5.101   6.086   0.390 -0.7943  0.0939  0.1301
 5636TIP3    H138399   5.036   6.116   0.454 -0.6758  2.2707 -0.7492
 5636TIP3    H238400   5.185   6.106   0.430 -0.7122  0.5346 -0.2562
 5637TIP3   OH238401   3.961   4.903   0.266 -0.1606  0.7720  0.1024
 5637TIP3    H138402   4.018   4.980   0.273 -0.0827  0.9947 -2.4758
 5637TIP3    H238403   3.959   4.883   0.173  0.0329 -2.5767  0.7558
 5638TIP3   OH238404   4.384   4.416  12.095 -0.3226 -0.0903  0.4781
 5638TIP3    H138405   4.478   4.397  12.098 -0.0284  1.4913  2.0534
 5638TIP3    H238406   4.344   4.338  12.133  0.3277 -0.7789 -0.1990
 5639TIP3   OH238407   4.434   4.866   5.952 -0.0985 -0.0046  0.0691
 5639TIP3    H138408   4.379   4.847   6.029  0.3590  0.7017  0.5760
 5639TIP3    H238409   4.419   4.792   5.893 -2.2815  0.5889 -0.1757
 5640TIP3   OH238410   5.751   4.561   4.207  0.7997 -0.2445  0.1812
 5640TIP3    H138411   5.679   4.617   4.235  2.8794  1.6662  1.8974
 5640TIP3    H238412   5.749   4.487   4.267 -0.3227 -0.7033 -0.4064
 5641TIP3   OH238413   0.472   3.667  12.595 -0.3219 -0.2869  0.0572
 5641TIP3    H138414   0.379   3.658  12.618 -0.1297 -2.0118  0.2701
 5641TIP3    H238415   0.490   3.760  12.604 -2.7382  0.5196 -2.7664
 5642TIP3   OH238416   0.718   6.001   5.255 -0.3157 -0.4217  0.2330
 5642TIP3    H138417   0.651   5.993   5.323 -0.2246  0.6109  0.4545
 5642TIP3    H238418   0.798   6.022   5.302  0.4748 -2.9069  0.0893
 5643TIP3   OH238419   6.424   1.377  12.447 -0.1452  0.0567  0.1320
 5643TIP3    H138420   6.480   1.346  12.518  1.8485  1.8056 -0.6006
 5643TIP3    H238421   6.335   1.369  12.480  0.6536 -1.0095  2.0647
 5644TIP3   OH238422   5.848   5.954  15.184  0.1862 -0.2784 -0.1737
 5644TIP3    H138423   5.787   5.881  15.196 -0.3643  0.3010  0.5850
 5644TIP3    H238424   5.794   6.026  15.153  0.6499 -0.0438 -0.4461
 5645TIP3   OH238425   6.272   6.020   4.726  0.0302  0.7020  0.2501
 5645TIP3    H138426   6.293   6.073   4.649 -1.6166 -0.9486 -1.3738
 5645TIP3    H238427   6.177   6.028   4.735 -0.0393 -0.7571  0.8933
 5646TIP3   OH238428   0.865   5.321   5.899 -0.1994 -0.0906 -0.2049
 5646TIP3    H138429   0.908   5.406   5.912 -0.9801  0.1862  0.6381
 5646TIP3    H238430   0.798   5.317   5.968 -0.2571 -1.3349 -0.3198
 5647TIP3   OH238431   0.082   1.716  13.086  0.1446  0.1180  0.6399
 5647TIP3    H138432   0.131   1.776  13.143 -0.6998  0.9727  0.4882
 5647TIP3    H238433   0.094   1.751  12.998  0.5140 -0.5500  0.4227
 5648TIP3   OH238434   0.138   2.457   5.694  0.3119  0.1343  0.4178
 5648TIP3    H138435   0.065   2.406   5.659  1.7493 -1.8673  0.2506
 5648TIP3    H238436   0.128   2.451   5.789 -0.4586  0.9257  0.3872
 5649TIP3   OH238437   5.155   3.876  16.040 -0.5281 -0.2726 -0.1795
 5649TIP3    H138438   5.147   3.922  15.956 -0.3523 -0.4199 -0.2773
 5649TIP3    H238439   5.128   3.941  16.105 -3.8507 -1.1188 -0.6053
 5650TIP3   OH238440   0.816   2.260   4.910 -0.4104 -0.1595  0.0131
 5650TIP3    H138441   0.797   2.172   4.944  1.0515 -0.3785  0.2920
 5650TIP3    H238442   0.911   2.269   4.917 -0.5798  1.5943  0.3205
 5651TIP3   OH238443   3.293   5.266   1.214  0.5645  0.0027  0.1683
 5651TIP3    H138444   3.368   5.211   1.194  2.0538  1.6995  0.9067
 5651TIP3    H238445   3.238   5.261   1.137  1.1864 -1.6771 -0.1828
 5652TIP3   OH238446   5.332   5.658   6.183 -0.1659 -0.1874 -0.4675
 5652TIP3    H138447   5.238   5.644   6.193 -0.3465  1.4240  0.2121
 5652TIP3    H238448   5.344   5.752   6.196  1.6555 -0.5175  0.4415
 5653TIP3   OH238449   4.680   0.941   3.902  0.3664 -0.0401  0.3266
 5653TIP3    H138450   4.655   0.849   3.907  1.1310 -0.2335  0.6493
 5653TIP3    H238451   4.746   0.952   3.970  2.1084  0.1568 -1.3635
 5654TIP3   OH238452   5.799   3.926  14.275  0.2186 -0.0114 -0.0850
 5654TIP3    H138453   5.842   3.862  14.218  1.9987  0.6012  0.5255
 5654TIP3    H238454   5.743   3.873  14.331 -1.4319 -0.6380 -2.2560
 5655TIP3   OH238455   3.146   2.367  13.039 -0.1898 -0.1861 -0.0028
 5655TIP3    H138456   3.177   2.288  12.995 -0.5361  0.3159 -1.1767
 5655TIP3    H238457   3.089   2.409  12.975 -0.7492  0.5345  0.9628
 5656TIP3   OH238458   1.183   1.523  16.788 -0.1489 -0.3734 -0.0452
 5656TIP3    H138459   1.195   1.466  16.712 -0.4199  0.5473 -0.7830
 5656TIP3    H238460   1.156   1.463  16.859 -2.8354 -0.8755 -1.4249
 5657TIP3   OH238461   4.731   0.275  16.048  0.1494  0.2293 -0.6530
 5657TIP3    H138462   4.690   0.200  16.005 -1.4849  0.9774 -0.4200
 5657TIP3    H238463   4.721   0.347  15.986  0.9366  0.4674 -0.5098
 5658TIP3   OH238464   3.253   4.624   5.964  0.0707 -0.6605 -0.2818
 5658TIP3    H138465   3.195   4.681   6.015  1.0854 -0.6161  0.8565
 5658TIP3    H238466   3.221   4.631   5.874 -1.5148 -0.4336  0.2933
 5659TIP3   OH238467   0.319   2.876  14.567  0.0527 -0.5932  0.0414
 5659TIP3    H138468   0.357   2.802  14.518  1.7141 -0.7732  1.5498
 5659TIP3    H238469   0.375   2.885  14.644 -1.9188  0.3441  1.4027
 5660TIP3   OH238470   0.235   1.001   3.224  0.0106 -0.1419 -0.1344
 5660TIP3    H138471   0.171   1.067   3.248 -1.5557 -2.1332  1.3223
 5660TIP3    H238472   0.189   0.943   3.163  1.0919 -0.3656 -0.7535
 5661TIP3   OH238473   0.578   4.824  15.409  0.1016  0.1513 -0.2607
 5661TIP3    H138474   0.520   4.813  15.334  0.2427 -0.3632 -0.3016
 5661TIP3    H238475   0.649   4.761  15.393  0.9098  1.0924 -0.4435
 5662TIP3   OH238476   1.395   4.712   5.598 -0.2216  0.1681 -0.3293
 5662TIP3    H138477   1.478   4.715   5.550  0.2613 -0.8552  0.4245
 5662TIP3    H238478   1.329   4.698   5.531  0.3957 -0.7660 -0.7470
 5663TIP3   OH238479   4.678   2.223  17.034 -0.1777  0.3254 -0.5200
 5663TIP3    H138480   4.716   2.305  17.005  1.0770  0.3829  1.1968
 5663TIP3    H238481   4.753   2.165  17.049 -1.0398 -1.1753 -1.7840
 5664TIP3   OH238482   4.490   4.345  14.269  0.1527  0.1952 -0.3427
 5664TIP3    H138483   4.460   4.330  14.179 -1.1211  0.5261  0.0235
 5664TIP3    H238484   4.447   4.278  14.321 -0.3372  0.9807  0.2692
 5665TIP3   OH238485   1.156   4.927  13.000 -0.8713 -0.8289  0.0040
 5665TIP3    H138486   1.082   4.933  12.940 -0.1700 -3.3011 -1.1592
 5665TIP3    H238487   1.216   4.997  12.972 -1.5994 -0.4797 -0.6816
 5666TIP3   OH238488   6.244   2.705   4.558  0.0741  0.4254 -0.7611
 5666TIP3    H138489   6.298   2.774   4.597 -1.2898  0.5976  0.8792
 5666TIP3    H238490   6.187   2.751   4.496 -1.6523  0.9808  1.1910
 5667TIP3   OH238491   3.661   6.787   4.451  0.1432  0.3519  0.2606
 5667TIP3    H138492   3.620   6.708   4.484  0.2890  0.2138  0.1148
 5667TIP3    H238493   3.755   6.771   4.458  0.1870  0.0475 -0.8403
 5668TIP3   OH238494   6.760   1.552   2.701 -0.0157  0.0809 -0.3890
 5668TIP3    H138495   6.701   1.505   2.761 -1.3134  0.1640 -1.5654
 5668TIP3    H238496   6.725   1.532   2.614  0.6107  1.6228 -1.0031
 5669TIP3   OH238497   4.538   1.953  12.510  0.1765 -0.6681 -0.4479
 5669TIP3    H138498   4.468   1.895  12.480 -0.3096 -0.4165  0.1836
 5669TIP3    H238499   4.492   2.034  12.535  0.8421  0.0074 -1.3479
 5670TIP3   OH238500   4.636   0.422   3.419 -0.1195  0.0091 -0.3686
 5670TIP3    H138501   4.675   0.479   3.352 -0.0428  0.1134 -0.2338
 5670TIP3    H238502   4.659   0.333   3.391  1.0661  0.1155  0.2590
 5671TIP3   OH238503   3.896   1.557  12.956  0.1578 -0.0928  0.4221
 5671TIP3    H138504   3.988   1.536  12.940  0.0184  0.6836 -1.5127
 5671TIP3    H238505   3.898   1.614  13.033  0.9915 -2.7661  2.4418
 5672TIP3   OH238506   3.220   6.085   5.971  0.3792  0.4588 -0.2043
 5672TIP3    H138507   3.213   6.087   5.876  0.9098  0.2085 -0.2479
 5672TIP3    H238508   3.216   6.177   5.997 -0.0599  0.5107 -0.4416
 5673TIP3   OH238509   1.262   0.731   4.089 -0.0219  0.3160  0.1037
 5673TIP3    H138510   1.185   0.715   4.034 -0.1149 -0.1521  0.3676
 5673TIP3    H238511   1.333   0.743   4.026  0.2514 -2.1432 -0.1017
 5674TIP3   OH238512   3.451   3.933   2.309 -0.5871 -0.3959 -0.1959
 5674TIP3    H138513   3.478   3.921   2.400 -2.1315 -1.1993  0.1774
 5674TIP3    H238514   3.366   3.889   2.303 -0.0416 -1.2265 -2.2967
 5675TIP3   OH238515   4.170   4.378  14.204  0.1672 -0.0070 -0.2974
 5675TIP3    H138516   4.153   4.301  14.151 -0.1492  0.7108 -1.2636
 5675TIP3    H238517   4.092   4.389  14.257  0.2484 -0.4015 -0.0957
 5676TIP3   OH238518   4.266   1.729  12.590 -0.0742  0.2961 -0.1008
 5676TIP3    H138519   4.198   1.768  12.644  1.2629  1.7892  0.5673
 5676TIP3    H238520   4.224   1.711  12.506 -1.5565  0.1717  0.6568
 5677TIP3   OH238521   1.042   5.017  14.376 -0.1058 -0.5327  0.0155
 5677TIP3    H138522   0.978   5.080  14.343 -0.6998 -1.3607 -0.4132
 5677TIP3    H238523   1.006   4.932  14.354  0.5239 -1.0443  0.9159
 5678TIP3   OH238524   6.585   0.765   2.712 -0.0829 -0.0195 -0.3201
 5678TIP3    H138525   6.591   0.703   2.640  0.7139  0.6867 -0.8870
 5678TIP3    H238526   6.599   0.713   2.791  0.9537 -0.5076 -0.8161
 5679TIP3   OH238527   0.956   1.657  15.779 -0.1990  0.8532  0.6833
 5679TIP3    H138528   1.048   1.650  15.752 -1.1982 -1.3525 -2.3955
 5679TIP3    H238529   0.928   1.743  15.748  0.4887  1.0328  0.5533
 5680TIP3   OH238530   0.105   4.907   3.467 -0.3307  0.3280  0.5301
 5680TIP3    H138531   0.189   4.941   3.435  1.0933 -1.6444  2.0288
 5680TIP3    H238532   0.070   4.857   3.393  1.9916 -2.5580  1.2886
 5681TIP3   OH238533   3.964   6.283   6.009 -0.3064 -0.2748 -0.0175
 5681TIP3    H138534   3.919   6.231   6.075 -0.1328 -1.7425 -1.0187
 5681TIP3    H238535   4.055   6.289   6.040 -0.2079 -1.0268 -0.1391
 5682TIP3   OH238536   5.461   2.351   1.698  0.0666  0.0977  0.3843
 5682TIP3    H138537   5.395   2.284   1.680 -0.5098  0.6900  0.2547
 5682TIP3    H238538   5.414   2.419   1.746  0.3603  0.9481 -0.5143
 5683TIP3   OH238539   2.492   0.500   1.439  0.3554 -0.1968 -0.0837
 5683TIP3    H138540   2.446   0.448   1.503  1.7782 -1.3717  0.0093
 5683TIP3    H238541   2.516   0.438   1.369  0.4681  0.6760 -0.8364
 5684TIP3   OH238542   0.408   6.410   0.837  0.4262 -0.2578 -0.2278
 5684TIP3    H138543   0.401   6.472   0.910 -0.8088 -0.1837 -0.4002
 5684TIP3    H238544   0.398   6.463   0.759  1.3625 -0.3948 -0.4405
 5685TIP3   OH238545   3.648   3.564  17.205  0.3749  0.2832 -0.5722
 5685TIP3    H138546   3.597   3.546  17.126  2.0407 -0.2786 -1.5540
 5685TIP3    H238547   3.716   3.496  17.206  0.6584  0.5664  1.0915
 5686TIP3   OH238548   2.268   3.104   3.085  0.4291  0.9003  0.2111
 5686TIP3    H138549   2.216   3.028   3.113  0.2071  1.3929  1.1442
 5686TIP3    H238550   2.301   3.079   2.998  2.1219 -1.1442  1.3853
 5687TIP3   OH238551   0.068   5.561   4.892  0.0078 -0.7393  0.4310
 5687TIP3    H138552   0.092   5.566   4.984 -0.9670 -0.0243  0.6656
 5687TIP3    H238553  -0.027   5.546   4.893  0.0828 -1.2949 -0.4496
 5688TIP3   OH238554   5.095   2.218   2.601  0.0566 -0.0839 -0.1511
 5688TIP3    H138555   5.031   2.278   2.562  0.9497  0.2856 -1.0577
 5688TIP3    H238556   5.088   2.138   2.548  2.0817  0.8156 -1.8353
 5689TIP3   OH238557   6.683   5.600  16.658 -0.5375 -0.6260 -0.6166
 5689TIP3    H138558   6.757   5.553  16.618  0.6759  0.4839  0.2694
 5689TIP3    H238559   6.678   5.565  16.747 -0.4203  0.0207 -0.3489
 5690TIP3   OH238560   0.472   4.555   2.419 -0.1378  0.1107 -0.1712
 5690TIP3    H138561   0.500   4.591   2.503  0.7195 -1.6001  0.2830
 5690TIP3    H238562   0.423   4.476   2.441  2.6602 -2.0675 -1.3710
 5691TIP3   OH238563   2.140   6.529  12.219 -0.1019  0.5463 -0.7886
 5691TIP3    H138564   2.089   6.597  12.175  0.8613  0.1235 -2.6036
 5691TIP3    H238565   2.222   6.572  12.245 -0.1110  0.4506 -0.5913
 5692TIP3   OH238566   0.548   3.268  15.847 -0.5334  0.6630 -0.3372
 5692TIP3    H138567   0.478   3.297  15.789 -1.3919 -0.6729  0.0046
 5692TIP3    H238568   0.559   3.175  15.826 -0.5954  0.2593  1.3653
 5693TIP3   OH238569   3.798   1.844   3.805 -0.6343  0.0901  0.2028
 5693TIP3    H138570   3.798   1.939   3.818  0.2027  0.2141 -0.6430
 5693TIP3    H238571   3.739   1.830   3.731 -0.0941  0.0369 -0.2224
 5694TIP3   OH238572   1.176   2.858  14.175  0.4694  0.4168 -0.8339
 5694TIP3    H138573   1.092   2.904  14.171  0.5493  0.5361 -1.2049
 5694TIP3    H238574   1.203   2.865  14.267 -0.7059 -1.0496 -0.3481
 5695TIP3   OH238575   3.164   0.549  12.543 -0.1953  0.4021  0.2786
 5695TIP3    H138576   3.202   0.467  12.511 -0.4726  0.1805  0.5121
 5695TIP3    H238577   3.105   0.576  12.473  2.7506  2.4300 -1.5318
 5696TIP3   OH238578   6.650   3.664  12.622 -0.5878 -0.1843 -0.5623
 5696TIP3    H138579   6.616   3.666  12.532  0.0225  0.4642 -0.7825
 5696TIP3    H238580   6.708   3.587  12.623  1.1173  1.0478 -1.3700
 5697TIP3   OH238581   2.708   1.004  15.619 -0.4212  0.1492  0.1029
 5697TIP3    H138582   2.791   0.998  15.572  0.2378  0.7204  1.1831
 5697TIP3    H238583   2.692   1.098  15.627 -1.6667  0.0394 -0.9592
 5698TIP3   OH238584   5.166   5.454   6.498 -0.5004  0.3563  0.6368
 5698TIP3    H138585   5.197   5.515   6.565 -3.0771  2.4431  0.0109
 5698TIP3    H238586   5.070   5.464   6.499 -0.7884 -1.8346 -1.2435
 5699TIP3   OH238587   4.868   1.480   3.947  0.2759  0.2279 -0.2022
 5699TIP3    H138588   4.898   1.474   4.037  0.0500 -0.1612 -0.1520
 5699TIP3    H238589   4.779   1.515   3.954 -0.3540 -1.3631 -0.1701
 5700TIP3   OH238590   1.552   4.360   5.792 -0.2855  0.6125 -0.3504
 5700TIP3    H138591   1.514   4.316   5.868  0.4852  0.9491  0.2370
 5700TIP3    H238592   1.616   4.298   5.759 -0.7696  0.3796 -0.8566
 5701TIP3   OH238593   4.096   5.788   4.950  0.1791 -0.8203  0.1398
 5701TIP3    H138594   4.165   5.813   5.011  0.3039  1.1163 -0.7614
 5701TIP3    H238595   4.017   5.785   5.003  0.7473 -1.9706  0.9531
 5702TIP3   OH238596   0.297   6.313  11.397  0.1738  0.8971  0.6831
 5702TIP3    H138597   0.344   6.305  11.315  1.4322  0.2304  1.4555
 5702TIP3    H238598   0.219   6.260  11.386 -0.4567  2.0635 -0.6268
 5703TIP3   OH238599   3.547   2.424   3.077  0.3719 -0.1839  0.2367
 5703TIP3    H138600   3.527   2.502   3.025  0.6215 -0.2322  0.0681
 5703TIP3    H238601   3.467   2.371   3.073  0.0202  0.2947  0.7708
 5704TIP3   OH238602   3.741   2.154   1.055 -0.1082  0.0530  0.2012
 5704TIP3    H138603   3.809   2.214   1.024 -1.9001  1.7499 -0.5877
 5704TIP3    H238604   3.732   2.089   0.985 -0.3265  0.7094 -0.3936
 5705TIP3   OH238605   2.703   5.103  13.723 -0.3604  0.0709  0.3719
 5705TIP3    H138606   2.709   5.169  13.792  1.6298 -1.0643  1.3313
 5705TIP3    H238607   2.794   5.079  13.705 -0.7755  0.9344 -3.2612
 5706TIP3   OH238608   2.409   0.676   0.876  0.1697  0.1842  0.2794
 5706TIP3    H138609   2.326   0.630   0.885 -0.8164  1.6253 -1.2280
 5706TIP3    H238610   2.472   0.608   0.850 -0.4193 -0.9748  1.7901
 5707TIP3   OH238611   3.710   3.420  12.110  0.4856 -0.1697  0.2373
 5707TIP3    H138612   3.707   3.509  12.076  0.2830 -0.8080 -1.4244
 5707TIP3    H238613   3.802   3.395  12.107  0.5411 -0.0355  0.6949
 5708TIP3   OH238614   6.740   3.914  17.120  0.2326 -0.2128 -0.4272
 5708TIP3    H138615   6.698   3.861  17.187  1.7762 -0.7099  0.1579
 5708TIP3    H238616   6.810   3.960  17.165  1.0751 -0.2863 -1.6254
 5709TIP3   OH238617   4.804   3.260  11.381 -0.9836  0.5200 -0.3950
 5709TIP3    H138618   4.815   3.304  11.297  1.8394  0.7463  0.0320
 5709TIP3    H238619   4.848   3.176  11.370 -2.2525 -0.2513  0.2855
 5710TIP3   OH238620   1.903   4.266   4.580  0.1507 -0.3666  0.1150
 5710TIP3    H138621   1.916   4.176   4.550 -1.1674 -0.4025 -0.3630
 5710TIP3    H238622   1.836   4.301   4.522 -0.6900  0.3293  1.4892
 5711TIP3   OH238623   4.316   6.312  13.157 -0.0015 -0.1517  0.1048
 5711TIP3    H138624   4.347   6.230  13.196  0.2724 -0.7539 -1.3498
 5711TIP3    H238625   4.296   6.289  13.066  0.3199  1.4565 -0.3828
 5712TIP3   OH238626   4.426   3.144   5.904  0.2989  0.0391  0.1024
 5712TIP3    H138627   4.422   3.051   5.927  3.1393  0.2180  1.5365
 5712TIP3    H238628   4.418   3.190   5.987 -0.4483  1.0841 -0.5277
 5713TIP3   OH238629   2.539   2.195  11.795 -1.1838  0.1977  0.7455
 5713TIP3    H138630   2.620   2.145  11.789 -1.1120  0.5568 -1.9452
 5713TIP3    H238631   2.476   2.136  11.836  0.3122 -0.2160  2.4861
 5714TIP3   OH238632   4.277   2.472  13.857  0.2199  0.3085  0.1922
 5714TIP3    H138633   4.309   2.542  13.915  0.2919  0.2885  0.1759
 5714TIP3    H238634   4.213   2.425  13.910  0.4712  0.1340  0.3436
 5715TIP3   OH238635   6.521   1.108   1.384  0.0454 -0.3595  0.2135
 5715TIP3    H138636   6.571   1.081   1.461  0.0384  0.7099  0.5975
 5715TIP3    H238637   6.553   1.052   1.313  0.7760 -0.6438  0.7666
 5716TIP3   OH238638   4.759   3.940   4.574  0.6484  0.1381 -0.1581
 5716TIP3    H138639   4.712   3.947   4.657 -1.3835 -0.4849 -1.2275
 5716TIP3    H238640   4.798   3.852   4.576  1.4870  0.5140  0.5641
 5717TIP3   OH238641   6.808   4.955   4.702 -0.1064  0.4404 -0.0373
 5717TIP3    H138642   6.788   4.917   4.787  0.1864 -1.2891 -0.7042
 5717TIP3    H238643   6.726   4.994   4.673 -0.7101 -0.6089  0.2289
 5718TIP3   OH238644   4.542   2.414   6.288 -0.0786  0.0623  0.4508
 5718TIP3    H138645   4.480   2.347   6.261  0.4029  0.0795 -0.7402
 5718TIP3    H238646   4.626   2.385   6.251  0.1524  1.2560  0.0095
 5719TIP3   OH238647   5.318   1.338   0.143  0.1217 -0.6474  0.1193
 5719TIP3    H138648   5.333   1.329   0.237  0.1223  1.8049  0.3643
 5719TIP3    H238649   5.403   1.317   0.104  0.7163  0.4856  0.7906
 5720TIP3   OH238650   0.115   1.304  10.153 -0.2608 -0.0785  0.3151
 5720TIP3    H138651   0.105   1.348  10.238 -0.2614  0.3024  0.1200
 5720TIP3    H238652   0.196   1.341  10.117 -0.9942  0.7729 -0.4581
 5721TIP3   OH238653   2.179   4.605   0.579  0.9124 -0.5153  0.0629
 5721TIP3    H138654   2.238   4.667   0.536  0.8975  0.3480  1.2676
 5721TIP3    H238655   2.101   4.604   0.524  0.4510  1.4161  0.6381
 5722TIP3   OH238656   6.309   4.249  13.496  0.2863 -0.2676 -0.2464
 5722TIP3    H138657   6.263   4.194  13.432 -0.3543 -0.2548  0.1978
 5722TIP3    H238658   6.378   4.293  13.445 -1.1795  0.9211 -1.2602
 5723TIP3   OH238659   6.262   3.670   0.859 -0.2996 -0.5791  0.2975
 5723TIP3    H138660   6.313   3.599   0.819  0.1979 -1.0667  1.7946
 5723TIP3    H238661   6.274   3.744   0.799 -0.6823 -1.6865 -1.1879
 5724TIP3   OH238662   3.757   6.793   4.055  0.1125  0.2980 -0.1002
 5724TIP3    H138663   3.840   6.839   4.069 -0.5525  1.2724  0.7570
 5724TIP3    H238664   3.770   6.707   4.095  1.0140  0.1263 -0.7625
 5725TIP3   OH238665   0.087   4.562   5.627 -0.4201 -0.7595  0.0528
 5725TIP3    H138666   0.152   4.493   5.613  0.8646  0.4820 -0.2513
 5725TIP3    H238667   0.116   4.606   5.707  0.0210  0.8036 -0.9524
 5726TIP3   OH238668   0.381   0.329   4.640 -0.0418  0.4376  0.1872
 5726TIP3    H138669   0.313   0.300   4.579  0.4769  0.2458 -0.3165
 5726TIP3    H238670   0.445   0.374   4.584  0.2220  0.6446  0.6569
 5727TIP3   OH238671   0.603   6.578   5.379 -0.3835 -0.3119 -0.3834
 5727TIP3    H138672   0.574   6.487   5.372  1.5441 -1.0764  1.0508
 5727TIP3    H238673   0.698   6.572   5.393 -0.2073  1.9231 -0.3732
 5728TIP3   OH238674   4.158   4.777   3.954 -0.2089  0.2451  0.4469
 5728TIP3    H138675   4.063   4.763   3.944 -0.0048  0.1441 -1.4812
 5728TIP3    H238676   4.172   4.866   3.920  0.1361  0.9869  2.4437
 5729TIP3   OH238677   6.442   3.246  10.940  0.4846  0.0770 -0.1197
 5729TIP3    H138678   6.490   3.168  10.968  0.5359  0.1084 -0.1230
 5729TIP3    H238679   6.500   3.290  10.878  0.4444  0.1034 -0.1383
 5730TIP3   OH238680   3.393   3.037   3.895 -0.4603 -0.1682  0.0077
 5730TIP3    H138681   3.349   2.957   3.865  0.2279  0.1817 -2.0554
 5730TIP3    H238682   3.323   3.101   3.901 -1.0299 -0.9326  1.7423
 5731TIP3   OH238683   1.661   6.774   2.527 -0.0322 -0.7180 -0.2500
 5731TIP3    H138684   1.716   6.796   2.451 -1.7234  2.4518 -0.6302
 5731TIP3    H238685   1.695   6.829   2.598  1.0301 -3.1003  1.1429
 5732TIP3   OH238686   5.397   1.497  16.164 -0.0299  0.2849  0.3429
 5732TIP3    H138687   5.328   1.563  16.156 -0.5622 -0.2329  0.6507
 5732TIP3    H238688   5.352   1.413  16.158  0.6129 -0.0567  0.2176
 5733TIP3   OH238689   5.619   5.575  14.388 -0.1463 -1.0863  0.0981
 5733TIP3    H138690   5.648   5.484  14.386  3.0312 -0.1682  0.0740
 5733TIP3    H238691   5.578   5.589  14.303 -1.7064 -2.7674  0.5409
 5734TIP3   OH238692   0.306   3.125  13.853  0.1645  0.0210  0.6758
 5734TIP3    H138693   0.232   3.077  13.817  0.5804 -1.1994  1.4365
 5734TIP3    H238694   0.284   3.139  13.945  1.5612 -1.7591  1.3183
 5735TIP3   OH238695   2.932   3.174  13.897 -0.2842 -0.0277 -0.1900
 5735TIP3    H138696   2.915   3.080  13.906 -0.9816  0.0769 -0.3865
 5735TIP3    H238697   2.847   3.215  13.912 -0.0869  0.5407 -0.6089
 5736TIP3   OH238698   2.790   5.039  11.513 -0.0059  0.7853  0.0670
 5736TIP3    H138699   2.812   5.024  11.421 -2.1440 -0.9296 -0.2028
 5736TIP3    H238700   2.700   5.070  11.512  0.8656  3.5381  1.4412
 5737TIP3   OH238701   0.790   5.737   1.179  0.2481  0.3752 -0.3892
 5737TIP3    H138702   0.759   5.826   1.198  2.1258  1.1547 -0.8347
 5737TIP3    H238703   0.861   5.723   1.241  2.1551  0.4865 -2.4878
 5738TIP3   OH238704   1.641   6.755   3.789  0.0420  0.9205  0.0853
 5738TIP3    H138705   1.687   6.720   3.865 -0.0536 -1.5399 -0.9385
 5738TIP3    H238706   1.707   6.752   3.719 -0.9884 -0.4942 -0.8426
 5739TIP3   OH238707   1.636   4.237  15.677 -0.4734 -0.1649 -0.3967
 5739TIP3    H138708   1.553   4.230  15.630 -1.1399  0.9990  0.6005
 5739TIP3    H238709   1.676   4.318  15.643  0.2686 -0.7193 -0.8738
 5740TIP3   OH238710   4.195   0.454  12.654 -0.1905 -0.0371 -0.4414
 5740TIP3    H138711   4.211   0.362  12.636 -0.3708  0.1353 -1.4849
 5740TIP3    H238712   4.100   0.461  12.663 -0.3627  0.4287 -2.5122
 5741TIP3   OH238713   1.284   3.676   2.102  0.1964 -0.1270  0.2236
 5741TIP3    H138714   1.339   3.650   2.028  0.2589  1.1355 -0.1864
 5741TIP3    H238715   1.211   3.723   2.061 -0.0221  0.1385  0.9255
 5742TIP3   OH238716   5.555   1.742  14.283 -0.1450 -0.1286 -0.3782
 5742TIP3    H138717   5.635   1.756  14.334 -0.7784  1.3903  0.2306
 5742TIP3    H238718   5.534   1.649  14.298  1.0118 -0.3206  0.1585
 5743TIP3   OH238719   6.680   0.502   3.550 -0.1710  0.1884 -0.4677
 5743TIP3    H138720   6.736   0.544   3.486 -1.8892 -1.8900 -3.4801
 5743TIP3    H238721   6.657   0.417   3.511 -3.1203 -0.2011  1.8463
 5744TIP3   OH238722   3.879   6.808  12.359 -0.4238 -0.1808  0.5703
 5744TIP3    H138723   3.937   6.865  12.309  0.8432 -1.5833  0.3818
 5744TIP3    H238724   3.843   6.747  12.294 -3.0046  1.3525  0.5003
 5745TIP3   OH238725   6.018   5.747  11.270 -0.6457  0.4018 -0.3463
 5745TIP3    H138726   5.954   5.761  11.200 -0.9318  0.0297 -0.1616
 5745TIP3    H238727   6.096   5.713  11.226 -0.4055  1.3139 -0.6343
 5746TIP3   OH238728   2.830   2.486  13.404 -0.5065 -0.6387  0.5707
 5746TIP3    H138729   2.890   2.547  13.447 -1.1294 -1.2915  2.4089
 5746TIP3    H238730   2.886   2.418  13.367 -0.0263 -0.6016  1.2345
 5747TIP3   OH238731   4.714   4.711  13.180  0.1160  0.2239 -0.0687
 5747TIP3    H138732   4.660   4.653  13.234  0.4999 -0.7707 -0.7223
 5747TIP3    H238733   4.657   4.785  13.160  0.0885  0.7821  1.9698
 5748TIP3   OH238734   5.450   0.050   4.360 -0.4117  0.5243 -0.0972
 5748TIP3    H138735   5.415   0.005   4.437  1.6767  0.9159  1.1270
 5748TIP3    H238736   5.462  -0.020   4.295  0.4114 -0.2772  0.9079
 5749TIP3   OH238737   2.803   4.742  16.985  0.0783 -0.1585  0.0307
 5749TIP3    H138738   2.767   4.747  17.073  0.8266  0.1622  0.3180
 5749TIP3    H238739   2.870   4.674  16.989  1.8969  1.5908  0.3615
 5750TIP3   OH238740   5.706   2.415   4.310  0.5524 -0.3776  0.5353
 5750TIP3    H138741   5.671   2.455   4.390 -0.8233  0.2534 -0.3506
 5750TIP3    H238742   5.657   2.333   4.301 -0.2029  0.1655 -0.3354
 5751TIP3   OH238743   5.937   0.164   4.000 -0.2639  0.3142  0.1522
 5751TIP3    H138744   5.974   0.100   3.939  2.4490  1.1154  0.8697
 5751TIP3    H238745   5.978   0.247   3.975  1.0798  0.6191  3.1664
 5752TIP3   OH238746   5.293   0.049   2.166 -0.0851  0.2791  0.3959
 5752TIP3    H138747   5.296  -0.019   2.233  0.2079  0.4240  0.5329
 5752TIP3    H238748   5.304   0.003   2.083 -2.0555 -0.0997  0.3103
 5753TIP3   OH238749   4.354   2.522  14.585  0.1492 -0.3353  0.7064
 5753TIP3    H138750   4.368   2.572  14.665 -4.1977 -1.0027  2.0042
 5753TIP3    H238751   4.354   2.430  14.615 -1.0409 -0.6065 -0.1164
 5754TIP3   OH238752   5.988   6.420   5.247  0.0744  0.3833 -0.1721
 5754TIP3    H138753   5.964   6.433   5.338  1.1783  0.3730  0.1177
 5754TIP3    H238754   5.999   6.325   5.238 -1.5541  0.2174 -0.7061
 5755TIP3   OH238755   2.946   1.400  16.339 -0.0512 -0.3532  0.7923
 5755TIP3    H138756   3.031   1.414  16.381 -0.8571  1.3939  1.9237
 5755TIP3    H238757   2.919   1.487  16.310 -1.6990 -0.7830  0.9716
 5756TIP3   OH238758   6.430   6.773  12.621  0.5283  0.3828  0.0469
 5756TIP3    H138759   6.415   6.856  12.667  0.0107  0.9031 -1.0366
 5756TIP3    H238760   6.514   6.742  12.654  0.4437  1.0370  0.9090
 5757TIP3   OH238761   5.021   0.031  13.279 -0.6677  0.4053 -0.2157
 5757TIP3    H138762   5.087  -0.010  13.334 -1.0784 -1.9296 -1.4287
 5757TIP3    H238763   5.056   0.025  13.191 -0.6220  2.9457 -0.4238
 5758TIP3   OH238764   6.446   2.445   3.036  0.2946 -0.6374 -0.4529
 5758TIP3    H138765   6.362   2.416   3.001 -0.1944  1.8753 -1.3838
 5758TIP3    H238766   6.429   2.463   3.129  0.1130 -1.2438 -0.3630
 5759TIP3   OH238767   6.694   5.848  12.983 -0.0048 -0.0220 -0.4431
 5759TIP3    H138768   6.779   5.845  13.026  1.3605 -1.6362 -3.0747
 5759TIP3    H238769   6.634   5.807  13.045  1.4423 -0.2598  0.8315
 5760TIP3   OH238770   3.567   5.090  13.444 -0.4227 -0.6467 -0.1690
 5760TIP3    H138771   3.484   5.054  13.475 -0.9559  1.1365  0.5560
 5760TIP3    H238772   3.544   5.178  13.413  0.8558 -0.8699 -1.7744
 5761TIP3   OH238773   5.222   0.434  15.321  0.3276 -0.3738 -0.0697
 5761TIP3    H138774   5.180   0.491  15.257 -0.2543 -1.7100 -0.8835
 5761TIP3    H238775   5.160   0.362  15.334  0.6057 -0.3236  1.6977
 5762TIP3   OH238776   5.576   3.833  14.761  0.5519 -0.5068 -0.0807
 5762TIP3    H138777   5.627   3.770  14.711  1.8663  1.0095 -0.7137
 5762TIP3    H238778   5.618   3.836  14.847  0.8453 -0.0837 -0.2380
 5763TIP3   OH238779   3.728   2.626  14.498 -0.0468  0.8264 -0.0321
 5763TIP3    H138780   3.670   2.693  14.462 -0.4370  0.0386 -0.8911
 5763TIP3    H238781   3.796   2.614  14.431 -0.6065 -0.4291 -0.4048
 5764TIP3   OH238782   1.653   6.494  11.459 -0.2775  0.3359  0.9280
 5764TIP3    H138783   1.559   6.511  11.459 -0.1192  1.2041 -0.4450
 5764TIP3    H238784   1.688   6.551  11.391  1.0037 -1.3076  0.1878
 5765TIP3   OH238785   2.666   5.232  10.383  0.2652 -0.1011  0.2874
 5765TIP3    H138786   2.671   5.163  10.449 -2.1238 -0.3951  0.1933
 5765TIP3    H238787   2.702   5.309  10.427  2.9762 -1.3418  0.3916
 5766TIP3   OH238788   2.979   6.551   3.583 -0.4113  0.4290 -0.3001
 5766TIP3    H138789   2.931   6.595   3.654  0.8249  0.7318  0.3574
 5766TIP3    H238790   2.938   6.465   3.576 -1.4830  0.9225 -0.1829
 5767TIP3   OH238791   5.510   0.819   2.929  0.0459  0.3431 -0.3357
 5767TIP3    H138792   5.499   0.761   3.004 -1.8433 -0.2365 -1.0472
 5767TIP3    H238793   5.423   0.857   2.915  0.4349  0.6343 -2.0732
 5768TIP3   OH238794   2.967   1.968  16.287  0.3464 -0.2706  0.7483
 5768TIP3    H138795   2.986   2.056  16.256  0.8107 -0.4528  0.4996
 5768TIP3    H238796   2.893   1.938  16.235  0.2175 -0.0447  0.8044
 5769TIP3   OH238797   1.530   5.559  13.980 -0.3707  0.2099  0.0419
 5769TIP3    H138798   1.464   5.503  13.940  1.5911 -1.3916 -1.0367
 5769TIP3    H238799   1.554   5.514  14.061  0.7780 -0.2378 -0.5303
 5770TIP3   OH238800   1.863   6.806   2.331  0.3025  0.3978 -0.1423
 5770TIP3    H138801   1.952   6.827   2.305  0.3282 -0.8843 -1.1661
 5770TIP3    H238802   1.808   6.871   2.287  0.5076 -0.5733 -1.8659
 5771TIP3   OH238803   4.171   4.963  13.890 -0.1380  0.4395  0.9340
 5771TIP3    H138804   4.198   5.006  13.972  1.9423 -0.4611  0.7495
 5771TIP3    H238805   4.152   5.035  13.830  0.5884  1.1103  1.4984
 5772TIP3   OH238806   5.659   3.947  15.005  0.5734 -0.2416 -0.1549
 5772TIP3    H138807   5.688   3.866  15.046  0.8169  1.2201  2.6778
 5772TIP3    H238808   5.585   3.975  15.059  0.0742  1.0901 -1.5061
 5773TIP3   OH238809   1.785   4.677   0.838  0.2841 -0.6814 -0.0533
 5773TIP3    H138810   1.725   4.639   0.902 -0.6119  0.5986 -0.1205
 5773TIP3    H238811   1.857   4.712   0.891  1.0758 -2.3804  0.0123
 5774TIP3   OH238812   1.432   4.066  14.304  0.4426 -0.6101  0.4213
 5774TIP3    H138813   1.487   4.019  14.366  0.4304 -3.8540 -1.9154
 5774TIP3    H238814   1.491   4.089  14.232  0.0617  1.5047  0.7385
 5775TIP3   OH238815   1.394   1.375   5.065  0.6169 -0.0729  0.3285
 5775TIP3    H138816   1.350   1.291   5.059  0.7097  0.0668 -3.8600
 5775TIP3    H238817   1.451   1.368   5.141 -0.7180 -3.1159  1.0944
 5776TIP3   OH238818   2.466   0.583  15.051 -0.0357  0.0059 -0.6803
 5776TIP3    H138819   2.541   0.584  14.993  1.1395 -0.9455  0.7934
 5776TIP3    H238820   2.461   0.672  15.086 -0.2001  0.3295 -1.5046
 5777TIP3   OH238821   2.066   0.342   3.145 -0.7306 -0.1741  0.1409
 5777TIP3    H138822   2.161   0.349   3.138 -0.8422  0.6935 -0.8002
 5777TIP3    H238823   2.039   0.300   3.063 -1.0104 -2.0861  1.2026
 5778TIP3   OH238824   1.273   1.962  12.320  0.1813 -0.3364  0.1537
 5778TIP3    H138825   1.272   2.039  12.377  0.1297 -0.1779 -0.0582
 5778TIP3    H238826   1.248   1.890  12.377 -2.8971  0.2771 -0.3006
 5779TIP3   OH238827   4.489   4.705   1.013 -0.1077  0.3599  0.1816
 5779TIP3    H138828   4.446   4.639   1.067 -1.6281  0.1875 -1.1916
 5779TIP3    H238829   4.551   4.655   0.959 -1.5078 -0.0176 -1.1068
 5780TIP3   OH238830   2.981   1.809   4.135  0.3772 -0.3155 -0.3938
 5780TIP3    H138831   2.962   1.721   4.168  0.8499 -0.0352  0.6513
 5780TIP3    H238832   3.032   1.794   4.055 -1.2875 -1.0020 -1.3470
 5781TIP3   OH238833   1.521   2.489  11.807 -0.6979 -0.7642 -0.5824
 5781TIP3    H138834   1.502   2.411  11.859  1.4632  0.1187  1.6287
 5781TIP3    H238835   1.468   2.558  11.846 -1.2200 -0.7299 -1.3571
 5782TIP3   OH238836   6.610   3.711  14.445  0.5966 -0.6637  0.3121
 5782TIP3    H138837   6.545   3.774  14.413  1.3914  0.2123  0.4179
 5782TIP3    H238838   6.562   3.658  14.510 -0.1329 -0.3297  0.0544
 5783TIP3   OH238839   1.925   6.763  16.640  0.0867  0.3159 -0.7585
 5783TIP3    H138840   1.988   6.787  16.708 -1.1942 -0.2780  0.6601
 5783TIP3    H238841   1.842   6.800  16.670 -0.3940  0.4542 -2.2408
 5784TIP3   OH238842   5.877   0.974  11.190  0.3295  0.0034 -0.2880
 5784TIP3    H138843   5.855   0.952  11.281  0.0965 -0.7426 -0.5254
 5784TIP3    H238844   5.872   0.891  11.143 -0.1777  0.4967 -1.1107
 5785TIP3   OH238845   6.011   1.293  15.294  0.6166 -0.1716  0.5729
 5785TIP3    H138846   6.054   1.364  15.246 -2.3347  0.4315 -1.2958
 5785TIP3    H238847   5.990   1.331  15.379  0.2524  0.7757  0.0675
 5786TIP3   OH238848   2.890   5.211   6.442 -0.3595  0.1736 -0.4386
 5786TIP3    H138849   2.924   5.298   6.466 -0.3526  0.4076 -1.2932
 5786TIP3    H238850   2.966   5.165   6.407 -0.1447 -0.5180  0.8996
 5787TIP3   OH238851   5.734   0.116   2.556  0.3894 -0.2239  0.2646
 5787TIP3    H138852   5.762   0.172   2.628  0.3122  0.3834 -0.1735
 5787TIP3    H238853   5.683   0.047   2.598  0.7841 -0.1610  0.8453
 5788TIP3   OH238854   5.207   5.055   0.851  0.3654  0.0187 -0.1533
 5788TIP3    H138855   5.137   5.079   0.790 -0.0050 -0.2919  0.1465
 5788TIP3    H238856   5.250   4.981   0.808 -0.7029 -1.0287  0.5434
 5789TIP3   OH238857   2.536   5.246  15.093 -0.0496  0.2332  0.2404
 5789TIP3    H138858   2.579   5.312  15.148  1.0118 -1.3831  1.4068
 5789TIP3    H238859   2.443   5.255  15.114  0.2171  0.5160  1.3488
 5790TIP3   OH238860   3.193   5.742  14.293 -0.2379 -0.4603 -0.5590
 5790TIP3    H138861   3.235   5.808  14.237 -0.5973 -0.3985 -0.7537
 5790TIP3    H238862   3.266   5.698  14.336  0.1091 -1.3895 -2.0622
 5791TIP3   OH238863   5.670   1.728   5.873  0.0896  0.2874  0.7508
 5791TIP3    H138864   5.586   1.690   5.848  0.1132 -0.4143  1.7159
 5791TIP3    H238865   5.653   1.774   5.955  0.4432  0.9312  0.4702
 5792TIP3   OH238866   4.376   2.237   6.163  0.3453 -0.3297 -0.7462
 5792TIP3    H138867   4.310   2.288   6.208 -0.0025 -1.3614 -0.0718
 5792TIP3    H238868   4.329   2.161   6.129  1.0216 -0.6499 -0.9846
 5793TIP3   OH238869   0.460   2.365  14.245  0.3669  0.3949 -0.3790
 5793TIP3    H138870   0.546   2.378  14.286 -0.6905  2.1159  1.3460
 5793TIP3    H238871   0.406   2.326  14.315  0.2493 -2.6137 -2.0375
 5794TIP3   OH238872   0.512   5.550  13.009  0.3120 -0.1286 -0.8552
 5794TIP3    H138873   0.482   5.638  13.030  0.3368 -0.3047 -0.0343
 5794TIP3    H238874   0.560   5.523  13.087  0.3437 -0.8501 -1.1228
 5795TIP3   OH238875   6.681   4.563   3.034 -0.1245 -0.2713  0.0475
 5795TIP3    H138876   6.586   4.568   3.024 -0.1298  0.4838  0.4910
 5795TIP3    H238877   6.701   4.471   3.016 -0.9551 -0.4717  0.1041
 5796TIP3   OH238878   6.142   6.270   3.208  0.2957 -0.1279 -0.1834
 5796TIP3    H138879   6.150   6.366   3.206 -1.0602  0.0159  1.0961
 5796TIP3    H238880   6.082   6.250   3.136 -2.2152  0.2911  1.7462
 5797TIP3   OH238881   1.835   6.767  13.853  0.3206 -0.2213  0.2463
 5797TIP3    H138882   1.844   6.816  13.771  1.3828  0.1099  0.5581
 5797TIP3    H238883   1.781   6.691  13.829 -0.4439  0.5249 -0.4732
 5798TIP3   OH238884   1.155   0.304  15.740  0.3074 -0.3003 -0.5336
 5798TIP3    H138885   1.094   0.274  15.807  1.2623 -1.6533 -0.2529
 5798TIP3    H238886   1.109   0.376  15.696 -1.4876 -1.3087 -0.3540
 5799TIP3   OH238887   5.028   5.128  13.037 -0.1556 -0.3141  0.3162
 5799TIP3    H138888   5.001   5.179  13.113 -0.6664  2.7666 -1.8121
 5799TIP3    H238889   4.953   5.133  12.977 -0.1457 -3.4598 -0.0637
 5800TIP3   OH238890   4.048   5.940  15.214 -0.1532  0.4482  0.6321
 5800TIP3    H138891   4.067   5.923  15.306  0.4456 -1.2890  0.2122
 5800TIP3    H238892   4.023   5.855  15.178 -2.8187  1.5687 -0.2623
 5801TIP3   OH238893   3.982   3.612   2.166 -0.0185 -0.6080 -0.0137
 5801TIP3    H138894   3.900   3.645   2.128  0.6900 -0.9420 -1.9183
 5801TIP3    H238895   3.981   3.519   2.145  1.6097 -0.3032 -1.5093
 5802TIP3   OH238896   2.225   4.647   2.962  0.0778  0.0637 -0.2108
 5802TIP3    H138897   2.149   4.704   2.975 -0.8169 -1.2752  0.5025
 5802TIP3    H238898   2.189   4.567   2.925  1.2869 -0.1682 -0.8996
 5803TIP3   OH238899   3.940   1.514   0.312 -0.2762 -0.7132 -0.1429
 5803TIP3    H138900   3.940   1.610   0.321  1.5384 -0.2960 -3.5802
 5803TIP3    H238901   3.858   1.495   0.268  0.3087 -0.4711 -1.3658
 5804TIP3   OH238902   3.962   2.845   5.506 -0.2997  0.0088 -0.2685
 5804TIP3    H138903   4.007   2.917   5.552 -0.9826 -0.8422  1.8116
 5804TIP3    H238904   3.871   2.852   5.535  0.0940 -3.1736  1.9484
 5805TIP3   OH238905   3.646   4.326   3.163  0.3869  0.0944 -0.2359
 5805TIP3    H138906   3.655   4.326   3.258 -1.3335  1.3899 -0.0602
 5805TIP3    H238907   3.577   4.262   3.146  0.7301 -0.1760 -0.6372
 5806TIP3   OH238908   5.514   3.255   5.453 -0.7442 -0.0747 -0.7404
 5806TIP3    H138909   5.453   3.270   5.382 -1.5275  0.6710  0.0913
 5806TIP3    H238910   5.468   3.282   5.532 -0.3453 -2.0343  0.2162
 5807TIP3   OH238911   5.473   1.747  11.389  0.6146 -0.2677  0.0376
 5807TIP3    H138912   5.401   1.696  11.425  0.4083  1.3956  2.1183
 5807TIP3    H238913   5.538   1.749  11.459  1.1175  1.2924 -0.4535
 5808TIP3   OH238914   5.549   2.975  14.585  0.2117  0.4841 -0.3570
 5808TIP3    H138915   5.505   3.041  14.530  0.1239  0.9522  0.2702
 5808TIP3    H238916   5.483   2.907  14.598  0.5052 -0.0367 -1.5261
 5809TIP3   OH238917   1.417   2.881   1.220 -0.3512 -0.1544  0.0466
 5809TIP3    H138918   1.420   2.970   1.186 -0.5122 -0.4007 -0.6313
 5809TIP3    H238919   1.431   2.826   1.143  1.3808 -0.6823  0.7058
 5810TIP3   OH238920   6.804   5.391   4.656  0.6160  0.1810 -0.1803
 5810TIP3    H138921   6.788   5.410   4.749  0.5147  2.7008 -0.6858
 5810TIP3    H238922   6.721   5.412   4.613  1.4853  1.6545 -1.1865
 5811TIP3   OH238923   1.678   4.001  14.882 -0.2859  0.1743  0.0742
 5811TIP3    H138924   1.679   4.027  14.974 -2.8019 -0.3058  0.2943
 5811TIP3    H238925   1.718   4.074  14.836  0.7597  0.5362  1.5211
 5812TIP3   OH238926   5.445   6.009  10.999  0.1103 -0.0903 -0.8778
 5812TIP3    H138927   5.435   6.011  10.904  4.0299 -2.5154 -1.4640
 5812TIP3    H238928   5.538   5.989  11.013 -0.3638  0.2579  3.4752
 5813TIP3   OH238929   2.666   3.971   0.792 -0.1222 -0.6663 -0.8712
 5813TIP3    H138930   2.634   4.056   0.822 -1.9283 -0.9938 -1.7709
 5813TIP3    H238931   2.746   3.990   0.744  0.2851  0.3542  0.1880
 5814TIP3   OH238932   5.621   4.669  13.131 -0.2481  0.2017  0.2754
 5814TIP3    H138933   5.589   4.689  13.219  2.6317  1.2182  1.1542
 5814TIP3    H238934   5.644   4.577  13.134  0.4185  0.3806  0.7906
 5815TIP3   OH238935   2.661   0.729   1.446  0.2373  0.1732 -0.0635
 5815TIP3    H138936   2.573   0.692   1.435 -0.7298  2.4582 -0.5731
 5815TIP3    H238937   2.655   0.780   1.527 -0.5004  4.3805 -2.5756
 5816TIP3   OH238938   1.445   0.164  16.558 -0.7828 -0.3102  0.8890
 5816TIP3    H138939   1.501   0.128  16.489 -0.9991 -0.3186  0.7190
 5816TIP3    H238940   1.406   0.087  16.599 -0.3153 -0.3299  1.3094
 5817TIP3   OH238941   3.949   2.322   0.975  0.3663 -0.1061  0.3250
 5817TIP3    H138942   4.005   2.303   0.900  0.0736  2.1985 -0.5210
 5817TIP3    H238943   4.009   2.321   1.050  1.8051  3.2525 -0.6845
 5818TIP3   OH238944   3.984   5.067  11.459  0.1423 -0.5535  0.0949
 5818TIP3    H138945   3.951   4.977  11.449 -1.6674 -0.6624  5.4141
 5818TIP3    H238946   4.067   5.057  11.505  1.2309  0.3981 -1.6414
 5819TIP3   OH238947   3.946   3.771   0.835 -0.0551 -0.7449  0.3115
 5819TIP3    H138948   3.961   3.702   0.900  0.8156 -0.3166  0.5723
 5819TIP3    H238949   3.993   3.847   0.869  0.1008 -0.4088 -0.6335
 5820TIP3   OH238950   3.151   0.056   5.724 -0.1634  0.1400  0.6579
 5820TIP3    H138951   3.234   0.101   5.739  3.0599 -3.6287 -4.2924
 5820TIP3    H238952   3.150  -0.013   5.790  1.6205 -0.8888 -0.3306
 5821TIP3   OH238953   3.899   2.066   3.580  0.2804 -0.4127 -0.1727
 5821TIP3    H138954   3.812   2.104   3.573 -0.2793 -1.3918  1.1690
 5821TIP3    H238955   3.940   2.116   3.651  1.4576  1.1954 -1.9220
 5822TIP3   OH238956   5.011   3.549  14.997 -0.5917 -0.0209 -0.2643
 5822TIP3    H138957   5.038   3.462  14.968 -0.5418 -0.4970  1.1335
 5822TIP3    H238958   5.085   3.605  14.975 -0.5953 -0.3384 -1.1135
 5823TIP3   OH238959   1.372   2.969   0.451 -0.0518  0.4366  0.1143
 5823TIP3    H138960   1.286   2.930   0.434 -0.1959  0.9633 -0.3634
 5823TIP3    H238961   1.372   2.986   0.545 -0.4759  0.4428  0.1150
 5824TIP3   OH238962   0.250   4.922   5.981  0.3140  1.3478 -0.1390
 5824TIP3    H138963   0.193   4.997   6.000  1.5460  2.2170  0.1621
 5824TIP3    H238964   0.275   4.933   5.889  0.2050  1.1018 -0.1998
 5825TIP3   OH238965   4.381   5.380  15.109 -0.1886  0.2596  0.0840
 5825TIP3    H138966   4.387   5.470  15.141  0.3925 -0.2499  1.4003
 5825TIP3    H238967   4.463   5.366  15.061 -0.2633  0.4123 -0.0914
 5826TIP3   OH238968   3.852   5.464   0.157  0.4826 -0.5426 -0.0809
 5826TIP3    H138969   3.896   5.519   0.221  0.4724  0.3181 -0.8052
 5826TIP3    H238970   3.919   5.403   0.127  0.3648 -1.2485  1.0900
 5827TIP3   OH238971   4.049   2.369  14.003 -0.5220  0.3597 -0.0302
 5827TIP3    H138972   4.073   2.431  14.073  0.2012  0.1019 -0.0471
 5827TIP3    H238973   3.975   2.411  13.959 -1.2277  0.3520  1.1278
 5828TIP3   OH238974   1.900   2.789   5.081  0.4155 -0.1975 -0.0968
 5828TIP3    H138975   1.891   2.788   5.177  0.4804  1.4981 -0.0661
 5828TIP3    H238976   1.867   2.703   5.054  0.3923 -0.7007  1.4408
 5829TIP3   OH238977   1.180   5.738   4.825  0.5254 -0.5867  0.5163
 5829TIP3    H138978   1.167   5.728   4.919  0.0359  2.0897  0.7649
 5829TIP3    H238979   1.164   5.830   4.808 -0.4852 -1.2370 -2.3831
 5830TIP3   OH238980   5.066   4.082  12.877  0.1841 -0.2163 -0.3283
 5830TIP3    H138981   5.074   4.000  12.829 -0.0690 -1.0679  1.0583
 5830TIP3    H238982   5.155   4.115  12.883  0.1297  0.3249 -2.0729
 5831TIP3   OH238983   0.319   6.378   5.278  0.3610  0.3621 -0.1932
 5831TIP3    H138984   0.344   6.300   5.328 -2.9782  0.2630  1.4882
 5831TIP3    H238985   0.319   6.448   5.343  0.2054  1.1111 -0.9965
 5832TIP3   OH238986   2.855   4.868  15.932  0.4161  0.0698 -0.3054
 5832TIP3    H138987   2.816   4.787  15.965  1.1115 -0.0161  0.3100
 5832TIP3    H238988   2.928   4.839  15.878  0.9389  0.3016  0.2772
 5833TIP3   OH238989   4.937   3.788  14.026  0.5742  0.5705  0.3576
 5833TIP3    H138990   4.891   3.789  13.942 -0.2167 -1.5881  0.7313
 5833TIP3    H238991   4.907   3.867  14.071 -2.4758 -0.5489  0.4042
 5834TIP3   OH238992   6.445   3.956  14.860  0.2104 -0.0314  0.3702
 5834TIP3    H138993   6.369   3.930  14.809  0.1555  0.0956  0.3861
 5834TIP3    H238994   6.518   3.950  14.799 -0.1367  2.0402 -0.2858
 5835TIP3   OH238995   6.194   3.736  10.475  0.2505  0.2662 -0.4086
 5835TIP3    H138996   6.208   3.825  10.444 -0.1632  0.1761 -0.8646
 5835TIP3    H238997   6.281   3.703  10.495  0.6172  0.0460 -2.2470
 5836TIP3   OH238998   5.178   4.988   2.720  0.3971 -0.0053 -0.1347
 5836TIP3    H138999   5.161   4.994   2.814 -0.0072  2.3838 -0.3418
 5836TIP3    H239000   5.194   5.078   2.692 -1.6833 -0.3646 -2.7601
 5837TIP3   OH239001   4.881   5.795  17.199 -0.3354  0.3188  0.2570
 5837TIP3    H139002   4.826   5.779  17.276  0.1879  0.1483  0.5945
 5837TIP3    H239003   4.818   5.811  17.128 -0.8401 -1.1196  0.3669
 5838TIP3   OH239004   2.260   5.505   3.769 -0.3575  0.2811  0.0708
 5838TIP3    H139005   2.277   5.424   3.817 -0.0407  0.3823  0.1284
 5838TIP3    H239006   2.189   5.483   3.709 -1.7417  0.5098  1.5719
 5839TIP3   OH239007   3.825   4.853  12.356 -0.4548  0.6315  0.3025
 5839TIP3    H139008   3.916   4.882  12.346 -0.0756 -0.1953  1.2505
 5839TIP3    H239009   3.806   4.866  12.449 -0.3517 -1.8790  0.7017
 5840TIP3   OH239010   5.929   6.000  12.944 -0.6768 -0.3730 -0.2540
 5840TIP3    H139011   5.980   5.922  12.964 -0.5273  0.0978  1.2823
 5840TIP3    H239012   5.981   6.072  12.980 -1.0345  0.3912 -1.2465
 5841TIP3   OH239013   3.767   2.764  13.993 -0.4872  0.0188 -0.0177
 5841TIP3    H139014   3.739   2.838  13.940  0.5240  0.9594  0.7407
 5841TIP3    H239015   3.836   2.722  13.942 -1.1750 -0.5102 -0.5224
 5842TIP3   OH239016   4.393   3.413  15.094 -0.0090 -0.6074 -0.1397
 5842TIP3    H139017   4.457   3.378  15.155 -0.0242  0.1726  0.3268
 5842TIP3    H239018   4.388   3.347  15.025  0.8295 -0.9676  0.1320
 5843TIP3   OH239019   5.836   3.244   3.109  0.0079  0.2880  0.1743
 5843TIP3    H139020   5.777   3.311   3.144  0.4120  0.9916 -0.4489
 5843TIP3    H239021   5.824   3.250   3.014  0.3893 -0.2140  0.0936
 5844TIP3   OH239022   4.734   1.715   4.729  0.0078  0.5177  0.0007
 5844TIP3    H139023   4.765   1.625   4.716 -1.6419 -0.1109  0.3020
 5844TIP3    H239024   4.687   1.713   4.812 -0.4028  1.5594 -0.1937
 5845TIP3   OH239025   5.926   5.675  13.993 -0.0219 -0.1465  0.7871
 5845TIP3    H139026   5.904   5.609  14.058  0.2608  0.2779  1.3224
 5845TIP3    H239027   6.006   5.715  14.026  0.6383 -0.5401 -0.2774
 5846TIP3   OH239028   0.333   2.228   1.081 -0.1759 -0.9713 -0.2726
 5846TIP3    H139029   0.324   2.259   1.171 -1.9648  2.1212 -1.4412
 5846TIP3    H239030   0.422   2.254   1.055  0.6013 -2.5068  0.7879
 5847TIP3   OH239031   0.627   6.766   6.733  0.1604 -0.3673 -0.6071
 5847TIP3    H139032   0.654   6.760   6.641  1.9934 -1.8813  0.0092
 5847TIP3    H239033   0.537   6.733   6.734  0.2025 -0.5304 -1.8124
 5848TIP3   OH239034   4.062   5.875   2.555 -0.3284  0.1284 -0.2848
 5848TIP3    H139035   4.063   5.780   2.550  0.6352  0.1649 -0.8712
 5848TIP3    H239036   4.153   5.900   2.569 -0.8387  0.8661  2.0176
 5849TIP3   OH239037   4.341   2.167   5.836  1.0512 -0.3044 -0.7956
 5849TIP3    H139038   4.341   2.076   5.867 -0.2391 -0.3943 -1.0230
 5849TIP3    H239039   4.408   2.210   5.889 -0.0001 -0.8434  1.0293
 5850TIP3   OH239040   5.266   5.643  13.242 -0.1462 -0.2576 -0.0765
 5850TIP3    H139041   5.208   5.677  13.174  0.9854  0.5440 -0.6447
 5850TIP3    H239042   5.329   5.713  13.258  1.3639 -1.5379 -0.2666
 5851TIP3   OH239043   3.425   1.956  15.237 -0.3238 -0.5201 -0.4283
 5851TIP3    H139044   3.463   1.887  15.292  0.2956  0.9033  0.9969
 5851TIP3    H239045   3.487   1.968  15.166 -0.5946 -1.6425 -0.8594
 5852TIP3   OH239046   3.930   2.559   5.209 -0.0243  0.4511 -0.2209
 5852TIP3    H139047   4.022   2.547   5.233 -0.0326  1.4150  0.3235
 5852TIP3    H239048   3.922   2.519   5.122  0.5313 -1.0735  0.4040
 5853TIP3   OH239049   1.091   5.879   5.451 -0.3230  1.2406  0.3788
 5853TIP3    H139050   1.047   5.945   5.398  2.3407 -0.9474 -4.9612
 5853TIP3    H239051   1.174   5.920   5.476 -0.1007  1.1178 -0.1376
 5854TIP3   OH239052   5.583   4.324  10.650  0.0448 -0.4703  0.0321
 5854TIP3    H139053   5.494   4.355  10.632 -0.3670 -1.4778  0.2708
 5854TIP3    H239054   5.640   4.397  10.626 -0.9015  0.4665  0.6233
 5855TIP3   OH239055   1.849   3.903  15.172 -0.5056 -0.0504 -0.2166
 5855TIP3    H139056   1.932   3.947  15.155 -0.7516  1.6378  2.6100
 5855TIP3    H239057   1.784   3.973  15.168 -1.8154 -1.3322 -2.2435
 5856TIP3   OH239058   1.839   4.433   0.195 -0.2060  0.2465 -0.0716
 5856TIP3    H139059   1.755   4.410   0.154  0.8001 -2.7584 -0.5909
 5856TIP3    H239060   1.858   4.359   0.253  1.5953  1.3910  0.8546
 5857TIP3   OH239061   3.250   3.912   3.577  0.4870 -0.2088 -0.3724
 5857TIP3    H139062   3.307   3.898   3.501  2.0785  0.9334  0.5987
 5857TIP3    H239063   3.265   4.002   3.603 -0.1390 -0.5491  1.2398
 5858TIP3   OH239064   6.254   4.898  15.802  0.1680  0.0871 -0.0974
 5858TIP3    H139065   6.318   4.917  15.734  0.8129 -1.5290  0.0271
 5858TIP3    H239066   6.215   4.814  15.776 -1.3142  0.6418  0.2613
 5859TIP3   OH239067   5.635   4.221   2.930 -0.6530 -0.0809  0.1606
 5859TIP3    H139068   5.606   4.288   2.868 -1.8784 -0.2305  0.5609
 5859TIP3    H239069   5.659   4.269   3.009  0.6542  0.0846 -0.3253
 5860TIP3   OH239070   3.809   1.236  13.509 -0.2803  0.2233  0.2922
 5860TIP3    H139071   3.864   1.237  13.431 -0.3606 -0.1305  0.2318
 5860TIP3    H239072   3.726   1.274  13.482  0.1217  1.2853  0.5245
 5861TIP3   OH239073   1.874   6.398  11.875  0.1918 -0.2795  0.4132
 5861TIP3    H139074   1.895   6.489  11.898  3.6223 -1.1268  0.9723
 5861TIP3    H239075   1.835   6.404  11.788  2.1581  1.6055 -0.3880
 5862TIP3   OH239076   4.918   4.268   3.449 -0.1165  0.0554  0.2414
 5862TIP3    H139077   4.870   4.185   3.444 -3.0555  1.6434  0.7806
 5862TIP3    H239078   4.913   4.294   3.541 -1.0492  1.8167 -0.2786
 5863TIP3   OH239079   3.532   2.123   2.657 -0.2677 -0.6951 -0.1917
 5863TIP3    H139080   3.619   2.144   2.689 -0.2913 -0.0139 -0.5814
 5863TIP3    H239081   3.545   2.047   2.600 -0.3399 -2.4879  2.1072
 5864TIP3   OH239082   4.563   3.198   5.074  0.1441  0.4017 -0.1561
 5864TIP3    H139083   4.483   3.214   5.124  0.2703  1.3520 -0.2606
 5864TIP3    H239084   4.611   3.280   5.077  1.9400 -0.6477  1.3299
 5865TIP3   OH239085   3.758   6.258   2.298 -0.1214  0.6930 -0.6320
 5865TIP3    H139086   3.676   6.286   2.340 -0.2352  2.2676 -1.8499
 5865TIP3    H239087   3.768   6.317   2.224  2.1183  0.4831 -0.5241
 5866TIP3   OH239088   5.814   2.123   3.587 -0.8719 -0.0083 -0.4855
 5866TIP3    H139089   5.775   2.161   3.667  0.7014  1.8584 -0.5749
 5866TIP3    H239090   5.894   2.080   3.618 -0.4993  0.3233 -0.9923
 5867TIP3   OH239091   1.445   0.984   3.046  0.0369  0.5228  0.0307
 5867TIP3    H139092   1.407   1.071   3.030  0.3313  0.8471  1.0375
 5867TIP3    H239093   1.478   0.956   2.961  0.7248  1.7812 -0.1303
 5868TIP3   OH239094   2.398   4.187  12.181 -0.7437  0.1439 -0.1080
 5868TIP3    H139095   2.372   4.121  12.117 -2.6206  1.1945 -0.4885
 5868TIP3    H239096   2.347   4.165  12.259 -0.3743  0.3416  0.1882
 5869TIP3   OH239097   1.438   4.332   5.530 -0.6492  0.6224 -0.1312
 5869TIP3    H139098   1.489   4.382   5.594 -0.1018  1.1910 -1.0200
 5869TIP3    H239099   1.503   4.290   5.475 -1.0423 -2.6336  1.7527
 5870TIP3   OH239100   5.600   3.856  16.688  0.4649 -0.3047 -0.9170
 5870TIP3    H139101   5.567   3.780  16.736 -0.5165  0.1602 -0.8371
 5870TIP3    H239102   5.524   3.914  16.681  0.6021 -0.3479 -2.9839
 5871TIP3   OH239103   0.209   1.124  13.130 -0.2989  0.0244  0.0960
 5871TIP3    H139104   0.279   1.144  13.067 -0.5631 -1.3688 -0.6629
 5871TIP3    H239105   0.224   1.184  13.202  0.8410  0.7115 -0.6951
 5872TIP3   OH239106   2.973   0.914  11.947 -0.3467 -0.1460 -0.0859
 5872TIP3    H139107   3.015   0.849  11.891  1.5339 -0.2938  1.4756
 5872TIP3    H239108   3.044   0.957  11.994 -1.7788  0.9490  1.1651
 5873TIP3   OH239109   3.537   4.659  12.492  0.3487 -0.3575 -0.0617
 5873TIP3    H139110   3.501   4.728  12.436 -0.6647 -0.4803  0.4198
 5873TIP3    H239111   3.510   4.685  12.580 -0.7690 -1.7973  0.0396
 5874TIP3   OH239112   2.329   3.438   4.600 -0.1496  0.4993  0.0728
 5874TIP3    H139113   2.295   3.382   4.530  0.0578 -0.2402  0.5607
 5874TIP3    H239114   2.421   3.413   4.609 -0.2851  0.2768  0.9036
 5875TIP3   OH239115   1.787   1.692  10.523 -0.0925  0.5527  0.2813
 5875TIP3    H139116   1.847   1.706  10.596  0.0869 -0.5660  0.3427
 5875TIP3    H239117   1.842   1.697  10.445 -0.0730  0.4312  0.2878
 5876TIP3   OH239118   2.293   3.302   0.879 -0.2903 -0.1063  0.1912
 5876TIP3    H139119   2.297   3.219   0.926 -0.3469  0.8900  2.0068
 5876TIP3    H239120   2.302   3.278   0.786  1.8176 -1.9456  0.8269
 5877TIP3   OH239121   0.412   1.783   0.182 -0.8566 -0.5966  0.4774
 5877TIP3    H139122   0.401   1.878   0.187 -0.9967 -0.4753 -1.6446
 5877TIP3    H239123   0.506   1.770   0.183 -0.8340 -0.4301  0.6574
 5878TIP3   OH239124   4.175   5.360  11.668 -0.0964  0.1617 -0.1464
 5878TIP3    H139125   4.177   5.385  11.760  3.1057 -0.4515 -0.0064
 5878TIP3    H239126   4.153   5.267  11.669 -1.9755  0.5889 -0.1337
 5879TIP3   OH239127   0.070   5.227   3.997 -0.1003  1.1508 -0.3183
 5879TIP3    H139128   0.127   5.304   3.994 -0.9453  1.8218  0.6600
 5879TIP3    H239129   0.045   5.218   4.089 -2.6233  1.6469 -0.9163
 5880TIP3   OH239130   1.414   1.668  12.931  0.3845  0.2808 -0.2168
 5880TIP3    H139131   1.393   1.737  12.868 -0.5128 -0.3947 -0.6710
 5880TIP3    H239132   1.359   1.594  12.905 -0.9637  0.4100  2.1300
 5881TIP3   OH239133   2.312   2.613   0.128  0.0870 -0.0462  0.1738
 5881TIP3    H139134   2.384   2.574   0.078 -1.3631 -1.6456 -0.7146
 5881TIP3    H239135   2.300   2.700   0.089  0.4985 -0.3871 -0.7263
 5882TIP3   OH239136   3.288   4.102   5.275  0.1067 -0.1837 -0.1090
 5882TIP3    H139137   3.296   4.014   5.313 -1.1999 -0.0184  0.5532
 5882TIP3    H239138   3.243   4.153   5.342 -2.1178  0.1638 -1.8150
 5883TIP3   OH239139   1.417   0.081   4.217  0.6304  0.3812  0.1821
 5883TIP3    H139140   1.395   0.170   4.242  2.3378  0.8058  0.2242
 5883TIP3    H239141   1.496   0.090   4.162 -0.7175 -0.8628 -2.0487
 5884TIP3   OH239142   2.632   4.587   4.555 -0.3758 -0.0750 -0.3497
 5884TIP3    H139143   2.647   4.580   4.461 -0.8602  1.6947 -0.5727
 5884TIP3    H239144   2.640   4.680   4.574  0.5007 -0.5008  1.5110
 5885TIP3   OH239145   0.297   2.629  14.734 -0.2249 -0.7767 -0.2181
 5885TIP3    H139146   0.261   2.555  14.783 -0.1366 -0.4792  0.3058
 5885TIP3    H239147   0.233   2.700  14.748 -0.7747 -1.0049 -1.4567
 5886TIP3   OH239148   3.156   5.764   6.233 -0.2468  0.1141 -0.4358
 5886TIP3    H139149   3.225   5.760   6.166 -0.4828 -0.6450 -0.6353
 5886TIP3    H239150   3.173   5.689   6.290 -1.5743 -0.7417 -1.1442
 5887TIP3   OH239151   2.929   4.930  13.688 -0.0599  0.1086  0.3782
 5887TIP3    H139152   3.005   4.873  13.680  0.9468  1.4499  0.3356
 5887TIP3    H239153   2.879   4.915  13.607 -0.6404 -1.8827  1.0751
 5888TIP3   OH239154   0.423   2.104   3.535  0.2114  0.0376 -0.4770
 5888TIP3    H139155   0.464   2.190   3.524  1.8769 -0.1739  3.4252
 5888TIP3    H239156   0.495   2.042   3.528 -0.7876 -0.9841 -1.9026
 5889TIP3   OH239157   6.045   2.545  10.938 -0.1870 -0.0280  0.3060
 5889TIP3    H139158   6.006   2.555  11.025 -1.4589  0.6200 -0.3165
 5889TIP3    H239159   6.032   2.630  10.896 -1.6952 -1.0116 -1.3343
 5890TIP3   OH239160   6.082   1.848  13.920 -0.1437  0.5389 -0.5009
 5890TIP3    H139161   6.038   1.887  13.996 -0.7383  2.7792 -1.9471
 5890TIP3    H239162   6.020   1.782  13.888 -0.8386  1.0713 -0.2830
 5891TIP3   OH239163   2.851   6.009  16.277  0.3073 -0.2386 -0.3403
 5891TIP3    H139164   2.888   5.946  16.339 -0.2705  0.9764  1.2826
 5891TIP3    H239165   2.761   5.979  16.263 -0.0071  0.2684  0.5282
 5892TIP3   OH239166   6.637   1.310   1.708 -0.1591 -0.1416  0.4974
 5892TIP3    H139167   6.603   1.388   1.663 -1.5158 -0.4468  0.9650
 5892TIP3    H239168   6.679   1.344   1.787  1.7642  0.3509 -0.6976
 5893TIP3   OH239169   1.287   3.784  13.617  0.2236 -0.3205 -0.7303
 5893TIP3    H139170   1.376   3.779  13.583 -0.1922 -0.2770 -1.8502
 5893TIP3    H239171   1.274   3.700  13.661  1.1852  0.1007  0.3963
 5894TIP3   OH239172   2.971   4.782   2.458 -0.0796  0.0640 -0.0724
 5894TIP3    H139173   2.946   4.690   2.463 -0.8284  0.2826  0.3133
 5894TIP3    H239174   2.933   4.812   2.374 -0.5528  0.2266  0.1957
 5895TIP3   OH239175   5.622   2.462   2.507  0.0518 -0.4364  0.4342
 5895TIP3    H139176   5.696   2.498   2.458  0.2167 -0.0541  0.9565
 5895TIP3    H239177   5.576   2.538   2.541  0.4765 -0.7056  1.6573
 5896TIP3   OH239178   2.295   5.619  11.451  0.3139 -0.1848  0.4171
 5896TIP3    H139179   2.210   5.576  11.457 -0.0748  0.4756 -0.2323
 5896TIP3    H239180   2.279   5.697  11.397  1.1910  0.2882  0.8188
 5897TIP3   OH239181   6.402   2.441  15.015 -0.2786  0.0478 -0.5606
 5897TIP3    H139182   6.473   2.447  15.079 -3.9099 -0.3254  3.7107
 5897TIP3    H239183   6.396   2.529  14.978  1.2265  0.5444  0.3159
 5898TIP3   OH239184   0.594   5.287  11.461 -0.3480 -0.2132  0.2215
 5898TIP3    H139185   0.515   5.241  11.435  0.0854 -0.3537 -0.8421
 5898TIP3    H239186   0.570   5.330  11.544 -1.2068 -1.1073  0.4497
 5899TIP3   OH239187   2.909   1.586  11.496 -0.0865 -0.3460 -0.0814
 5899TIP3    H139188   2.820   1.589  11.531  0.2950 -0.8884  0.9284
 5899TIP3    H239189   2.934   1.494  11.502  1.0347  0.0134  0.8615
 5900TIP3   OH239190   4.054   3.810  11.250 -0.0428 -0.5761  0.2267
 5900TIP3    H139191   4.117   3.753  11.294  0.4081  0.9918  1.6724
 5900TIP3    H239192   3.970   3.765  11.261  0.3702 -1.1832  0.9698
 5901TIP3   OH239193   3.657   3.870  11.430 -0.4798 -0.1123 -0.1532
 5901TIP3    H139194   3.679   3.784  11.395  2.6835 -0.0995  1.6706
 5901TIP3    H239195   3.741   3.913  11.443 -1.8879  2.2585  1.4901
 5902TIP3   OH239196   1.691   3.593  14.568 -0.2893  0.1730  0.3745
 5902TIP3    H139197   1.643   3.664  14.609 -0.4897  0.6066 -0.5861
 5902TIP3    H239198   1.627   3.552  14.509  0.6401  1.1020 -1.3232
 5903TIP3   OH239199   2.490   2.426   2.021  0.0395  0.7747 -0.2729
 5903TIP3    H139200   2.515   2.335   2.006  0.3537  0.8102  0.0241
 5903TIP3    H239201   2.490   2.465   1.933  0.5816  0.6593 -0.3292
 5904TIP3   OH239202   5.461   6.357  14.253  0.4278  0.7361 -0.2333
 5904TIP3    H139203   5.395   6.312  14.201 -0.1333 -0.8289  1.7858
 5904TIP3    H239204   5.420   6.440  14.277 -0.5473  0.0826  0.3924
 5905TIP3   OH239205   1.641   5.943  11.896 -0.0858  0.2446 -0.5074
 5905TIP3    H139206   1.624   6.035  11.915  1.3591  0.2416  0.9230
 5905TIP3    H239207   1.559   5.911  11.858 -0.7799  1.9787 -0.5313
 5906TIP3   OH239208   2.355   5.233  16.617 -0.0644 -0.4347 -0.5345
 5906TIP3    H139209   2.360   5.250  16.523 -2.8709 -1.5256 -0.9227
 5906TIP3    H239210   2.357   5.138  16.624 -0.6723 -0.3767  0.4420
 5907TIP3   OH239211   2.366   5.525   3.337  0.0087 -0.1601 -0.2125
 5907TIP3    H139212   2.405   5.549   3.421  0.7835 -2.6085  0.1737
 5907TIP3    H239213   2.273   5.547   3.347  0.4573  1.4497  0.5381
 5908TIP3   OH239214   4.374   4.560  15.359 -0.1908 -0.2270  0.1665
 5908TIP3    H139215   4.310   4.503  15.317  0.3168  0.1353 -1.1230
 5908TIP3    H239216   4.435   4.584  15.288 -0.4212  1.9441  0.6796
 5909TIP3   OH239217   1.348   1.479   2.394  0.7728 -0.3055  0.2144
 5909TIP3    H139218   1.429   1.442   2.359  0.4146 -0.6401 -0.2777
 5909TIP3    H239219   1.294   1.403   2.413 -0.0526 -0.0454 -1.0047
 5910TIP3   OH239220   1.809   0.497  12.022  0.1880 -0.3399 -0.1858
 5910TIP3    H139221   1.868   0.568  11.996  0.3420  0.5088  2.3823
 5910TIP3    H239222   1.745   0.539  12.079 -1.2415 -1.7983 -0.6975
 5911TIP3   OH239223   0.974   2.734   0.243 -0.0485 -0.0888 -0.5662
 5911TIP3    H139224   0.949   2.810   0.192  0.0959  0.1831 -0.2304
 5911TIP3    H239225   1.015   2.769   0.322 -0.8338 -0.4967  0.0395
 5912TIP3   OH239226   5.853   1.555   2.158  0.0934 -0.5663 -0.4506
 5912TIP3    H139227   5.926   1.508   2.118 -0.5450 -1.5272 -0.5106
 5912TIP3    H239228   5.776   1.524   2.110 -0.5139 -0.6393  0.5547
 5913TIP3   OH239229   0.882   3.255  15.374  0.4248  0.5492 -0.2795
 5913TIP3    H139230   0.961   3.277  15.423 -0.3277  1.4951  0.5527
 5913TIP3    H239231   0.851   3.340  15.341 -0.4686  0.2482 -0.2192
 5914TIP3   OH239232   2.082   0.195  13.620 -0.2900 -0.1459 -0.3907
 5914TIP3    H139233   2.065   0.129  13.553  2.9037 -0.2293 -1.2002
 5914TIP3    H239234   2.105   0.145  13.698 -1.5198 -0.0131  0.0675
 5915TIP3   OH239235   3.997   4.297   3.693  0.0500 -0.2747  0.4733
 5915TIP3    H139236   4.024   4.295   3.785  1.0724 -1.1480  0.1613
 5915TIP3    H239237   3.970   4.207   3.674 -1.1242  0.1227  0.1856
 5916TIP3   OH239238   3.392   1.271   3.379 -0.6032  0.4529 -0.3547
 5916TIP3    H139239   3.400   1.176   3.381 -1.1146  0.4129 -0.3587
 5916TIP3    H239240   3.346   1.293   3.460 -1.9815  0.5662 -1.1617
 5917TIP3   OH239241   5.726   1.765   2.074 -0.0805 -0.2183 -0.1595
 5917TIP3    H139242   5.705   1.859   2.082 -0.7810 -0.3449 -0.4734
 5917TIP3    H239243   5.816   1.758   2.105 -0.0426  0.5559 -0.0819
 5918TIP3   OH239244   1.103   0.112  11.656  0.2390  0.2966 -0.5955
 5918TIP3    H139245   1.034   0.056  11.690  0.1316  1.4322  1.1303
 5918TIP3    H239246   1.181   0.056  11.657  0.0441  0.0142  0.6927
 5919TIP3   OH239247   4.461   5.986   3.229 -0.5467  0.8199  0.4659
 5919TIP3    H139248   4.413   6.067   3.211  2.0283  1.8119 -2.1211
 5919TIP3    H239249   4.551   6.005   3.205  0.5462 -2.1102  2.0264
 5920TIP3   OH239250   0.942   6.220   5.627  0.4857 -0.8175 -0.1664
 5920TIP3    H139251   0.957   6.131   5.660  0.6020  0.1694  2.5765
 5920TIP3    H239252   1.030   6.258   5.619  0.3855 -0.6351 -0.3951
 5921TIP3   OH239253   0.584   1.395   1.404 -0.0329  0.0513 -0.0545
 5921TIP3    H139254   0.573   1.461   1.472 -0.5591  0.0718 -0.1625
 5921TIP3    H239255   0.569   1.443   1.322  1.9958  0.3658 -0.2823
 5922TIP3   OH239256   2.869   2.744   2.633  0.0165  0.0530  1.0840
 5922TIP3    H139257   2.784   2.742   2.590 -0.3461 -2.0777  1.8206
 5922TIP3    H239258   2.920   2.810   2.585 -2.1665  1.6429  0.8927
 5923TIP3   OH239259   6.373   1.233   3.185  0.8436  0.3174 -0.0111
 5923TIP3    H139260   6.460   1.204   3.157 -0.3361 -0.2109 -3.4548
 5923TIP3    H239261   6.320   1.153   3.183 -0.0671  0.9052  0.5751
 5924TIP3   OH239262   3.663   5.476   1.877  0.8243  0.4769  0.5963
 5924TIP3    H139263   3.745   5.506   1.837  0.6217 -1.0620 -1.0221
 5924TIP3    H239264   3.596   5.492   1.811  0.0841  0.0671  1.2327
 5925TIP3   OH239265   1.735   4.157  11.329 -0.1778 -0.4499  0.1125
 5925TIP3    H139266   1.646   4.126  11.312 -0.6562  0.6037  0.6465
 5925TIP3    H239267   1.732   4.188  11.420  0.9375 -1.1190  0.3777
 5926TIP3   OH239268   1.797   5.364   1.647 -0.8335  0.0179  0.1637
 5926TIP3    H139269   1.884   5.325   1.637 -1.0227 -0.2079 -0.6400
 5926TIP3    H239270   1.798   5.440   1.588 -1.7489 -0.9578 -1.1547
 5927TIP3   OH239271   5.522   4.387  13.150  0.2603 -0.3942  0.0329
 5927TIP3    H139272   5.533   4.310  13.205  0.7936 -0.9315 -0.8142
 5927TIP3    H239273   5.514   4.352  13.061  1.9243  0.6038 -0.5344
 5928TIP3   OH239274   3.854   2.550  12.123  0.3039  0.2592  0.4988
 5928TIP3    H139275   3.831   2.637  12.092 -2.6438 -0.9777 -0.9848
 5928TIP3    H239276   3.948   2.542  12.106  0.3359  2.6055 -0.6068
 5929TIP3   OH239277   6.438   1.194  16.278  0.2369 -0.3867 -0.3046
 5929TIP3    H139278   6.355   1.236  16.254  0.4773 -0.1053 -0.6466
 5929TIP3    H239279   6.417   1.141  16.355 -0.3010 -0.4553 -0.4981
 5930TIP3   OH239280   2.609   5.027  16.200  0.0634  0.2706 -0.0163
 5930TIP3    H139281   2.637   4.937  16.186 -1.0139  0.0248 -0.6360
 5930TIP3    H239282   2.690   5.074  16.220  0.7063 -0.7201 -0.2311
 5931TIP3   OH239283   1.966   1.755   3.065 -0.0570 -0.0850 -0.7084
 5931TIP3    H139284   2.031   1.796   3.122 -0.3846  1.2545 -1.2737
 5931TIP3    H239285   2.017   1.703   3.004  0.5691  1.6237 -1.6807
 5932TIP3   OH239286   5.734   3.719  16.454 -0.5814 -0.0391  0.2412
 5932TIP3    H139287   5.703   3.760  16.535  0.5849  0.0459  0.6407
 5932TIP3    H239288   5.655   3.714  16.399 -1.2337  0.5377  1.1056
 5933TIP3   OH239289   2.563   0.135  12.356  0.2330 -0.0524 -0.2595
 5933TIP3    H139290   2.540   0.173  12.441 -0.3674  0.5241 -0.6707
 5933TIP3    H239291   2.528   0.197  12.292 -0.7643 -1.3037 -0.9455
 5934TIP3   OH239292   5.097   3.127  13.844  0.3874  0.0734 -0.2565
 5934TIP3    H139293   5.047   3.174  13.911  1.6003  0.3302  0.5004
 5934TIP3    H239294   5.186   3.161  13.854  0.5380  0.2736 -2.1708
 5935TIP3   OH239295   4.306   2.934   1.417  0.0902  0.2401 -0.6324
 5935TIP3    H139296   4.226   2.986   1.427 -0.4104 -0.5733 -0.3294
 5935TIP3    H239297   4.278   2.844   1.434  1.6915  0.3192  2.7810
 5936TIP3   OH239298   2.740   4.909   3.631  0.0091 -0.2099  0.3755
 5936TIP3    H139299   2.756   4.991   3.586  1.2552 -0.5322  0.2090
 5936TIP3    H239300   2.717   4.847   3.562  2.2007 -0.7763  0.0936
 5937TIP3   OH239301   3.511   6.671   2.727  0.3999 -0.8506  0.4901
 5937TIP3    H139302   3.566   6.602   2.690 -2.2158 -2.0357 -1.3163
 5937TIP3    H239303   3.509   6.739   2.660 -2.7457 -2.1516 -0.8356
 5938TIP3   OH239304   2.175   1.200   1.525 -0.5134  0.5475  0.3980
 5938TIP3    H139305   2.088   1.168   1.551 -0.8969  2.2231  1.2375
 5938TIP3    H239306   2.186   1.168   1.435 -1.1298 -1.3916  0.9810
 5939TIP3   OH239307   3.519   1.130   0.426 -0.0911  0.3039 -0.4942
 5939TIP3    H139308   3.587   1.106   0.363  1.9398  1.7315  1.0902
 5939TIP3    H239309   3.442   1.080   0.399  1.3500 -0.7234 -2.8125
 5940TIP3   OH239310   2.395   6.281   1.353 -0.5113  0.2145 -0.2538
 5940TIP3    H139311   2.357   6.203   1.392 -0.0399 -0.3665 -0.9484
 5940TIP3    H239312   2.375   6.274   1.259  0.0097  0.6479 -0.4028
 5941TIP3   OH239313   1.329   5.700   3.168 -0.2175  0.2570  0.4488
 5941TIP3    H139314   1.283   5.633   3.219  0.0703  0.4781  0.9965
 5941TIP3    H239315   1.409   5.717   3.217 -0.9149  1.9764  1.0336
 5942TIP3   OH239316   2.191   3.387   1.141 -0.1465 -0.5446  0.2662
 5942TIP3    H139317   2.120   3.448   1.122 -1.1168 -1.1426  1.9459
 5942TIP3    H239318   2.218   3.356   1.054  0.8923  2.7985 -0.6871
 5943TIP3   OH239319   4.319   0.292   1.515 -0.1412  0.0908  0.3611
 5943TIP3    H139320   4.328   0.214   1.460  3.9371  0.3888  0.4365
 5943TIP3    H239321   4.225   0.304   1.524 -0.9476 -1.2752 -4.6921
 5944TIP3   OH239322   0.080   6.358  13.510 -0.1042  0.2804 -0.1635
 5944TIP3    H139323   0.056   6.421  13.578  1.2672 -0.7633  1.3308
 5944TIP3    H239324   0.030   6.280  13.531  1.1824 -0.4256  0.3604
 5945TIP3   OH239325   3.173   1.255   3.210  0.0314 -0.3117  0.1537
 5945TIP3    H139326   3.264   1.276   3.226 -0.5232  0.0831  3.0274
 5945TIP3    H239327   3.175   1.183   3.147  2.3253 -0.9202  0.9005
 5946TIP3   OH239328   2.702   5.168  12.137 -0.3621 -0.7690 -0.7244
 5946TIP3    H139329   2.647   5.091  12.145 -0.4884 -0.6133 -0.0584
 5946TIP3    H239330   2.781   5.137  12.092  0.1833 -1.5942  0.7744
 5947TIP3   OH239331   3.108   0.303  12.850 -0.1949  0.1460 -0.4836
 5947TIP3    H139332   3.174   0.258  12.903  0.3968  0.8699 -0.6065
 5947TIP3    H239333   3.121   0.269  12.761 -0.3619 -0.1398 -0.3976
 5948TIP3   OH239334   1.359   0.805   1.513  0.1991  0.0029 -0.0203
 5948TIP3    H139335   1.279   0.805   1.460  1.3947  0.8345 -1.8608
 5948TIP3    H239336   1.420   0.861   1.465  1.5756  0.1662  1.8668
 5949TIP3   OH239337   6.399   3.307  17.283 -0.2618  0.2525  0.1614
 5949TIP3    H139338   6.408   3.237  17.218  0.3155  1.1012 -0.6849
 5949TIP3    H239339   6.394   3.388  17.231 -0.2610  0.9024  1.1538
 5950TIP3   OH239340   1.019   4.697   3.101  0.6394  0.3145  0.1918
 5950TIP3    H139341   0.966   4.754   3.045 -0.2349 -0.8623 -0.1997
 5950TIP3    H239342   1.099   4.683   3.051  0.0724 -0.3228 -0.5656
 5951TIP3   OH239343   2.927   4.156   5.445  0.0030  0.2352  0.4808
 5951TIP3    H139344   2.966   4.069   5.454 -0.4068 -0.1817 -1.6376
 5951TIP3    H239345   3.000   4.212   5.417  0.2949  0.6352  1.9565
 5952TIP3   OH239346   2.376   4.403   4.176  0.2598 -0.5765 -0.3839
 5952TIP3    H139347   2.329   4.322   4.194  0.2953 -0.1731  1.6980
 5952TIP3    H239348   2.367   4.416   4.082 -4.1786 -0.3003 -0.0128
 5953TIP3   OH239349   0.120   4.189  15.631 -0.9745 -0.2314  0.1705
 5953TIP3    H139350   0.147   4.112  15.681 -3.0320  0.2234  2.1077
 5953TIP3    H239351   0.138   4.263  15.690  2.8173  1.0166 -2.4260
 5954TIP3   OH239352   2.799   1.022  16.541  0.1182 -0.1151 -0.2240
 5954TIP3    H139353   2.799   0.940  16.492  0.4070  0.0034 -0.4221
 5954TIP3    H239354   2.719   1.067  16.513  0.2770 -0.0529 -0.5726
 5955TIP3   OH239355   5.707   3.201   0.186 -0.2175 -0.6440 -0.4347
 5955TIP3    H139356   5.768   3.155   0.243 -0.4472  0.3349  0.6252
 5955TIP3    H239357   5.642   3.135   0.162  0.6548 -1.4167 -0.7047
 5956TIP3   OH239358   5.801   5.503  16.489 -0.3374 -0.2318  0.2173
 5956TIP3    H139359   5.762   5.493  16.576  0.8299  0.6611  0.8513
 5956TIP3    H239360   5.860   5.577  16.498 -0.3685 -0.0005 -1.4084
 5957TIP3   OH239361   5.494   0.152  12.978 -0.1351 -0.0199  0.4977
 5957TIP3    H139362   5.579   0.162  13.022 -0.4376 -1.2207  1.3799
 5957TIP3    H239363   5.447   0.233  12.998  0.8337  0.6943 -0.0759
 5958TIP3   OH239364   5.079   3.411   4.881 -0.0409 -0.1685 -0.5564
 5958TIP3    H139365   5.174   3.420   4.871  0.0103  0.4638  0.5151
 5958TIP3    H239366   5.068   3.345   4.949 -0.3469  1.2038  0.7530
 5959TIP3   OH239367   2.848   3.997  13.360  0.9267  0.3080  0.0885
 5959TIP3    H139368   2.878   4.081  13.393  1.9224 -0.2779  0.6937
 5959TIP3    H239369   2.755   4.010  13.342  0.9538  1.3705  0.6931
 5960TIP3   OH239370   3.747   4.992  12.621  0.0498  0.3156  0.0489
 5960TIP3    H139371   3.757   4.906  12.663 -1.9495 -0.2625 -0.6042
 5960TIP3    H239372   3.663   5.024  12.652  0.2090  1.4836 -0.7016
 5961TIP3   OH239373   1.039   3.679   6.527  0.1488  0.4104  0.6616
 5961TIP3    H139374   0.952   3.713   6.506 -0.3201 -1.1494  0.0450
 5961TIP3    H239375   1.023   3.611   6.592  0.9347  0.2526  0.6945
 5962TIP3   OH239376   1.232   4.354  16.432 -0.4627  0.2395  0.0474
 5962TIP3    H139377   1.314   4.367  16.384 -1.8238  0.5501 -2.2641
 5962TIP3    H239378   1.238   4.264  16.464  0.5068  0.0492 -0.6363
 5963TIP3   OH239379   3.378   6.605   4.352  0.0893  0.8216 -0.4965
 5963TIP3    H139380   3.430   6.654   4.289 -1.0946  0.6950 -1.5869
 5963TIP3    H239381   3.381   6.514   4.321  1.3210  0.3808  0.8707
 5964TIP3   OH239382   0.005   1.627  12.413 -0.2625  0.1906 -0.4201
 5964TIP3    H139383  -0.037   1.595  12.334 -1.4656 -0.5518  0.5031
 5964TIP3    H239384   0.044   1.549  12.453 -0.2813  0.4356  0.0874
 5965TIP3   OH239385   1.524   1.525   4.885  0.0990  0.0545  0.1632
 5965TIP3    H139386   1.588   1.525   4.956  1.4491  0.5749 -1.0315
 5965TIP3    H239387   1.447   1.482   4.922  1.1233 -0.5449  1.6318
 5966TIP3   OH239388   0.060   2.231   3.191  0.2277 -0.0979 -0.6440
 5966TIP3    H139389  -0.006   2.188   3.136 -2.0891  1.6673  0.6857
 5966TIP3    H239390   0.010   2.284   3.253  2.8563  0.0954  1.4381
 5967TIP3   OH239391   4.503   6.553   0.819  0.4646  0.3542 -0.3005
 5967TIP3    H139392   4.475   6.477   0.767  0.6830  0.5559 -0.7166
 5967TIP3    H239393   4.587   6.528   0.855  1.0004  0.7693 -1.2424
 5968TIP3   OH239394   3.684   1.750   0.246  0.1894  0.4397  0.1028
 5968TIP3    H139395   3.618   1.783   0.307  1.1892 -0.7240  1.8187
 5968TIP3    H239396   3.764   1.796   0.270  0.9297 -1.1018  0.6571
 5969TIP3   OH239397   1.713   0.604  14.673 -0.6894  0.4130 -0.2746
 5969TIP3    H139398   1.783   0.541  14.658 -0.7811  0.1732  0.3047
 5969TIP3    H239399   1.650   0.558  14.728 -0.6845  1.0594  0.2811
 5970TIP3   OH239400   1.055   6.553   3.550  0.3096 -0.1453  0.0388
 5970TIP3    H139401   1.047   6.481   3.612 -0.3146  1.3647  1.7885
 5970TIP3    H239402   1.106   6.518   3.478  2.3407 -1.5460  2.0878
 5971TIP3   OH239403   5.647   3.736   5.281  0.5832  0.0253  0.1328
 5971TIP3    H139404   5.684   3.648   5.272  1.4003  0.2450  1.2256
 5971TIP3    H239405   5.579   3.727   5.347 -0.8556 -0.2290 -1.3611
 5972TIP3   OH239406   1.203   4.713   4.035 -0.4499  0.0963  0.2495
 5972TIP3    H139407   1.118   4.670   4.027 -0.5175  0.0896  0.9431
 5972TIP3    H239408   1.185   4.793   4.086 -0.2627  0.7482 -0.7023
 5973TIP3   OH239409   5.443   2.194  17.086 -1.0347  0.1795  0.7773
 5973TIP3    H139410   5.371   2.249  17.055 -1.2229 -0.8952 -0.7477
 5973TIP3    H239411   5.407   2.149  17.163 -2.1285 -0.6025 -0.1622
 5974TIP3   OH239412   0.893   2.168  13.100 -0.4343 -0.2318  0.0741
 5974TIP3    H139413   0.935   2.163  13.014 -1.7208  1.5551 -0.7134
 5974TIP3    H239414   0.805   2.135  13.085 -0.7476  0.3451  0.6385
 5975TIP3   OH239415   0.918   4.694   2.163  0.5120  0.6047 -0.0154
 5975TIP3    H139416   0.859   4.766   2.140  0.0227 -0.2063 -1.3717
 5975TIP3    H239417   0.876   4.651   2.237  0.0543  0.8005 -0.1621
 5976TIP3   OH239418   0.606   1.550   1.951 -0.5112  0.3490  0.0984
 5976TIP3    H139419   0.519   1.511   1.955 -0.5074  0.2585 -0.5451
 5976TIP3    H239420   0.649   1.503   1.879 -0.1436  0.8090  0.0170
 5977TIP3   OH239421   0.087   2.267   4.590  0.3412  0.0189  0.5551
 5977TIP3    H139422   0.104   2.353   4.628  0.1097  0.4806 -0.3707
 5977TIP3    H239423   0.092   2.281   4.495  0.1061 -0.9434  0.3936
 5978TIP3   OH239424   0.347   2.836  17.279 -0.0047  0.0850  0.6179
 5978TIP3    H139425   0.315   2.802  17.362 -0.2130 -2.6353 -0.5496
 5978TIP3    H239426   0.268   2.853  17.227  0.2120 -1.6464 -0.3194
 5979TIP3   OH239427   6.308   4.420   3.762  0.1239  0.1010  0.2921
 5979TIP3    H139428   6.232   4.366   3.780 -2.1542  3.8021  2.2997
 5979TIP3    H239429   6.379   4.379   3.811 -1.4897 -1.1540  1.6020
 5980TIP3   OH239430   1.646   6.471  13.744 -0.1577 -0.1417  0.1839
 5980TIP3    H139431   1.605   6.420  13.814 -1.9471  0.3078 -0.5011
 5980TIP3    H239432   1.618   6.428  13.664  0.2260  0.5410 -0.3219
 5981TIP3   OH239433   1.253   0.441  13.373 -0.0447  0.0710 -0.3006
 5981TIP3    H139434   1.321   0.478  13.429  0.8123 -2.2929  0.2560
 5981TIP3    H239435   1.199   0.388  13.431 -0.4420 -0.6608 -1.3164
 5982TIP3   OH239436   2.100   0.271   4.312 -0.2173  0.1010 -0.4386
 5982TIP3    H139437   2.165   0.256   4.243 -1.5431 -1.7532 -1.3307
 5982TIP3    H239438   2.150   0.266   4.393  0.8478 -0.6822 -1.1264
 5983TIP3   OH239439   1.341   2.429   3.987 -0.3609 -0.1182 -0.5602
 5983TIP3    H139440   1.247   2.426   4.003 -0.2709 -0.6639 -0.1029
 5983TIP3    H239441   1.380   2.426   4.075  0.0822  0.0713 -0.7491
 5984TIP3   OH239442   2.815   1.187  13.635 -0.3588 -0.1474  0.5252
 5984TIP3    H139443   2.881   1.182  13.704  1.1358  0.6073 -0.8313
 5984TIP3    H239444   2.864   1.205  13.555 -2.1699  0.0722 -0.5721
 5985TIP3   OH239445   0.979   3.907  13.402  0.0594 -0.2592 -0.2061
 5985TIP3    H139446   0.905   3.962  13.427  0.6175  0.2094  0.4458
 5985TIP3    H239447   0.973   3.832  13.462  1.2210  0.7163  1.1648
 5986TIP3   OH239448   4.587   1.782  12.975  0.3243  0.0564  0.3845
 5986TIP3    H139449   4.622   1.779  12.886  0.7980  0.6078  0.5446
 5986TIP3    H239450   4.546   1.696  12.988  3.0105 -1.2177  0.7472
 5987TIP3   OH239451   3.676   3.969   3.143 -0.8275 -0.3935 -0.5216
 5987TIP3    H139452   3.608   4.030   3.112 -0.9705 -0.4404 -0.2946
 5987TIP3    H239453   3.708   4.008   3.224  0.9241  0.7732 -1.7123
 5988TIP3   OH239454   5.973   5.736  16.616  0.1237 -0.6321 -0.3353
 5988TIP3    H139455   5.969   5.767  16.707 -0.3540  0.4687 -0.7226
 5988TIP3    H239456   6.043   5.671  16.616  2.2854  1.6239  0.1724
 5989TIP3   OH239457   6.592   0.891  15.966  0.8105  0.5102 -0.2300
 5989TIP3    H139458   6.532   0.930  15.903  1.0472  0.9105 -0.2081
 5989TIP3    H239459   6.655   0.843  15.912  0.7268  0.4449 -0.2706
 5990TIP3   OH239460   4.738   4.004   3.044  0.1702 -0.5572 -0.4216
 5990TIP3    H139461   4.727   3.910   3.056 -1.3537 -0.2799  0.4301
 5990TIP3    H239462   4.710   4.020   2.954  0.2300 -0.8759 -0.4960
 5991TIP3   OH239463   2.352   3.038  15.381  0.2634 -0.1726 -0.3266
 5991TIP3    H139464   2.416   3.057  15.312  0.1030  1.4257 -0.0571
 5991TIP3    H239465   2.355   2.943  15.391  2.7719 -0.1033 -0.1657
 5992TIP3   OH239466   5.712   6.601   3.684  0.0334  0.4780 -0.3583
 5992TIP3    H139467   5.644   6.550   3.639  0.9358 -0.1819 -0.9956
 5992TIP3    H239468   5.717   6.564   3.772  0.1394 -0.0245 -0.5742
 5993TIP3   OH239469   5.354   4.655   1.269 -0.0353  0.4236 -0.1943
 5993TIP3    H139470   5.308   4.691   1.193  0.5187 -1.2137 -1.3436
 5993TIP3    H239471   5.289   4.655   1.339 -1.0564  0.3871 -1.1307
 5994TIP3   OH239472   1.567   2.079  11.760 -0.3169 -0.3089  0.2097
 5994TIP3    H139473   1.474   2.089  11.779 -0.1405  3.0557 -0.5413
 5994TIP3    H239474   1.611   2.095  11.843 -0.3261 -0.7881  0.3118
 5995TIP3   OH239475   4.328   1.119  11.511 -0.3058 -0.4183 -0.1473
 5995TIP3    H139476   4.255   1.108  11.573 -1.3370 -0.6972 -1.3952
 5995TIP3    H239477   4.399   1.069  11.551 -1.0463 -0.8453  0.6832
 5996TIP3   OH239478   5.580   1.254  14.149  0.6636  0.2108 -0.3517
 5996TIP3    H139479   5.610   1.166  14.167  0.3594  0.4999  1.7213
 5996TIP3    H239480   5.659   1.303  14.128  0.7689 -0.6641 -2.0635
 5997TIP3   OH239481   6.567   0.858  17.110 -0.1703  0.1449 -0.1830
 5997TIP3    H139482   6.632   0.814  17.164 -0.6673 -1.4394 -0.8639
 5997TIP3    H239483   6.589   0.833  17.021 -0.8811  0.7228 -0.5269
 5998TIP3   OH239484   0.074   0.212   0.694 -0.4851 -0.1252  0.0343
 5998TIP3    H139485   0.106   0.297   0.724 -1.4086 -0.1691  1.1634
 5998TIP3    H239486   0.109   0.150   0.758 -1.3039 -0.3798  0.2388
 5999TIP3   OH239487   5.535   1.135  14.518 -0.5081  0.3624 -0.1432
 5999TIP3    H139488   5.608   1.079  14.544 -1.7704 -1.4773 -0.5011
 5999TIP3    H239489   5.565   1.224  14.539  1.8633 -0.3370 -0.3869
 6000TIP3   OH239490   3.291   1.416   4.616  0.3738  0.5423 -0.1926
 6000TIP3    H139491   3.262   1.332   4.652  0.3832  0.1794 -1.0082
 6000TIP3    H239492   3.220   1.442   4.557  0.6489  0.7991 -0.4138
 6001TIP3   OH239493   3.327   6.271  13.808  0.5134  0.8440  0.1980
 6001TIP3    H139494   3.339   6.264  13.902  0.1337  2.1643  0.3623
 6001TIP3    H239495   3.349   6.184  13.774  0.3106  0.2593  1.5267
 6002TIP3   OH239496   3.315   5.971  14.710 -0.2940  0.2007 -0.5228
 6002TIP3    H139497   3.300   5.878  14.728 -1.8287  0.1409 -1.9538
 6002TIP3    H239498   3.313   5.977  14.614 -1.3062  1.8751 -0.4125
 6003TIP3   OH239499   4.652   2.294  13.145 -0.4218 -0.1307 -0.1615
 6003TIP3    H139500   4.663   2.268  13.054 -1.0153 -0.9739  0.0005
 6003TIP3    H239501   4.680   2.218  13.195 -0.5401  0.1616  0.3520
 6004TIP3   OH239502   4.923   6.449   1.569  0.0252  0.7135  0.0681
 6004TIP3    H139503   4.973   6.368   1.556 -1.6999 -0.4744  0.6770
 6004TIP3    H239504   4.954   6.507   1.499  0.3656 -0.9258 -1.1890
 6005TIP3   OH239505   3.120   3.270   1.842 -0.2017 -0.1462 -0.7193
 6005TIP3    H139506   3.094   3.212   1.770 -0.0567  0.9942 -1.6913
 6005TIP3    H239507   3.089   3.356   1.816  0.6279  0.4325  0.1865
 6006TIP3   OH239508   0.616   2.050  15.260  0.3418  0.1199  0.0455
 6006TIP3    H139509   0.636   2.063  15.352 -1.2059 -2.1639  0.7369
 6006TIP3    H239510   0.539   2.105  15.244  0.0340 -0.2148  0.3675
 6007TIP3   OH239511   5.377   1.528   3.512 -0.4391 -0.3286  0.8613
 6007TIP3    H139512   5.364   1.621   3.528  2.8133  0.3145  0.0078
 6007TIP3    H239513   5.349   1.515   3.421  0.2052  0.0591  0.6048
 6008TIP3   OH239514   0.620   0.219  13.031 -0.2865  0.1456  0.1503
 6008TIP3    H139515   0.586   0.144  13.079 -0.6190  1.1637  1.5227
 6008TIP3    H239516   0.683   0.181  12.969 -1.0615 -1.3375  0.2498
 6009TIP3   OH239517   2.050   2.339  13.070  0.5495  0.3425  0.6839
 6009TIP3    H139518   2.064   2.419  13.120  2.8312  0.1266  0.4203
 6009TIP3    H239519   2.032   2.368  12.981 -1.0655  0.6322  1.0863
 6010TIP3   OH239520   5.658   0.885  12.872  0.7112 -0.0327  0.0290
 6010TIP3    H139521   5.713   0.807  12.875 -0.4274 -0.8036  5.6012
 6010TIP3    H239522   5.569   0.854  12.886  0.0082  2.0963  0.5686
 6011TIP3   OH239523   0.863   3.493   2.259  0.2849  0.7725  0.8212
 6011TIP3    H139524   0.820   3.498   2.173 -0.9347 -1.1765  1.2740
 6011TIP3    H239525   0.900   3.580   2.273  0.9236  0.9735 -1.9072
 6012TIP3   OH239526   2.799   4.025  17.233  0.0535 -0.2833  0.6126
 6012TIP3    H139527   2.867   3.962  17.260 -0.1845 -0.5752  0.5345
 6012TIP3    H239528   2.756   3.982  17.159 -0.8520 -0.5212  1.2755
 6013TIP3   OH239529   0.719   2.930   4.376  0.5821  0.0857 -0.6569
 6013TIP3    H139530   0.769   3.010   4.393  1.9654 -1.2136  1.8371
 6013TIP3    H239531   0.633   2.947   4.414  0.9074  0.3931 -0.0378
 6014TIP3   OH239532   5.408   3.026  11.346 -0.3047 -0.0030 -0.3893
 6014TIP3    H139533   5.465   2.962  11.389 -0.8408 -0.2956 -0.1133
 6014TIP3    H239534   5.334   3.037  11.405  0.1847  1.5178 -0.0315
 6015TIP3   OH239535   4.692   2.734  16.374 -0.1612  0.3741  0.4148
 6015TIP3    H139536   4.606   2.753  16.411 -0.7901 -0.6540 -0.4790
 6015TIP3    H239537   4.673   2.701  16.286  1.1146 -0.2498  0.3606
 6016TIP3   OH239538   0.046   5.099  14.963 -0.5810 -0.3317  0.2334
 6016TIP3    H139539   0.066   5.006  14.974 -2.8113 -0.8584  0.2713
 6016TIP3    H239540   0.059   5.138  15.049  1.7011 -0.3188 -0.1075
 6017TIP3   OH239541   3.028   3.715  13.813  0.2748  0.2416 -0.8755
 6017TIP3    H139542   3.116   3.682  13.831  0.0580 -0.0501 -0.3399
 6017TIP3    H239543   2.972   3.671  13.877  0.1422  2.4258  0.5751
 6018TIP3   OH239544   4.261   6.342  15.888  0.1752 -0.2013 -0.2307
 6018TIP3    H139545   4.224   6.370  15.804  1.0449  0.2272 -0.4690
 6018TIP3    H239546   4.250   6.247  15.889  0.0455 -0.1915 -0.7648
 6019TIP3   OH239547   6.016   3.186  14.680  0.5866  0.1010 -0.0641
 6019TIP3    H139548   6.083   3.118  14.681  0.5422  0.0655  0.7590
 6019TIP3    H239549   6.059   3.263  14.641  1.1299  0.1159  0.5716
 6020TIP3   OH239550   4.720   5.376   5.664 -0.4157 -0.0613  0.4084
 6020TIP3    H139551   4.768   5.343   5.587  0.2232  0.7151  0.4645
 6020TIP3    H239552   4.762   5.460   5.684 -1.9095  0.7157  0.3658
 6021TIP3   OH239553   0.986   6.714  16.911  1.0729  0.5019  0.0066
 6021TIP3    H139554   0.907   6.700  16.964  2.0511 -3.3703  0.5721
 6021TIP3    H239555   1.033   6.784  16.956 -0.8961  1.2667  0.9478
 6022TIP3   OH239556   1.148   2.567   5.715  0.4945  0.1208 -0.4829
 6022TIP3    H139557   1.181   2.557   5.626  0.9202 -0.0056 -0.3115
 6022TIP3    H239558   1.068   2.618   5.705 -0.9758 -2.2921 -1.2118
 6023TIP3   OH239559   0.538   0.106  13.472 -0.6424 -0.3871  0.3605
 6023TIP3    H139560   0.548   0.127  13.565  1.1389  0.6351 -0.0197
 6023TIP3    H239561   0.603   0.038  13.455 -0.5107 -0.1147 -0.2639
 6024TIP3   OH239562   4.391   4.130  12.044  0.3015  1.0730 -0.6925
 6024TIP3    H139563   4.476   4.167  12.069 -0.3899  2.4957 -0.3691
 6024TIP3    H239564   4.401   4.036  12.057  1.2737  1.3890  0.9901
 6025TIP3   OH239565   2.948   1.005   2.731  0.1077  0.2138  0.1382
 6025TIP3    H139566   2.926   1.008   2.638 -0.9297  2.2158  0.4067
 6025TIP3    H239567   2.863   1.001   2.776  0.6021 -0.8323  1.0072
 6026TIP3   OH239568   5.964   0.308   6.477 -0.2106 -0.0999 -0.2597
 6026TIP3    H139569   5.908   0.362   6.534  1.0280  0.0447  0.8368
 6026TIP3    H239570   6.015   0.372   6.427  1.4594 -0.2217  1.2399
 6027TIP3   OH239571   0.521   0.670  13.072 -0.3006 -0.3585  0.1320
 6027TIP3    H139572   0.556   0.750  13.032 -0.6031 -0.2483  0.0908
 6027TIP3    H239573   0.510   0.610  12.998 -2.1988  0.3193 -0.1681
 6028TIP3   OH239574   5.861   3.113   4.489 -0.8288 -0.2628  0.3836
 6028TIP3    H139575   5.955   3.110   4.467 -1.3661 -0.0930 -2.0734
 6028TIP3    H239576   5.859   3.136   4.582  1.5808 -0.7625  0.5957
 6029TIP3   OH239577   5.753   6.746  15.129 -0.2758  0.2106 -0.2146
 6029TIP3    H139578   5.747   6.835  15.163  2.2533  0.3704 -0.0624
 6029TIP3    H239579   5.781   6.693  15.204 -2.0106 -0.7772 -0.2366
 6030TIP3   OH239580   3.952   5.110   2.900  0.2615 -0.6888  0.1832
 6030TIP3    H139581   3.979   5.073   2.816 -0.6262  1.3500 -1.0403
 6030TIP3    H239582   3.859   5.129   2.889  0.1211 -0.4510  1.6588
 6031TIP3   OH239583   5.869   0.564  16.592 -0.4138 -0.4649 -0.0950
 6031TIP3    H139584   5.853   0.474  16.619  1.8660 -1.7434 -2.7657
 6031TIP3    H239585   5.943   0.593  16.647 -1.8164  0.1689  1.4881
 6032TIP3   OH239586   0.609   3.361   0.415 -0.2513 -0.3016  0.2734
 6032TIP3    H139587   0.647   3.290   0.364  0.1291  1.7799 -2.4756
 6032TIP3    H239588   0.581   3.425   0.349 -2.6991  1.0701  2.5470
 6033TIP3   OH239589   5.338   1.061   2.700 -0.0986  1.0605 -0.1873
 6033TIP3    H139590   5.401   1.064   2.772  0.6072  0.1138 -0.7315
 6033TIP3    H239591   5.391   1.080   2.622  0.0546 -2.1247 -0.9410
 6034TIP3   OH239592   4.606   2.063  16.377 -0.1230 -0.3291 -0.1282
 6034TIP3    H139593   4.511   2.063  16.363 -0.3164 -1.6613  1.1065
 6034TIP3    H239594   4.641   2.110  16.301 -1.7614  0.1140 -0.6358
 6035TIP3   OH239595   0.458   1.762   3.823 -0.1221 -0.4189  0.1386
 6035TIP3    H139596   0.458   1.855   3.846 -0.0461 -0.4146  0.1218
 6035TIP3    H239597   0.478   1.760   3.730 -2.2614 -0.3299 -0.3554
 6036TIP3   OH239598   0.971   6.610   2.759 -0.0372  0.0916 -0.1981
 6036TIP3    H139599   0.962   6.545   2.690 -0.2736 -0.4210  0.3114
 6036TIP3    H239600   0.970   6.559   2.840 -0.0341  0.7127  0.1937
 6037TIP3   OH239601   2.133   2.543  11.913 -0.0309 -0.0068  0.0129
 6037TIP3    H139602   2.076   2.584  11.848 -0.0104  0.3805  0.2340
 6037TIP3    H239603   2.082   2.469  11.947 -1.3943  1.7643  1.9595
 6038TIP3   OH239604   1.784   3.419  15.199 -0.6958 -0.5343 -0.6667
 6038TIP3    H139605   1.784   3.324  15.188 -0.1653 -0.5948 -0.1457
 6038TIP3    H239606   1.876   3.443  15.202 -0.8015 -0.2876  1.5826
 6039TIP3   OH239607   3.848   5.478   2.809 -0.4020  0.0456  0.3114
 6039TIP3    H139608   3.807   5.564   2.820 -0.0904  0.7308 -3.1944
 6039TIP3    H239609   3.775   5.416   2.815 -0.5725  0.4672  3.2939
 6040TIP3   OH239610   6.202   0.938  15.443 -0.2967  0.6320 -0.1264
 6040TIP3    H139611   6.199   0.845  15.464 -0.1814  0.4482 -0.8899
 6040TIP3    H239612   6.291   0.965  15.465  0.0024  0.3073 -0.9201
 6041TIP3   OH239613   4.257   4.949  12.839  0.4243  0.4189  0.2171
 6041TIP3    H139614   4.221   4.869  12.878 -1.4380  0.4095 -1.4937
 6041TIP3    H239615   4.285   5.001  12.914 -0.2308 -0.9482  1.4351
 6042TIP3   OH239616   5.467   6.091  14.814  0.4103  0.0329 -0.3222
 6042TIP3    H139617   5.545   6.076  14.866  1.6208 -0.1235 -2.1280
 6042TIP3    H239618   5.496   6.149  14.744 -1.1962  0.3121 -0.7751
 6043TIP3   OH239619   3.848   0.935  16.969 -0.4954 -0.3525 -0.4041
 6043TIP3    H139620   3.834   1.003  17.035 -1.5915 -0.8809 -0.0737
 6043TIP3    H239621   3.760   0.914  16.938 -0.2869 -2.4834  0.3591
 6044TIP3   OH239622   2.015   4.124   5.992  0.3561  0.0947  0.5950
 6044TIP3    H139623   2.076   4.129   5.919  1.0815 -2.9874  0.9046
 6044TIP3    H239624   2.069   4.139   6.069  0.7152 -2.2196  0.8390
 6045TIP3   OH239625   1.049   4.506  16.001 -0.0852 -0.1095  0.2687
 6045TIP3    H139626   1.026   4.473  16.088  0.4105 -0.8252  0.1306
 6045TIP3    H239627   1.137   4.543  16.012  1.0744 -2.5422 -0.5077
 6046TIP3   OH239628   3.141   1.141   1.582  0.6369  0.3982  0.4108
 6046TIP3    H139629   3.196   1.211   1.548 -1.7560  1.0179 -2.4513
 6046TIP3    H239630   3.115   1.170   1.669  0.9396  2.3656 -0.1363
 6047TIP3   OH239631   0.182   5.090   1.788  0.2405  0.1967  0.1588
 6047TIP3    H139632   0.096   5.057   1.762  0.4537 -0.2549  0.0366
 6047TIP3    H239633   0.183   5.181   1.756 -0.3882  0.3663  0.6123
 6048TIP3   OH239634   0.303   5.855  11.799 -0.0112 -0.3760  0.8482
 6048TIP3    H139635   0.221   5.841  11.846  0.3983  0.5326  1.8645
 6048TIP3    H239636   0.320   5.949  11.808  0.2904 -0.2645 -0.7728
 6049TIP3   OH239637   0.143   3.071  15.572  0.3915 -0.3065 -0.5133
 6049TIP3    H139638   0.069   3.060  15.632  0.7538  0.2645  0.0463
 6049TIP3    H239639   0.118   3.145  15.516  1.2147  0.9114  0.7173
 6050TIP3   OH239640   5.655   1.538   1.927 -0.0535 -0.1588 -0.3355
 6050TIP3    H139641   5.672   1.626   1.960  0.2735 -0.7986  1.2661
 6050TIP3    H239642   5.568   1.543   1.888 -0.0835  0.8419 -0.1501
 6051TIP3   OH239643   5.426   4.282  11.458  0.8796  0.5295  0.6588
 6051TIP3    H139644   5.343   4.330  11.447  0.0920 -0.4831  2.0653
 6051TIP3    H239645   5.416   4.205  11.402  0.1707 -0.4593  2.1263
 6052TIP3   OH239646   0.548   3.324  16.464 -0.0780  0.6389  0.0009
 6052TIP3    H139647   0.475   3.307  16.405  0.5148  1.4784 -0.9953
 6052TIP3    H239648   0.512   3.381  16.532 -1.0884 -1.3507  1.1910
 6053TIP3   OH239649   4.525   0.126  14.216  0.0874  0.1851 -0.0235
 6053TIP3    H139650   4.591   0.160  14.156 -0.0011  0.7112  0.1774
 6053TIP3    H239651   4.494   0.202  14.264 -0.5695 -0.0776 -0.0205
 6054TIP3   OH239652   1.293   4.374   3.617 -0.8120  0.0948 -0.1657
 6054TIP3    H139653   1.350   4.321   3.673 -0.1670  0.3121 -0.6119
 6054TIP3    H239654   1.286   4.324   3.536 -2.0126 -0.3766  0.2098
 6055TIP3   OH239655   6.649   3.266   0.363 -0.1398 -0.0506  0.2441
 6055TIP3    H139656   6.742   3.267   0.340  0.0202 -1.4301  0.7906
 6055TIP3    H239657   6.623   3.174   0.355 -1.9502  0.5863 -1.8069
 6056TIP3   OH239658   3.698   0.148  14.846  0.0855  0.0751 -0.0477
 6056TIP3    H139659   3.658   0.141  14.933  1.7311 -1.7571  0.5914
 6056TIP3    H239660   3.647   0.087  14.792  0.1827 -0.1122  0.0709
 6057TIP3   OH239661   6.255   1.324   1.526  0.3002 -0.1833  0.4691
 6057TIP3    H139662   6.181   1.384   1.517  1.2732  1.0613  0.5030
 6057TIP3    H239663   6.313   1.367   1.588  1.1253 -1.0584  0.3188
 6058TIP3   OH239664   0.006   4.899  11.188 -0.2221  0.6574 -0.0093
 6058TIP3    H139665  -0.007   4.983  11.145 -0.9945  0.9121  0.7082
 6058TIP3    H239666   0.079   4.859  11.141 -1.3508  0.7112 -1.8886
 6059TIP3   OH239667   6.674   0.989  11.007  0.4492 -0.8709  0.3693
 6059TIP3    H139668   6.766   0.982  10.982  0.2542  0.9276 -1.0203
 6059TIP3    H239669   6.640   0.900  11.000  2.1067 -1.5756  1.0264
 6060TIP3   OH239670   2.707   5.771  13.620  0.4847 -0.4594  0.0863
 6060TIP3    H139671   2.615   5.790  13.641  0.8291  1.7412 -0.1939
 6060TIP3    H239672   2.744   5.738  13.702  0.2681  2.0132  1.2285
 6061TIP3   OH239673   5.826   2.443   0.790 -0.6181 -0.3241 -0.2608
 6061TIP3    H139674   5.790   2.372   0.844 -1.4791 -1.5228 -2.3394
 6061TIP3    H239675   5.792   2.523   0.830  0.7565 -1.0241  2.4088
 6062TIP3   OH239676   0.326   5.266   0.769  0.0714 -0.5493  0.7195
 6062TIP3    H139677   0.340   5.213   0.847  2.0891  0.3744  1.0279
 6062TIP3    H239678   0.298   5.204   0.702 -0.1621 -1.5767  1.7650
 6063TIP3   OH239679   5.857   1.161  14.886  0.0890 -0.8200 -0.2828
 6063TIP3    H139680   5.861   1.178  14.792 -0.9571  0.0672 -0.1706
 6063TIP3    H239681   5.891   1.240  14.927 -1.1682 -0.4853  0.1308
 6064TIP3   OH239682   5.825   3.932   0.295  0.5945  0.0937 -0.3960
 6064TIP3    H139683   5.792   3.913   0.207  2.0280  0.1968 -0.9669
 6064TIP3    H239684   5.873   4.015   0.285 -0.4811  0.8741  0.7952
 6065TIP3   OH239685   4.023   0.104   5.965 -0.1987  0.3202  0.7428
 6065TIP3    H139686   4.089   0.124   6.031  1.3351  0.0017 -0.6650
 6065TIP3    H239687   3.994   0.189   5.934  0.6359  0.4532  0.3142
 6066TIP3   OH239688   4.950   1.282  15.648 -0.2049 -0.0402 -0.3105
 6066TIP3    H139689   4.944   1.197  15.604  0.3719  0.0542 -0.5755
 6066TIP3    H239690   4.931   1.263  15.740  2.1440 -0.8361  0.0452
 6067TIP3   OH239691   0.646   1.930   3.468 -0.2973  0.5258  1.1907
 6067TIP3    H139692   0.729   1.891   3.441  0.0279  0.6577  1.9820
 6067TIP3    H239693   0.631   2.000   3.405 -0.7441 -0.6976 -0.0659
 6068TIP3   OH239694   4.650   5.196   2.512 -0.1878  0.1867 -0.1659
 6068TIP3    H139695   4.707   5.225   2.441 -0.9572  0.6026 -0.6190
 6068TIP3    H239696   4.569   5.169   2.468  0.0237 -1.4039  0.3621
 6069TIP3   OH239697   6.193   3.501  12.840 -0.2374 -0.1521 -0.0638
 6069TIP3    H139698   6.163   3.592  12.844 -0.7086 -0.2094 -1.7286
 6069TIP3    H239699   6.288   3.507  12.832 -0.4676  0.3517 -3.3162
 6070TIP3   OH239700   3.357   0.665   1.597 -0.2688 -0.0213  0.3930
 6070TIP3    H139701   3.389   0.654   1.687 -0.7999 -0.3484  0.5490
 6070TIP3    H239702   3.269   0.626   1.599  0.4271 -1.7221 -0.7258
 6071TIP3   OH239703   4.295   6.316   2.599  0.1135 -0.1222  0.0724
 6071TIP3    H139704   4.328   6.256   2.533 -0.0909  2.1067 -2.1525
 6071TIP3    H239705   4.210   6.280   2.624  0.1333 -0.9233 -0.9788
 6072TIP3   OH239706   1.838   0.203  14.096  0.0868  0.3349 -0.4244
 6072TIP3    H139707   1.750   0.171  14.076  0.3208  0.2897 -1.4089
 6072TIP3    H239708   1.860   0.161  14.179 -1.5321  1.7708  0.7764
 6073TIP3   OH239709   5.907   0.516  13.041 -0.1559  0.6758  0.3890
 6073TIP3    H139710   5.934   0.431  13.075 -1.1335  0.7030  1.2595
 6073TIP3    H239711   5.983   0.573  13.057  0.7774 -0.1941 -0.8863
 6074TIP3   OH239712   0.626   3.808   3.426 -0.0902 -0.0423  0.0327
 6074TIP3    H139713   0.673   3.884   3.392  1.8936 -1.1182  0.2693
 6074TIP3    H239714   0.653   3.802   3.518 -3.2763  1.2219  1.1177
 6075TIP3   OH239715   4.148   1.311   2.229  0.3407  0.5746  0.4070
 6075TIP3    H139716   4.147   1.402   2.198  1.7918  0.2748 -0.5666
 6075TIP3    H239717   4.140   1.318   2.325 -1.5881  1.6228  0.1918
 6076TIP3   OH239718   4.168   5.683  15.789 -0.6408  0.5421 -0.3643
 6076TIP3    H139719   4.090   5.737  15.783 -1.4153 -0.7379 -2.1557
 6076TIP3    H239720   4.229   5.720  15.725  0.6354  2.1275  1.6900
 6077TIP3   OH239721   5.471   4.761   3.710 -0.1146 -0.2898  0.0855
 6077TIP3    H139722   5.469   4.802   3.796  0.4664  0.0763 -0.0729
 6077TIP3    H239723   5.403   4.693   3.714  0.7991 -1.1470  1.2612
 6078TIP3   OH239724   4.702   5.860   1.347 -0.3938 -0.3697 -0.0691
 6078TIP3    H139725   4.765   5.827   1.410  2.7072  2.6422 -1.4236
 6078TIP3    H239726   4.716   5.807   1.269  0.8652  0.6344 -0.5357
 6079TIP3   OH239727   1.209   6.730  15.898 -0.1968 -0.1391  0.0724
 6079TIP3    H139728   1.190   6.803  15.840  1.7310  1.2333  1.1390
 6079TIP3    H239729   1.275   6.678  15.852  0.5327  0.3567  0.5525
 6080TIP3   OH239730   6.471   6.128  16.682  0.2995  0.0240  0.6797
 6080TIP3    H139731   6.413   6.150  16.609 -0.9535 -1.2069  1.2793
 6080TIP3    H239732   6.508   6.212  16.709  0.8806  0.4662 -1.4551
 6081TIP3   OH239733   1.379   6.756  12.215 -0.3864  0.3359  0.2676
 6081TIP3    H139734   1.447   6.689  12.209 -0.5722  0.1644  0.0403
 6081TIP3    H239735   1.298   6.706  12.226 -0.4858  0.5361  0.4408
 6082TIP3   OH239736   3.965   1.621   2.318  0.0086  0.4538  0.3411
 6082TIP3    H139737   3.920   1.604   2.235 -0.4229  1.4549  0.3620
 6082TIP3    H239738   3.977   1.716   2.319 -0.8820  0.5599  1.8867
 6083TIP3   OH239739   2.303   3.620  16.209 -0.2394  0.1945  0.3648
 6083TIP3    H139740   2.327   3.636  16.118 -0.5019  0.0324  0.2669
 6083TIP3    H239741   2.242   3.691  16.231 -0.5490 -0.0410  0.2676
 6084TIP3   OH239742   2.680   5.835   4.988  0.7852 -0.2040  0.7709
 6084TIP3    H139743   2.635   5.823   5.072 -0.9092 -0.0042 -0.0840
 6084TIP3    H239744   2.671   5.752   4.943  0.6869  0.0496  0.3182
 6085TIP3   OH239745   4.832   1.683   0.026 -0.0035  0.2395  0.3881
 6085TIP3    H139746   4.903   1.632   0.067  1.4380  0.4061 -1.7972
 6085TIP3    H239747   4.843   1.771   0.060  0.1787  0.0266  0.8875
 6086TIP3   OH239748   3.468   1.607  16.701  0.1760  0.3859 -0.2855
 6086TIP3    H139749   3.380   1.640  16.682 -0.0617 -0.0168  0.0955
 6086TIP3    H239750   3.526   1.677  16.674 -0.2175  0.3118 -1.3294
 6087TIP3   OH239751   2.079   3.296  16.555  0.0280  0.2003 -0.3814
 6087TIP3    H139752   2.016   3.277  16.485 -0.6232 -1.1517  0.5376
 6087TIP3    H239753   2.164   3.273  16.518 -0.1970  0.4532 -1.0640
 6088TIP3   OH239754   4.160   1.670   1.464 -0.4717 -0.3770 -0.3300
 6088TIP3    H139755   4.184   1.693   1.375  0.2329 -2.1933 -0.6438
 6088TIP3    H239756   4.145   1.754   1.508 -0.9165  0.5181 -2.1666
 6089TIP3   OH239757   1.972   3.366   1.646  0.3633  0.0562  0.0146
 6089TIP3    H139758   1.945   3.457   1.632  0.4537  0.0428 -0.2523
 6089TIP3    H239759   2.067   3.368   1.645  0.3871  0.2577  1.9919
 6090TIP3   OH239760   6.597   3.282  13.678  0.0637 -0.5389  0.0795
 6090TIP3    H139761   6.609   3.376  13.692 -1.5243 -0.1988 -0.6660
 6090TIP3    H239762   6.616   3.268  13.585  0.1639 -0.9154  0.1555
 6091TIP3   OH239763   1.405   3.353   4.535 -0.1501 -0.5020 -0.8969
 6091TIP3    H139764   1.338   3.298   4.495 -1.3769  1.0470 -1.0420
 6091TIP3    H239765   1.445   3.400   4.462 -0.7494  0.5474 -0.5738
 6092TIP3   OH239766   2.968   2.845  13.619  0.1416 -0.2321 -0.1930
 6092TIP3    H139767   3.003   2.765  13.581  2.1151  0.8809 -0.7924
 6092TIP3    H239768   2.963   2.906  13.546  1.4214  1.0830  0.7956
 6093TIP3   OH239769   5.757   2.956   6.483  0.1580  0.1026 -0.1114
 6093TIP3    H139770   5.686   3.015   6.511  1.7664  1.7003  0.7100
 6093TIP3    H239771   5.822   3.014   6.444  1.4252 -1.2306 -0.0203
 6094TIP3   OH239772   6.421   2.545  15.795  0.5445 -0.2697 -0.1184
 6094TIP3    H139773   6.514   2.550  15.772  0.6830 -0.9059  0.3031
 6094TIP3    H239774   6.400   2.633  15.827  0.9031 -0.0165 -0.5716
 6095TIP3   OH239775   4.713   0.048   2.151 -0.2098 -0.4807  0.3221
 6095TIP3    H139776   4.685   0.135   2.123  0.3960 -0.4943 -0.3737
 6095TIP3    H239777   4.633  -0.004   2.154 -0.4090 -0.2306 -0.5188
 6096TIP3   OH239778   0.351   2.158   0.396  0.1600  0.0871 -0.4386
 6096TIP3    H139779   0.295   2.220   0.443  1.3194  1.4906 -0.8821
 6096TIP3    H239780   0.298   2.132   0.320 -1.3282 -1.4486  1.0690
 6097TIP3   OH239781   6.127   0.369  11.403 -0.2667 -0.1786  0.4717
 6097TIP3    H139782   6.073   0.442  11.373 -0.3237  0.3609  1.8495
 6097TIP3    H239783   6.157   0.395  11.490 -0.0740 -1.6771  0.8744
 6098TIP3   OH239784   5.511   0.912  16.488  1.0178  0.6676  0.7016
 6098TIP3    H139785   5.505   1.006  16.505 -0.7920  0.5206  0.9770
 6098TIP3    H239786   5.525   0.873  16.574 -1.3124  0.4712  1.0360
 6099TIP3   OH239787   2.050   5.226  12.465  0.0113  0.6641  0.9591
 6099TIP3    H139788   2.123   5.239  12.526  2.7900 -0.9389 -1.8886
 6099TIP3    H239789   2.043   5.309  12.418  0.1329  0.7479  1.0883
 6100TIP3   OH239790   3.902   1.826   2.788 -0.3665 -0.1616  0.1361
 6100TIP3    H139791   3.833   1.849   2.850  0.3618  0.7338  0.6359
 6100TIP3    H239792   3.871   1.747   2.745 -1.6544  0.1650  0.4376
 6101TIP3   OH239793   1.784   6.782   6.497  0.0733  0.0720 -0.0757
 6101TIP3    H139794   1.866   6.778   6.447  0.7127  2.4265  0.7321
 6101TIP3    H239795   1.812   6.788   6.588 -1.0137  0.9002  0.2113
 6102TIP3   OH239796   4.691   1.286  16.714 -0.4190  0.2427 -0.1240
 6102TIP3    H139797   4.783   1.307  16.698 -0.2854 -0.5284 -0.3821
 6102TIP3    H239798   4.643   1.354  16.667  0.0224  0.8422  0.2845
 6103TIP3   OH239799   3.993   5.873  12.982 -0.5553 -0.4159  0.0030
 6103TIP3    H139800   3.974   5.960  13.018 -1.2290 -0.3349 -0.5551
 6103TIP3    H239801   4.052   5.890  12.908 -2.0777 -0.2863 -1.1967
 6104TIP3   OH239802   0.354   5.157   2.369 -0.1621  0.1730 -0.2619
 6104TIP3    H139803   0.310   5.073   2.380 -1.5575  1.2626  3.0131
 6104TIP3    H239804   0.447   5.138   2.381 -0.1917 -1.3008 -2.1730
 6105TIP3   OH239805   6.006   2.891  14.054 -0.0053  0.0294 -0.0708
 6105TIP3    H139806   5.981   2.806  14.092  1.3093 -0.1523  0.4051
 6105TIP3    H239807   6.079   2.921  14.107 -1.5793  2.3359  0.8854
 6106TIP3   OH239808   1.689   3.757  14.091  0.0589  0.4161 -1.0926
 6106TIP3    H139809   1.717   3.834  14.139 -3.9189  0.5377  1.2237
 6106TIP3    H239810   1.770   3.708  14.075  1.9888  2.3192  2.2516
 6107TIP3   OH239811   4.223   4.873   4.247  0.8268  0.4261 -0.1567
 6107TIP3    H139812   4.278   4.952   4.246 -0.2052  1.1904  1.3854
 6107TIP3    H239813   4.170   4.880   4.168  0.2108  1.6933  0.3494
 6108TIP3   OH239814   0.172   0.170  16.040 -0.1943 -0.7600 -0.9295
 6108TIP3    H139815   0.146   0.082  16.066 -1.8415  0.1925  0.7530
 6108TIP3    H239816   0.101   0.200  15.983 -1.4302  0.7635  1.3428
 6109TIP3   OH239817   3.107   1.740  13.008 -0.3950  0.7235  0.0597
 6109TIP3    H139818   3.188   1.741  12.957 -0.4867  1.9832 -0.0695
 6109TIP3    H239819   3.059   1.817  12.978 -0.6464  1.2243  1.7256
 6110TIP3   OH239820   1.171   3.261  15.101  0.1025 -0.0209 -0.2713
 6110TIP3    H139821   1.108   3.189  15.103 -0.4021  0.4151 -0.3139
 6110TIP3    H239822   1.256   3.219  15.109 -0.0037 -0.8601 -3.0998
 6111TIP3   OH239823   4.646   0.686   2.642 -0.4682  0.0875 -0.1929
 6111TIP3    H139824   4.691   0.614   2.598 -0.7474 -0.1650 -0.0701
 6111TIP3    H239825   4.624   0.747   2.572 -2.5356 -1.1770 -0.6747
 6112TIP3   OH239826   2.700   1.812   3.677  0.4093  0.1888 -0.2485
 6112TIP3    H139827   2.718   1.798   3.770 -0.5551  1.6617  0.1810
 6112TIP3    H239828   2.633   1.881   3.676 -0.7367 -0.9130 -1.9757
 6113TIP3   OH239829   5.173   2.062  17.026 -0.2460  0.1048  0.3736
 6113TIP3    H139830   5.117   2.053  16.948  1.2204 -2.2556 -0.4553
 6113TIP3    H239831   5.254   2.017  17.003  0.1156 -0.8978  3.3851
 6114TIP3   OH239832   0.354   2.945   0.608  0.0890 -0.5294 -0.4541
 6114TIP3    H139833   0.318   2.905   0.529  0.3080 -0.2362 -0.7084
 6114TIP3    H239834   0.278   2.978   0.656  0.0075  0.0373 -0.9593
 6115TIP3   OH239835   4.232   3.483   3.077 -0.1755  0.6822 -0.5663
 6115TIP3    H139836   4.201   3.542   3.008 -1.2564  0.0918 -0.5985
 6115TIP3    H239837   4.266   3.406   3.030 -1.6925 -0.0914 -0.4355
 6116TIP3   OH239838   2.610   3.540  10.277  0.2284  0.5824 -0.0056
 6116TIP3    H139839   2.578   3.567  10.363 -0.4646  3.5298 -1.1283
 6116TIP3    H239840   2.663   3.614  10.247  1.3707 -0.8585 -1.6658
 6117TIP3   OH239841   5.943   0.848  14.318  0.1809  0.5438 -0.0286
 6117TIP3    H139842   5.877   0.792  14.275 -2.2285  1.8082  1.8740
 6117TIP3    H239843   6.007   0.865  14.250 -2.1394  0.2968 -2.3788
 6118TIP3   OH239844   3.209   3.734   4.543  0.2326 -0.0958 -0.6319
 6118TIP3    H139845   3.252   3.649   4.543  2.7334  1.0856  1.1475
 6118TIP3    H239846   3.194   3.754   4.450  0.2997 -2.1250 -1.0946
 6119TIP3   OH239847   5.877   6.094  11.353 -0.6418 -0.0711  0.5781
 6119TIP3    H139848   5.892   6.180  11.312  0.2601  0.1464  1.3486
 6119TIP3    H239849   5.815   6.050  11.294 -1.8723  1.4834  0.6803
 6120TIP3   OH239850   0.689   5.797   5.727  0.3750 -0.0693  0.4085
 6120TIP3    H139851   0.660   5.783   5.817  0.7798 -0.9929  0.4083
 6120TIP3    H239852   0.780   5.828   5.736  1.3104 -2.6095  0.2800
 6121TIP3   OH239853   5.989   0.770  16.278  0.0192 -0.0541 -0.2543
 6121TIP3    H139854   6.003   0.734  16.191 -0.5492  2.9113 -1.6088
 6121TIP3    H239855   5.901   0.807  16.275 -0.5581 -1.1140  2.0367
 6122TIP3   OH239856   3.727   2.130  16.941 -0.1072 -0.2770 -0.1800
 6122TIP3    H139857   3.707   2.216  16.978  1.5135  0.4269 -0.8718
 6122TIP3    H239858   3.751   2.076  17.017  0.4440  0.3406  0.0876
 6123TIP3   OH239859   4.133   6.567  15.304  0.3753 -0.1307 -1.0431
 6123TIP3    H139860   4.111   6.484  15.347 -2.5878  1.5695  0.8907
 6123TIP3    H239861   4.228   6.574  15.313  1.1347 -4.7125 -3.9725
 6124TIP3   OH239862   0.902   4.039   2.501  0.0443 -0.0345 -0.0469
 6124TIP3    H139863   0.910   4.112   2.439 -0.7928  0.2116  0.1307
 6124TIP3    H239864   0.984   4.041   2.551  0.5697 -0.0027 -0.8871
 6125TIP3   OH239865   1.081   1.746   0.102 -0.6234  0.1486  0.4664
 6125TIP3    H139866   1.093   1.833   0.062 -2.7419  0.3405  0.1696
 6125TIP3    H239867   1.078   1.686   0.027 -2.5195  0.2548  0.4320
 6126TIP3   OH239868   2.340   6.013  15.568 -0.2666 -0.3770 -0.6492
 6126TIP3    H139869   2.425   5.995  15.526 -0.5712  1.7260 -2.2363
 6126TIP3    H239870   2.361   6.017  15.661  1.2774 -0.4593 -0.9663
 6127TIP3   OH239871   2.084   1.121  14.311  0.3242  0.3384 -0.4127
 6127TIP3    H139872   2.155   1.057  14.304  0.4582  0.6435 -2.0943
 6127TIP3    H239873   2.045   1.105  14.397  2.2675 -0.0025  0.4275
 6128TIP3   OH239874   5.706   2.649  16.199  0.0721  0.1068 -0.0984
 6128TIP3    H139875   5.622   2.659  16.155  0.1732  0.2804 -0.2532
 6128TIP3    H239876   5.721   2.732  16.243  0.6900  0.4794 -0.9952
 6129TIP3   OH239877   5.587   3.824  13.285 -0.3011  0.4763  0.0254
 6129TIP3    H139878   5.648   3.830  13.359 -1.3811 -0.6693  1.0440
 6129TIP3    H239879   5.635   3.861  13.211  1.4649 -0.0105  0.8918
 6130TIP3   OH239880   2.357   3.503   3.308 -0.3146  0.3324 -0.1898
 6130TIP3    H139881   2.307   3.545   3.238  0.8793  0.8110 -0.7536
 6130TIP3    H239882   2.318   3.416   3.315 -2.8081  1.4936  0.9903
 6131TIP3   OH239883   4.235   3.195   3.921  0.8118  0.0214  0.2778
 6131TIP3    H139884   4.232   3.195   4.016  2.4782 -0.5483  0.3414
 6131TIP3    H239885   4.326   3.217   3.899  0.1632  1.3720 -1.1901
 6132TIP3   OH239886   0.741   2.678   6.713  0.4092 -0.0794 -0.0123
 6132TIP3    H139887   0.770   2.669   6.623  0.0722 -1.1514 -0.0155
 6132TIP3    H239888   0.765   2.595   6.755 -3.0526 -1.2265 -0.1446
 6133TIP3   OH239889   1.778   4.151   2.968  0.3564  0.1712 -0.0406
 6133TIP3    H139890   1.843   4.161   2.898 -0.1267  1.0204 -0.3643
 6133TIP3    H239891   1.810   4.208   3.038 -0.6755  1.5206 -0.6573
 6134TIP3   OH239892   6.255   5.429   3.682 -0.0837 -0.0693 -0.9026
 6134TIP3    H139893   6.222   5.486   3.613  1.4819  0.7136 -1.0327
 6134TIP3    H239894   6.187   5.432   3.750 -0.1412  1.7612 -1.0176
 6135TIP3   OH239895   2.100   1.440  11.308  0.4422 -0.0922 -0.1516
 6135TIP3    H139896   2.131   1.442  11.217  0.3536  0.4675 -0.1758
 6135TIP3    H239897   2.088   1.532  11.331  0.3376 -0.2370  0.3863
 6136TIP3   OH239898   2.528   4.047  12.560  0.3018 -0.7714  0.3385
 6136TIP3    H139899   2.449   4.000  12.589 -0.1583  0.0880  0.4866
 6136TIP3    H239900   2.599   4.005  12.608  0.0147 -1.9134 -0.1896
 6137TIP3   OH239901   1.189   3.063  11.382 -0.7948 -0.1253 -0.4575
 6137TIP3    H139902   1.134   3.125  11.431 -0.5248  0.1607 -0.5137
 6137TIP3    H239903   1.153   3.065  11.293 -0.8281 -0.0979 -0.4438
 6138TIP3   OH239904   5.694   1.287   2.048 -0.3001 -0.2469  0.3356
 6138TIP3    H139905   5.661   1.373   2.021 -1.8640 -0.8195  0.3844
 6138TIP3    H239906   5.615   1.236   2.069  0.6289 -1.5575  0.7207
 6139TIP3   OH239907   0.431   4.083   4.484  0.2072 -0.1609 -0.0997
 6139TIP3    H139908   0.491   4.059   4.554  0.3358  0.8361  0.1352
 6139TIP3    H239909   0.422   4.178   4.491 -0.0251 -0.0896 -1.2329
 6140TIP3   OH239910   6.372   0.873   1.893  0.4818 -0.0599 -0.2496
 6140TIP3    H139911   6.437   0.932   1.854  1.3644 -1.5330 -1.0457
 6140TIP3    H239912   6.415   0.840   1.972  0.6508 -0.9264 -0.7019
 6141TIP3   OH239913   5.428   4.596  14.254  0.2391  0.3844  0.1498
 6141TIP3    H139914   5.444   4.624  14.164  0.4550 -0.2734 -0.0185
 6141TIP3    H239915   5.512   4.610  14.298  0.4575 -0.3657 -0.0292
 6142TIP3   OH239916   5.310   5.428   1.061 -0.6500 -0.2370  0.4987
 6142TIP3    H139917   5.326   5.519   1.085 -0.4888 -0.2131  0.3089
 6142TIP3    H239918   5.391   5.383   1.086 -1.0951 -0.5016  1.4745
 6143TIP3   OH239919   1.157   6.129   0.208  0.2730 -0.0256 -0.3266
 6143TIP3    H139920   1.211   6.115   0.286 -1.2386  0.1188  0.7684
 6143TIP3    H239921   1.067   6.117   0.239 -0.5435  2.8959 -1.3820
 6144TIP3   OH239922   3.527   5.667   2.881  0.6663 -0.1509 -0.4702
 6144TIP3    H139923   3.522   5.714   2.797  1.5594  0.3986 -0.2257
 6144TIP3    H239924   3.517   5.736   2.947 -0.5381 -0.6471 -0.1175
 6145TIP3   OH239925   0.243   4.196   4.737  0.5793  0.1546  0.4283
 6145TIP3    H139926   0.293   4.235   4.665  0.9775 -1.9124 -0.4504
 6145TIP3    H239927   0.159   4.171   4.698 -0.6293  2.2924  1.5591
 6146TIP3   OH239928   2.882   5.892   1.943  0.4396  0.2660 -0.1656
 6146TIP3    H139929   2.950   5.827   1.932 -0.6885 -0.6376 -2.0804
 6146TIP3    H239930   2.840   5.898   1.857 -1.2469  1.5176  0.7086
 6147TIP3   OH239931   4.631   6.214   0.532  0.0072 -0.8960 -0.0185
 6147TIP3    H139932   4.645   6.289   0.474  1.4586 -1.7532 -0.7948
 6147TIP3    H239933   4.539   6.221   0.557 -0.3585  0.1046 -1.5484
 6148TIP3   OH239934   1.312   3.188   3.942  0.2156 -0.0946 -0.4648
 6148TIP3    H139935   1.319   3.097   3.911  0.0304  0.5767 -2.5451
 6148TIP3    H239936   1.362   3.189   4.023 -0.1038 -2.1608 -0.2182
 6149TIP3   OH239937   5.241   1.587  13.357 -0.2569  0.0431 -0.1239
 6149TIP3    H139938   5.203   1.499  13.364 -1.1047  0.3938 -0.2139
 6149TIP3    H239939   5.200   1.623  13.278 -0.9891  1.0317  0.6984
 6150TIP3   OH239940   0.089   5.435   1.151 -0.1537  0.0094  0.0413
 6150TIP3    H139941   0.088   5.380   1.073  0.6264 -0.6210  0.4615
 6150TIP3    H239942   0.038   5.386   1.215 -0.3015  0.2478  0.1045
 6151TIP3   OH239943   1.937   0.700   0.489  0.0349 -0.1436 -0.1161
 6151TIP3    H139944   1.946   0.793   0.507 -2.0050  0.4073 -1.8142
 6151TIP3    H239945   1.876   0.695   0.415  2.6689 -2.6379 -2.2443
 6152TIP3   OH239946   3.617   3.090   1.487  0.0872 -0.2361  0.0300
 6152TIP3    H139947   3.637   3.041   1.566  0.2304  1.5065  1.1030
 6152TIP3    H239948   3.529   3.124   1.501 -0.2868 -0.7509 -1.0007
 6153TIP3   OH239949   0.260   4.884  11.637  0.0902  0.4311  0.7621
 6153TIP3    H139950   0.264   4.948  11.566  1.6471  2.0495  2.2607
 6153TIP3    H239951   0.350   4.874  11.665 -0.3962 -0.9320  1.8877
 6154TIP3   OH239952   2.085   3.047   4.678  0.1317 -0.2320 -0.5878
 6154TIP3    H139953   2.151   3.028   4.745 -0.6698  0.5021  0.4162
 6154TIP3    H239954   2.007   3.002   4.708 -0.0056 -0.5729 -1.4573
 6155TIP3   OH239955   3.655   1.991   1.790 -0.2610  0.3165  0.5478
 6155TIP3    H139956   3.686   1.967   1.877  0.6981 -0.2751  0.0528
 6155TIP3    H239957   3.570   1.948   1.781  0.6942 -1.5559  0.3010
 6156TIP3   OH239958   5.955   1.532   0.862 -0.2595 -0.1822  0.0921
 6156TIP3    H139959   6.026   1.490   0.814  0.5351  1.1751  0.0524
 6156TIP3    H239960   5.877   1.511   0.812  0.2692 -0.6444 -0.5575
 6157TIP3   OH239961   2.201   1.612   2.958  0.0833 -0.3625 -0.1983
 6157TIP3    H139962   2.165   1.524   2.950 -2.1481  0.3757  1.2567
 6157TIP3    H239963   2.247   1.627   2.875 -0.5088 -2.4488 -0.9243
 6158TIP3   OH239964   6.560   0.741  14.171  0.1808  0.1732 -0.0232
 6158TIP3    H139965   6.593   0.654  14.150 -0.0050  0.1529 -0.2347
 6158TIP3    H239966   6.613   0.800  14.118  0.7537  0.2419  0.6190
 6159TIP3   OH239967   0.011   1.576  10.634  0.1516 -0.4072  0.0007
 6159TIP3    H139968  -0.037   1.646  10.677  0.1562 -0.4910  0.1415
 6159TIP3    H239969   0.102   1.606  10.633  0.1120 -0.2940 -0.1750
 6160TIP3   OH239970   6.739   3.938  14.809 -0.4204  0.1021  0.0701
 6160TIP3    H139971   6.734   4.031  14.832 -1.2713 -0.0464  0.4821
 6160TIP3    H239972   6.720   3.935  14.715  0.5853  0.4454 -0.1521
 6161TIP3   OH239973   2.303   0.208   4.481 -0.0121 -0.0711 -0.1179
 6161TIP3    H139974   2.258   0.130   4.514  0.5313 -0.4353 -0.2351
 6161TIP3    H239975   2.337   0.251   4.559  1.0226 -0.7777 -0.1716
 6162TIP3   OH239976   6.658   0.319  11.073 -0.0204  0.3846  0.0590
 6162TIP3    H139977   6.719   0.257  11.113  0.9605  1.4529  0.2264
 6162TIP3    H239978   6.583   0.265  11.046 -1.3651 -0.2528  4.5632
 6163TIP3   OH239979   4.298   5.345   2.412  0.0096 -0.6022 -0.0370
 6163TIP3    H139980   4.305   5.371   2.321 -0.4580  0.9682  0.3700
 6163TIP3    H239981   4.330   5.420   2.462  0.9643 -1.7265  1.0695
 6164TIP3   OH239982   1.305   4.598  16.028  0.1500 -0.3906  0.0650
 6164TIP3    H139983   1.308   4.686  15.991  0.7632 -0.2060  0.5564
 6164TIP3    H239984   1.396   4.571  16.036 -0.0513 -1.5164 -1.0979
 6165TIP3   OH239985   6.168   6.119  13.402 -0.2639  0.1178 -0.7901
 6165TIP3    H139986   6.180   6.214  13.396 -1.1634  0.1524 -1.9900
 6165TIP3    H239987   6.143   6.104  13.494  1.9706  0.7957 -0.0331
 6166TIP3   OH239988   6.068   6.253   6.232 -0.0571  0.1697  0.4696
 6166TIP3    H139989   6.098   6.198   6.305  1.5298  0.1586 -0.1759
 6166TIP3    H239990   6.010   6.196   6.181  1.2805 -0.8081  0.0113
 6167TIP3   OH239991   3.703   2.075  11.248 -0.4864  0.4805  0.1279
 6167TIP3    H139992   3.750   2.018  11.187 -2.9350 -1.3749 -0.1072
 6167TIP3    H239993   3.762   2.084  11.323  0.6340 -0.9844 -0.5542
 6168TIP3   OH239994   0.429   0.452  14.202  0.1196  0.6088  0.3316
 6168TIP3    H139995   0.426   0.544  14.229 -0.8511  0.4564  0.7701
 6168TIP3    H239996   0.337   0.430  14.185  0.2348 -0.5692  1.1950
 6169TIP3   OH239997   4.131   0.902   5.646  0.0684 -0.3773 -0.2861
 6169TIP3    H139998   4.079   0.972   5.606  0.6658 -0.5315 -1.3330
 6169TIP3    H239999   4.110   0.824   5.595 -0.6845 -1.0146  0.9441
 6170TIP3   OH240000   0.678   0.423   2.902 -0.4588  0.1876 -0.2869
 6170TIP3    H140001   0.596   0.401   2.859 -1.4564  0.1417  1.5918
 6170TIP3    H240002   0.714   0.338   2.928 -0.7526  0.3147  0.5523
 6171TIP3   OH240003   3.096   6.335  13.662  0.2073 -0.2006  0.6059
 6171TIP3    H140004   3.179   6.318  13.707  0.0146  0.2872  1.1468
 6171TIP3    H240005   3.115   6.316  13.570  0.0100 -3.3293  1.1509
 6172TIP3   OH240006   5.047   5.518   6.829  0.5848  0.0544  0.0895
 6172TIP3    H140007   4.982   5.497   6.762 -0.5429 -0.7626  1.4191
 6172TIP3    H240008   5.068   5.434   6.869  1.3306  0.5198  0.6841
 6173TIP3   OH240009   5.587   1.909  13.675 -0.3301  0.0901  0.2253
 6173TIP3    H140010   5.608   1.817  13.655 -1.3715 -0.0148 -0.4037
 6173TIP3    H240011   5.546   1.942  13.595  2.1924  1.7911 -0.4290
 6174TIP3   OH240012   2.185   0.132   4.743 -0.2183 -0.4179 -0.0188
 6174TIP3    H140013   2.100   0.161   4.712  0.1632  0.6848 -0.0628
 6174TIP3    H240014   2.166   0.060   4.803 -1.0544 -1.5229 -1.5845
 6175TIP3   OH240015   6.126   0.370  12.367  0.0614 -0.0250  0.4267
 6175TIP3    H140016   6.054   0.419  12.327 -1.0621 -2.0745 -0.1708
 6175TIP3    H240017   6.177   0.338  12.292  0.5734 -0.0490  0.7904
 6176TIP3   OH240018   6.777   0.749   4.091  0.0903 -0.3060 -0.6287
 6176TIP3    H140019   6.826   0.714   4.165  0.5955 -1.8537 -1.6750
 6176TIP3    H240020   6.749   0.672   4.041 -0.3043  0.7020 -2.0133
 6177TIP3   OH240021   6.533   5.300   6.056 -0.1782 -0.6532 -0.4336
 6177TIP3    H140022   6.586   5.220   6.063 -0.1953 -0.9239 -2.7810
 6177TIP3    H240023   6.443   5.269   6.051 -0.1038 -0.6106 -2.6232
 6178TIP3   OH240024   2.407   2.980   1.405  0.1972  0.1421 -0.1670
 6178TIP3    H140025   2.387   3.074   1.403 -0.3085  0.1431  2.5730
 6178TIP3    H240026   2.338   2.940   1.352 -1.8332  1.0093  1.7387
 6179TIP3   OH240027   2.036   6.676   6.389  0.1803  0.4866  0.1637
 6179TIP3    H140028   2.029   6.616   6.464  0.4158 -0.4374 -0.5486
 6179TIP3    H240029   2.130   6.689   6.378  0.4957 -3.5203 -3.1872
 6180TIP3   OH240030   4.223   6.691  17.173  0.3242  0.0398  0.0031
 6180TIP3    H140031   4.223   6.719  17.265  1.6582 -0.3263  0.1197
 6180TIP3    H240032   4.277   6.756  17.128 -2.2008  1.5626 -0.9657
 6181TIP3   OH240033   0.520   3.767  16.759  0.1156  0.2798 -0.1376
 6181TIP3    H140034   0.425   3.759  16.755 -0.0413  0.7081  1.7790
 6181TIP3    H240035   0.542   3.829  16.690 -1.1632  1.2156  0.2739
 6182TIP3   OH240036   2.980   2.911  14.407 -0.2141 -0.1618  0.3194
 6182TIP3    H140037   2.957   2.877  14.320 -0.0362  0.3168  0.0872
 6182TIP3    H240038   2.915   2.871  14.465 -1.2269  0.6353 -0.2353
 6183TIP3   OH240039   0.987   0.118  11.940 -0.5978 -0.3208 -0.4304
 6183TIP3    H140040   0.908   0.065  11.936 -0.5956 -0.1789 -4.3358
 6183TIP3    H240041   1.046   0.078  11.877  1.0539  1.7188 -0.2475
 6184TIP3   OH240042   2.436   1.447   3.713 -0.2689  0.2249 -0.7779
 6184TIP3    H140043   2.354   1.454   3.665 -0.3446 -0.8469 -0.8091
 6184TIP3    H240044   2.424   1.373   3.772  0.3901  0.5571 -0.2078
 6185TIP3   OH240045   3.460   1.818   3.944  0.4216 -1.2456 -0.6589
 6185TIP3    H140046   3.382   1.868   3.969  1.6164 -0.7130  2.2981
 6185TIP3    H240047   3.479   1.846   3.855 -1.3352  0.4970 -0.5274
 6186TIP3   OH240048   5.319   6.598  14.331  0.0131  0.2613 -0.1137
 6186TIP3    H140049   5.302   6.675  14.275 -0.4551  0.9003  0.8980
 6186TIP3    H240050   5.360   6.634  14.410 -1.8102 -0.3203  1.1236
 6187TIP3   OH240051   1.470   5.320  11.897 -0.5305  0.1989 -0.0877
 6187TIP3    H140052   1.511   5.406  11.884 -0.0151  0.1497  1.1777
 6187TIP3    H240053   1.382   5.339  11.927 -0.8300  0.2898 -1.0126
 6188TIP3   OH240054   1.181   1.120  14.203 -0.1957 -0.3133 -0.3246
 6188TIP3    H140055   1.100   1.096  14.158 -0.0315 -1.0102 -0.2443
 6188TIP3    H240056   1.229   1.038  14.213  0.6467  0.1363 -0.6112
 6189TIP3   OH240057   1.152   5.789  16.795 -0.3678  0.0327  0.4598
 6189TIP3    H140058   1.192   5.705  16.821 -0.5108  0.1813  1.1545
 6189TIP3    H240059   1.136   5.835  16.877 -0.6934  0.5640  0.1026
 6190TIP3   OH240060   5.009   4.037  10.661  0.0362 -0.5175  0.1032
 6190TIP3    H140061   4.996   4.128  10.689 -1.2344  0.0187 -2.0839
 6190TIP3    H240062   5.103   4.023  10.669  0.2414  0.9772  0.5493
 6191TIP3   OH240063   5.510   3.917   3.740  0.1463  0.4218  0.1753
 6191TIP3    H140064   5.531   3.994   3.686 -0.5503  0.5189  0.0301
 6191TIP3    H240065   5.538   3.942   3.828 -0.4643  1.0154  0.2080
 6192TIP3   OH240066   2.653   6.324   2.793  0.7121 -0.0046 -0.2062
 6192TIP3    H140067   2.669   6.367   2.709  0.2247  1.0205  0.2178
 6192TIP3    H240068   2.720   6.359   2.851  0.8057 -0.4206 -0.0627
 6193TIP3   OH240069   1.302   4.701  12.136  0.1700  0.1389 -0.2011
 6193TIP3    H140070   1.217   4.706  12.179  0.0306 -0.5896 -0.3866
 6193TIP3    H240071   1.359   4.758  12.188 -0.0714 -0.5105  0.7919
 6194TIP3   OH240072   1.187   0.123  13.464 -0.2042 -0.0084 -0.1832
 6194TIP3    H140073   1.229   0.103  13.380 -0.5163 -1.0283 -0.1059
 6194TIP3    H240074   1.256   0.163  13.517  0.4125 -0.8000 -0.3852
 6195TIP3   OH240075   0.002   4.889   1.612  0.1291 -0.5068  0.2454
 6195TIP3    H140076  -0.006   4.984   1.611  2.7656 -0.2265  1.1842
 6195TIP3    H240077  -0.063   4.859   1.549 -0.3742  1.9351 -0.4678
 6196TIP3   OH240078   5.344   4.693   4.147  0.0669  0.2517 -0.0789
 6196TIP3    H140079   5.402   4.655   4.081 -1.9076 -1.2458 -1.0417
 6196TIP3    H240080   5.373   4.654   4.230  0.4818 -0.4515 -0.5448
 6197TIP3   OH240081   2.263   3.199  17.084  0.2366  0.0008  0.3154
 6197TIP3    H140082   2.172   3.169  17.080 -0.4141  2.0462 -2.4990
 6197TIP3    H240083   2.306   3.152  17.013  0.4691  1.6674 -0.6792
 6198TIP3   OH240084   6.722   3.189  14.803  0.3256 -0.7448  0.4325
 6198TIP3    H140085   6.788   3.154  14.744 -0.9583 -2.6463  0.0746
 6198TIP3    H240086   6.766   3.196  14.887  1.2489 -1.0942 -0.0123
 6199TIP3   OH240087   0.579   5.973  13.238 -0.3016  0.4479  0.1495
 6199TIP3    H140088   0.538   6.015  13.313 -2.5210 -3.3404  1.2031
 6199TIP3    H240089   0.668   5.953  13.267 -0.9775 -0.5062  1.5909
 6200TIP3   OH240090   0.142   5.250  14.021 -0.1113 -0.7628 -0.1621
 6200TIP3    H140091   0.139   5.335  14.065  0.2455 -0.9157  0.1606
 6200TIP3    H240092   0.152   5.272  13.929 -3.8875 -0.3651 -0.5623
 6201TIP3   OH240093   2.889   6.455  13.372 -0.2110 -0.0074  0.1387
 6201TIP3    H140094   2.941   6.380  13.342  1.0240  0.4716  1.0131
 6201TIP3    H240095   2.873   6.437  13.464 -0.6683  0.3929  0.1374
 6202TIP3   OH240096   3.398   2.826  11.116  0.6228  0.1607 -0.0193
 6202TIP3    H140097   3.420   2.760  11.183  1.8740 -0.7285 -1.2933
 6202TIP3    H240098   3.303   2.837  11.125  0.8024  0.2554  2.0902
 6203TIP3   OH240099   6.095   5.745  11.684 -0.4168  0.6314 -0.1684
 6203TIP3    H140100   6.072   5.727  11.775 -0.9267 -1.2237 -0.6324
 6203TIP3    H240101   6.185   5.714  11.675 -0.1036  1.5055 -0.1162
 6204TIP3   OH240102   5.733   6.173  14.846  0.0300 -0.1613  0.0006
 6204TIP3    H140103   5.691   6.179  14.932 -3.4781 -1.1280 -1.5471
 6204TIP3    H240104   5.825   6.158  14.866 -0.5347  0.5394  3.5892
 6205TIP3   OH240105   6.309   6.790  12.250 -0.4190  0.3931 -0.0409
 6205TIP3    H140106   6.238   6.806  12.312  0.5176  2.1656  0.6147
 6205TIP3    H240107   6.380   6.755  12.304 -0.8209 -1.5206 -0.7205
 6206TIP3   OH240108   6.406   6.282   2.162 -0.1318  0.3905  0.0690
 6206TIP3    H140109   6.401   6.279   2.067  1.6649 -2.0152  0.0014
 6206TIP3    H240110   6.450   6.365   2.182 -0.6421  0.9644 -1.1631
 6207TIP3   OH240111   6.631   5.243   1.913 -0.7231 -0.4355 -0.1981
 6207TIP3    H140112   6.667   5.216   1.829 -0.6360 -1.1466  0.0708
 6207TIP3    H240113   6.559   5.183   1.929 -0.4253 -0.6192  0.4753
 6208TIP3   OH240114   4.441   4.773  10.791  0.1178 -0.3943  0.3153
 6208TIP3    H140115   4.499   4.799  10.862 -0.9892  1.6019  0.5068
 6208TIP3    H240116   4.366   4.733  10.834  0.1510 -0.5820  0.1987
 6209TIP3   OH240117   0.224   0.438   2.440  0.3685 -0.0246 -0.0118
 6209TIP3    H140118   0.300   0.461   2.493  0.3166 -0.2617  0.1645
 6209TIP3    H240119   0.169   0.385   2.498  0.5567 -0.7223 -0.4671
 6210TIP3   OH240120   3.844   1.648  16.926  0.0111  0.0194  0.2786
 6210TIP3    H140121   3.891   1.730  16.907 -0.9260  0.7102  0.8774
 6210TIP3    H240122   3.906   1.579  16.901  0.5599  0.8997 -0.9057
 6211TIP3   OH240123   3.647   5.063   5.283 -0.2510  0.1893 -0.1695
 6211TIP3    H140124   3.597   5.009   5.223 -0.8181  1.1461 -0.5663
 6211TIP3    H240125   3.723   5.009   5.306 -0.8276 -0.7853 -0.5128
 6212TIP3   OH240126   5.598   0.781  14.638 -0.3095 -0.5601  0.3663
 6212TIP3    H140127   5.644   0.854  14.597 -1.0681 -0.0352  0.4296
 6212TIP3    H240128   5.528   0.822  14.689 -0.5126 -1.3087  0.7033
 6213TIP3   OH240129   5.784   1.028  14.584  0.4631 -0.3669  0.1883
 6213TIP3    H140130   5.843   1.078  14.528  1.3202 -1.2542  0.2698
 6213TIP3    H240131   5.843   0.972  14.635 -0.4151 -0.7664  0.7630
 6214TIP3   OH240132   0.839   5.739   0.170 -0.2828 -0.3362  0.1290
 6214TIP3    H140133   0.924   5.695   0.161  0.2613  0.8300 -0.5900
 6214TIP3    H240134   0.779   5.670   0.197  0.9238 -1.1616  0.7593
 6215TIP3   OH240135   4.582   4.873   2.928 -0.5097  0.4241 -0.2669
 6215TIP3    H140136   4.578   4.963   2.960 -1.2252 -0.2560  1.6314
 6215TIP3    H240137   4.500   4.862   2.879 -1.7942 -0.0565  1.9281
 6216TIP3   OH240138   3.103   3.574   2.956  0.4922 -0.6786 -0.4453
 6216TIP3    H140139   3.115   3.649   2.898  2.3925  0.6853  1.6320
 6216TIP3    H240140   3.052   3.608   3.029 -1.4927 -2.2665 -1.0666
 6217TIP3   OH240141   4.960   2.158   4.245  0.2259  0.2572 -0.4330
 6217TIP3    H140142   4.978   2.104   4.322 -2.7318  1.1577  0.9472
 6217TIP3    H240143   4.896   2.107   4.195 -0.3803  1.1593 -0.5894
 6218TIP3   OH240144   2.373   0.189  11.390 -0.5999 -0.0895  0.6682
 6218TIP3    H140145   2.450   0.158  11.438  0.5177  0.6469 -0.6076
 6218TIP3    H240146   2.389   0.162  11.299 -1.7298  0.2760  0.3580
 6219TIP3   OH240147   2.890   4.755   0.529  0.7339  0.1156  0.2273
 6219TIP3    H140148   2.818   4.815   0.508  0.8009 -0.7563 -2.7361
 6219TIP3    H240149   2.850   4.689   0.586 -0.7795 -0.1429 -1.0809
 6220TIP3   OH240150   3.491   5.612  14.101  0.2121 -0.0777 -0.0925
 6220TIP3    H140151   3.571   5.643  14.058 -0.9512 -0.2062 -2.4166
 6220TIP3    H240152   3.493   5.517  14.089 -0.3460 -0.0700 -0.2550
 6221TIP3   OH240153   2.294   5.119  12.868 -0.6901  0.2167 -0.1569
 6221TIP3    H140154   2.201   5.129  12.885 -0.5762 -1.2958  1.4355
 6221TIP3    H240155   2.326   5.063  12.938  1.5544  1.2373 -0.3186
 6222TIP3   OH240156   4.569   3.671   5.332  0.1257 -0.1392  0.4015
 6222TIP3    H140157   4.658   3.641   5.314  0.0137 -0.3166  0.1345
 6222TIP3    H240158   4.579   3.763   5.354  0.2310  0.2261 -1.0699
 6223TIP3   OH240159   2.701   2.616   5.080  0.1469 -0.1773 -0.0550
 6223TIP3    H140160   2.696   2.711   5.075 -0.5142 -0.2163 -0.1905
 6223TIP3    H240161   2.669   2.594   5.167  1.3681 -0.2060  0.3913
 6224TIP3   OH240162   3.409   4.040  15.289  0.2939  0.0581  0.3894
 6224TIP3    H140163   3.444   4.054  15.201 -0.3640 -0.7353 -0.0141
 6224TIP3    H240164   3.314   4.050  15.278  0.1283 -1.0300  0.8039
 6225TIP3   OH240165   4.772   3.010   4.194  0.0611  0.2330 -0.0329
 6225TIP3    H140166   4.843   2.966   4.242  1.1580  1.0774 -0.8420
 6225TIP3    H240167   4.741   2.943   4.132  1.6426  0.5127 -1.1714
 6226TIP3   OH240168   6.193   4.104  17.138 -0.0257  0.3902 -0.1196
 6226TIP3    H140169   6.234   4.188  17.160  1.2734  0.1578 -1.5949
 6226TIP3    H240170   6.126   4.128  17.073  1.4538  0.1224 -1.7975
 6227TIP3   OH240171   0.195   6.776   5.431 -1.0086 -0.4905 -0.1500
 6227TIP3    H140172   0.197   6.708   5.497  0.5958  0.1066  0.4440
 6227TIP3    H240173   0.174   6.731   5.349  0.3043 -1.7424  0.1913
 6228TIP3   OH240174   1.538   3.989  13.223 -0.2388 -0.3948  0.1003
 6228TIP3    H140175   1.507   4.028  13.304 -0.9765  0.6958 -0.7027
 6228TIP3    H240176   1.553   4.063  13.164  0.5509 -1.1539 -0.6766
 6229TIP3   OH240177   6.207   3.087   0.722 -0.3919  0.4088 -0.0987
 6229TIP3    H140178   6.259   3.024   0.672  2.6074  1.0298  2.1202
 6229TIP3    H240179   6.187   3.156   0.660  0.1520 -0.5659 -1.3874
 6230TIP3   OH240180   3.757   4.564  14.914  0.3677 -0.3524 -0.3907
 6230TIP3    H140181   3.801   4.510  14.849  2.4148 -0.6429  1.1580
 6230TIP3    H240182   3.792   4.533  14.998  0.6086  2.4758  0.6026
 6231TIP3   OH240183   2.781   4.714  14.882 -0.4776  0.0035 -0.0752
 6231TIP3    H140184   2.765   4.808  14.885  1.2079  0.2977  0.6155
 6231TIP3    H240185   2.791   4.689  14.974 -1.2641 -0.9292 -0.2283
 6232TIP3   OH240186   3.209   5.599   4.023  0.2388  0.7326  0.0512
 6232TIP3    H140187   3.251   5.528   3.975 -2.2423 -0.0571 -1.0618
 6232TIP3    H240188   3.255   5.677   3.996  0.0524  0.0648 -2.2692
 6233TIP3   OH240189   5.781   0.838   0.026  0.2896  0.5541 -0.2370
 6233TIP3    H140190   5.775   0.827  -0.069  1.2852 -2.4655  0.0099
 6233TIP3    H240191   5.716   0.777   0.061  0.9771  0.5637  1.0690
 6234TIP3   OH240192   0.212   6.394   2.987  0.2117 -0.2103  0.0102
 6234TIP3    H140193   0.163   6.406   2.905 -0.8703 -0.6193  0.5898
 6234TIP3    H240194   0.271   6.469   2.990  1.1821 -0.8525 -1.7780
 6235TIP3   OH240195   4.058   4.390  14.968 -0.3952 -0.5651  0.4850
 6235TIP3    H140196   4.118   4.334  15.018  0.0156 -1.3397 -0.8703
 6235TIP3    H240197   4.072   4.366  14.877 -0.5469  1.4513 -0.0946
 6236TIP3   OH240198   3.895   3.263   5.042  0.4955 -0.1965  0.8926
 6236TIP3    H140199   3.940   3.347   5.037  1.6399 -0.9249 -1.3895
 6236TIP3    H240200   3.946   3.204   4.987 -0.3677 -2.3796  2.3318
 6237TIP3   OH240201   1.488   4.944  16.349  0.1821  0.2415 -0.1367
 6237TIP3    H140202   1.525   4.900  16.426 -0.7893 -1.5872 -0.6974
 6237TIP3    H240203   1.559   4.944  16.285  0.2227 -0.4743 -0.1020
 6238TIP3   OH240204   3.538   4.803   0.766  0.0941  0.0681 -0.0762
 6238TIP3    H140205   3.541   4.895   0.793  0.7943  1.0473 -3.1930
 6238TIP3    H240206   3.626   4.770   0.784 -0.3834 -0.2261  1.7583
 6239TIP3   OH240207   5.792   5.151  12.724  0.3293 -0.1883  0.6567
 6239TIP3    H140208   5.703   5.162  12.755  0.4399  0.5169  0.7435
 6239TIP3    H240209   5.838   5.229  12.756  1.1547 -0.9233  1.2727
 6240TIP3   OH240210   3.256   1.591   6.018  1.1601 -0.0157 -0.1565
 6240TIP3    H140211   3.316   1.536   6.068  1.0916  0.9898  1.0739
 6240TIP3    H240212   3.240   1.543   5.937  2.4864 -0.9643  0.1311
 6241TIP3   OH240213   6.124   6.655  12.070 -0.3844 -0.6787  0.2308
 6241TIP3    H140214   6.092   6.743  12.048  1.5786 -0.0516 -0.2419
 6241TIP3    H240215   6.189   6.671  12.140  0.6231 -1.6483 -0.4769
 6242TIP3   OH240216   4.641   0.619   0.730 -0.1789  0.3759  0.0590
 6242TIP3    H140217   4.564   0.633   0.674 -0.6546  1.1481  0.8965
 6242TIP3    H240218   4.713   0.659   0.682  0.0525 -1.7988 -1.5302
 6243TIP3   OH240219   2.308   0.253   1.334  0.1411 -0.8451 -0.0783
 6243TIP3    H140220   2.335   0.215   1.251 -1.6273 -0.6527 -0.7638
 6243TIP3    H240221   2.219   0.220   1.348  0.3639 -0.7680  1.6699
 6244TIP3   OH240222   6.188   0.381   4.424  0.1222  0.2332  0.3804
 6244TIP3    H140223   6.224   0.424   4.347 -0.9488  1.0006  0.2916
 6244TIP3    H240224   6.234   0.419   4.498 -0.2525  0.9599  0.2463
 6245TIP3   OH240225   0.554   4.509   2.864 -0.3607 -0.2185  0.1359
 6245TIP3    H140226   0.566   4.573   2.794 -0.6865 -0.3670 -0.0559
 6245TIP3    H240227   0.535   4.427   2.819  0.4416 -0.5357  0.3719
 6246TIP3   OH240228   5.466   6.257  11.739 -0.2463 -0.0631  0.3723
 6246TIP3    H140229   5.537   6.231  11.798 -0.5934  0.0710  0.8575
 6246TIP3    H240230   5.398   6.191  11.755  0.5145 -1.3523 -1.5310
 6247TIP3   OH240231   0.717   1.489  12.380 -0.0445  0.2067 -0.1767
 6247TIP3    H140232   0.764   1.413  12.415  0.5649 -0.1404 -1.6701
 6247TIP3    H240233   0.699   1.466  12.289 -1.9177  0.9181 -0.0031
 6248TIP3   OH240234   3.837   3.604   5.153  0.4007 -0.7779 -1.0360
 6248TIP3    H140235   3.882   3.631   5.234  0.0189 -1.3426 -0.6311
 6248TIP3    H240236   3.840   3.682   5.098  0.5990 -0.3572 -0.4468
 6249TIP3   OH240237   2.178   3.727  15.201 -0.9185 -0.2552 -0.3526
 6249TIP3    H140238   2.159   3.807  15.251  2.0631  1.1417 -1.3210
 6249TIP3    H240239   2.261   3.696  15.237 -0.6058 -1.3040 -1.9362
 6250TIP3   OH240240   4.440   1.013   6.066 -0.7511  0.1269  0.3212
 6250TIP3    H140241   4.514   0.980   6.117  0.4764  1.3578 -0.6328
 6250TIP3    H240242   4.413   1.093   6.111 -0.3139  0.6750 -0.3910
 6251TIP3   OH240243   6.155   3.512   4.090  0.7461 -0.6516 -0.6756
 6251TIP3    H140244   6.184   3.423   4.069  0.1385 -1.3838  1.4887
 6251TIP3    H240245   6.067   3.519   4.052  1.3768 -0.4366 -2.1394
 6252TIP3   OH240246   0.956   5.638   0.489  0.0406  0.2970 -0.2492
 6252TIP3    H140247   0.926   5.610   0.575 -2.1453  3.1574 -0.0158
 6252TIP3    H240248   0.937   5.563   0.432  0.1887 -1.0747  1.4451
 6253TIP3   OH240249   1.672   0.645  13.691 -0.2602  0.1901  0.1995
 6253TIP3    H140250   1.592   0.642  13.744 -0.2886 -2.6122  0.0620
 6253TIP3    H240251   1.731   0.581  13.732  1.7119  1.7699 -0.0628
 6254TIP3   OH240252   5.435   2.871   3.222  0.2360  0.3708 -0.1328
 6254TIP3    H140253   5.352   2.856   3.176  0.7635  1.8335 -1.6245
 6254TIP3    H240254   5.410   2.902   3.309 -0.7857 -2.2820  0.5630
 6255TIP3   OH240255   3.504   6.000   1.226 -0.2015  0.7370  0.3784
 6255TIP3    H140256   3.531   6.017   1.136  0.3404  1.1510  0.6204
 6255TIP3    H240257   3.584   6.007   1.277 -0.3811 -0.2128  0.7979
 6256TIP3   OH240258   3.098   4.483  16.581  0.0724  0.8274 -0.0500
 6256TIP3    H140259   3.037   4.476  16.655 -0.2614  1.0367 -0.3059
 6256TIP3    H240260   3.184   4.488  16.623 -0.1817  1.9420  0.3821
 6257TIP3   OH240261   6.315   5.709  10.906  0.0664  0.2125  0.4420
 6257TIP3    H140262   6.290   5.714  10.813  1.0524  2.0705  0.2498
 6257TIP3    H240263   6.407   5.684  10.904  0.5766  1.9943  0.8423
 6258TIP3   OH240264   4.631   2.186  11.741 -0.3484  0.0784 -0.5041
 6258TIP3    H140265   4.596   2.254  11.799 -0.8053 -1.0577  0.5678
 6258TIP3    H240266   4.687   2.234  11.680  0.1832  1.2970  0.9028
 6259TIP3   OH240267   0.681   3.133  12.705  0.2299 -0.1221  0.1733
 6259TIP3    H140268   0.597   3.103  12.741  0.7710 -0.8994  0.7963
 6259TIP3    H240269   0.680   3.103  12.615 -0.8665  1.2956 -0.3175
 6260TIP3   OH240270   5.412   2.499  11.636  0.3766 -0.0591 -0.6075
 6260TIP3    H140271   5.338   2.455  11.679 -0.6461 -0.4310 -2.6594
 6260TIP3    H240272   5.479   2.431  11.630  1.1768  0.4612  1.8544
 6261TIP3   OH240273   5.672   6.767   3.980 -0.6775 -0.3434 -0.6096
 6261TIP3    H140274   5.651   6.859   4.000  0.3681  0.5551 -3.4152
 6261TIP3    H240275   5.764   6.758   4.003 -0.4736 -0.3481 -1.4043
 6262TIP3   OH240276   4.073   1.300   6.188  0.2350  0.5306 -0.2249
 6262TIP3    H140277   4.040   1.230   6.244  0.8892  0.5462  0.1947
 6262TIP3    H240278   4.095   1.256   6.105  2.7056 -0.2099  0.7566
 6263TIP3   OH240279   1.279   4.143  16.743  0.6863 -0.6713 -0.1723
 6263TIP3    H140280   1.243   4.055  16.731 -0.8845 -0.3346  1.8617
 6263TIP3    H240281   1.371   4.136  16.715 -0.0875 -2.3148 -2.4111
 6264TIP3   OH240282   2.960   4.733   3.721  0.1647 -0.4325  0.2445
 6264TIP3    H140283   2.923   4.781   3.795  2.0070  0.6754  0.5004
 6264TIP3    H240284   2.922   4.774   3.643 -0.1022 -0.1534  0.5225
 6265TIP3   OH240285   0.191   2.322  11.817 -0.2923  0.1453 -0.5549
 6265TIP3    H140286   0.286   2.321  11.825 -0.3914 -1.8395  0.7014
 6265TIP3    H240287   0.168   2.415  11.816  1.4574  0.6639  2.0296
 6266TIP3   OH240288   5.112   3.346   0.747  0.0052 -0.0863 -0.0997
 6266TIP3    H140289   5.172   3.394   0.690  1.0130 -0.4203  0.6600
 6266TIP3    H240290   5.148   3.358   0.835 -1.7757  0.8215  0.5600
 6267TIP3   OH240291   4.580   2.606  15.419  0.1121  0.1387  0.0640
 6267TIP3    H140292   4.626   2.601  15.502 -0.6187 -3.2131  0.3515
 6267TIP3    H240293   4.542   2.694  15.417  2.1366  1.1037  2.1413
 6268TIP3   OH240294   2.516   2.965   5.103 -0.0253  0.2392  0.6477
 6268TIP3    H140295   2.603   2.927   5.103 -0.2453 -0.3303 -1.2567
 6268TIP3    H240296   2.531   3.059   5.116  0.8411  0.1014  0.6543
 6269TIP3   OH240297   1.083   6.529   6.239  0.0036 -0.5443  0.1517
 6269TIP3    H140298   1.101   6.437   6.254  0.0726 -0.6169 -0.3651
 6269TIP3    H240299   1.126   6.549   6.156 -0.0866 -0.0688  0.2145
 6270TIP3   OH240300   4.667   0.760  15.010 -0.3358 -0.5586 -0.6056
 6270TIP3    H140301   4.641   0.775  14.919  0.2460  1.2283 -0.5031
 6270TIP3    H240302   4.755   0.797  15.016 -1.2824  1.4691  1.2530
 6271TIP3   OH240303   4.256   3.634   2.251  0.1140  0.4338  0.0340
 6271TIP3    H140304   4.265   3.726   2.274 -0.9670  0.8455 -1.1895
 6271TIP3    H240305   4.177   3.629   2.198  0.6584 -1.0591 -0.6731
 6272TIP3   OH240306   0.595   1.201   2.282 -0.2106  0.3114 -0.2332
 6272TIP3    H140307   0.645   1.238   2.209 -1.2058  3.0266  0.3965
 6272TIP3    H240308   0.660   1.186   2.351  0.3474  0.0066 -0.8252
 6273TIP3   OH240309   0.155   3.573  14.735 -0.1908 -0.1162 -0.6708
 6273TIP3    H140310   0.116   3.606  14.654  0.3760 -0.5718 -1.1340
 6273TIP3    H240311   0.249   3.584  14.722 -0.0904 -0.3285 -0.1335
 6274TIP3   OH240312   5.042   2.222  14.837 -0.1984  0.0321 -0.0161
 6274TIP3    H140313   5.043   2.211  14.933  0.8613 -1.6095 -0.1882
 6274TIP3    H240314   5.077   2.310  14.823  1.5721 -0.4552  1.0613
 6275TIP3   OH240315   3.948   4.879   6.335  0.1951 -0.2000 -0.0287
 6275TIP3    H140316   3.887   4.818   6.379  1.9537 -0.1146  2.6724
 6275TIP3    H240317   3.897   4.959   6.323 -0.5454 -0.4509  1.3146
 6276TIP3   OH240318   4.635   2.403   3.551  0.0835 -0.5557  1.1196
 6276TIP3    H140319   4.665   2.469   3.489 -1.0544 -0.3754  0.7496
 6276TIP3    H240320   4.576   2.347   3.500  0.9882 -1.8280  1.4448
 6277TIP3   OH240321   0.016   3.233   2.652  0.1398  0.2320  0.8623
 6277TIP3    H140322   0.047   3.143   2.655 -0.6345 -0.0151  1.6529
 6277TIP3    H240323  -0.004   3.255   2.743 -1.7791  0.4586  0.4062
 6278TIP3   OH240324   2.993   0.851  15.807  0.0563  0.2056 -0.4464
 6278TIP3    H140325   2.961   0.893  15.727  0.4590  1.8450  0.2383
 6278TIP3    H240326   3.089   0.851  15.797  0.1124  0.5429  0.1049
 6279TIP3   OH240327   3.727   2.431   0.084 -0.1522 -0.0740  0.1321
 6279TIP3    H140328   3.729   2.336   0.091 -1.0864 -0.1115 -0.0496
 6279TIP3    H240329   3.735   2.449  -0.010 -0.3740  0.0094  0.1287
 6280TIP3   OH240330   1.731   3.035  12.822 -0.4940  0.1556 -0.2728
 6280TIP3    H140331   1.717   3.129  12.807 -0.3571  0.1159 -0.6714
 6280TIP3    H240332   1.717   3.023  12.915 -2.2313  0.2897 -0.5006
 6281TIP3   OH240333   1.735   0.278  11.298 -0.0890 -0.2173 -0.3492
 6281TIP3    H140334   1.709   0.198  11.252  0.7101 -0.5415 -0.2525
 6281TIP3    H240335   1.714   0.349  11.237 -0.4631 -0.5285 -0.5848
 6282TIP3   OH240336   2.520   5.872  14.901  0.0654  0.0635 -0.0970
 6282TIP3    H140337   2.438   5.830  14.927  1.6355 -1.1765  2.9522
 6282TIP3    H240338   2.506   5.965  14.921 -0.3106 -0.2561  1.1469
 6283TIP3   OH240339   4.230   1.884   5.674 -0.0668 -0.2807 -0.0079
 6283TIP3    H140340   4.313   1.835   5.675 -0.6038 -1.1965  0.2742
 6283TIP3    H240341   4.217   1.906   5.582 -0.0565 -1.0878 -0.2094
 6284TIP3   OH240342   6.204   2.085  13.390 -0.0895 -0.0612  0.3387
 6284TIP3    H140343   6.238   2.122  13.472 -0.2943  2.6686 -0.7667
 6284TIP3    H240344   6.225   2.150  13.323 -0.0891 -2.1699 -1.7793
 6285TIP3   OH240345   5.394   5.680  15.359 -0.5388 -0.6169  0.0692
 6285TIP3    H140346   5.300   5.693  15.342 -0.1472 -0.2691 -1.9756
 6285TIP3    H240347   5.401   5.588  15.383 -1.1405 -1.2390 -2.0006
 6286TIP3   OH240348   1.640   6.522   3.400 -0.4597 -0.2146  0.0834
 6286TIP3    H140349   1.733   6.498   3.408 -0.2440  0.5525 -0.0959
 6286TIP3    H240350   1.641   6.614   3.375 -1.2911  0.0219  0.8960
 6287TIP3   OH240351   2.624   3.995  16.712  0.1237  0.0881 -0.3958
 6287TIP3    H140352   2.615   4.055  16.786 -0.7338 -0.1673 -0.2886
 6287TIP3    H240353   2.590   4.043  16.637  1.3309  0.4826 -0.7119
 6288TIP3   OH240354   1.816   5.869  14.505  0.0411 -0.0616  0.0782
 6288TIP3    H140355   1.899   5.896  14.545 -0.9641 -0.8765  2.8218
 6288TIP3    H240356   1.815   5.774  14.515 -0.2655 -0.2932 -1.9431
 6289TIP3   OH240357   5.722   0.634   2.260  0.0329 -0.1283  0.0950
 6289TIP3    H140358   5.756   0.654   2.173 -0.4372  1.5303  0.2607
 6289TIP3    H240359   5.781   0.568   2.296  0.8221 -0.0699 -1.0920
 6290TIP3   OH240360   4.323   3.246  16.047 -0.0462  0.3182  0.8017
 6290TIP3    H140361   4.332   3.169  16.103 -0.5015 -0.6760 -0.4516
 6290TIP3    H240362   4.229   3.265  16.046  0.2160  1.7913  2.2604
 6291TIP3   OH240363   1.424   6.138   6.072 -0.6205  0.2136 -0.0870
 6291TIP3    H140364   1.421   6.217   6.126  2.4754  0.4940 -0.2748
 6291TIP3    H240365   1.434   6.066   6.135 -0.8321  0.2031 -0.0655
 6292TIP3   OH240366   6.204   3.255  15.024 -0.4949 -0.0971 -0.1430
 6292TIP3    H140367   6.109   3.257  15.019 -0.5515 -0.3230  0.6825
 6292TIP3    H240368   6.229   3.343  15.050 -0.4212  0.1766 -1.1186
 6293TIP3   OH240369   6.534   4.564  13.843 -0.2685  0.2211 -0.3072
 6293TIP3    H140370   6.562   4.655  13.832  0.5898 -0.0468 -0.3633
 6293TIP3    H240371   6.468   4.551  13.775 -0.4568  0.8287 -0.2441
 6294TIP3   OH240372   2.015   4.250  16.537  0.1098 -0.1846  0.6707
 6294TIP3    H140373   2.058   4.314  16.481  2.1409  0.1422  2.5265
 6294TIP3    H240374   1.992   4.178  16.478 -0.3369  1.3526 -1.0573
 6295TIP3   OH240375   1.441   4.703   2.723 -0.9962  0.1445 -0.5619
 6295TIP3    H140376   1.421   4.641   2.793  1.8191  0.5544  0.6470
 6295TIP3    H240377   1.358   4.714   2.676 -1.8291 -3.5921 -0.0661
 6296TIP3   OH240378   3.473   2.171  12.658  0.1228  0.3023  0.4308
 6296TIP3    H140379   3.427   2.194  12.577  0.1912 -0.2943  0.2230
 6296TIP3    H240380   3.478   2.253  12.706 -1.6392  0.2867  0.6941
 6297TIP3   OH240381   2.891   6.191   1.465  0.4751  0.1166 -0.1353
 6297TIP3    H140382   2.972   6.141   1.458  0.8133  0.6560 -0.0963
 6297TIP3    H240383   2.904   6.248   1.541  1.1762  2.2095 -1.7543
 6298TIP3   OH240384   0.403   2.323   2.163 -0.1063 -0.0267  0.0357
 6298TIP3    H140385   0.343   2.361   2.099  0.9142  2.8981  0.7218
 6298TIP3    H240386   0.474   2.285   2.111 -1.7871 -2.2364 -0.7159
 6299TIP3   OH240387   2.027   0.650  10.959  0.5797 -0.5538 -0.8577
 6299TIP3    H140388   2.034   0.571  10.905 -1.8878 -1.5011  0.1542
 6299TIP3    H240389   1.953   0.698  10.923 -0.0403 -0.3777  0.5884
 6300TIP3   OH240390   0.401   1.863  13.102  0.2614 -0.0266 -0.3841
 6300TIP3    H140391   0.468   1.902  13.159  0.7600 -1.0643 -0.2505
 6300TIP3    H240392   0.391   1.774  13.134 -1.4525  0.2162 -0.1915
 6301TIP3   OH240393   1.960   5.306   5.285 -0.1300 -0.3954 -0.2244
 6301TIP3    H140394   1.962   5.259   5.201 -0.1661  0.0330 -0.4638
 6301TIP3    H240395   1.955   5.236   5.351  0.8656 -0.7684 -0.5353
 6302TIP3   OH240396   2.877   3.836  15.701 -0.4246  0.4662  0.5687
 6302TIP3    H140397   2.836   3.812  15.784  0.0591 -0.2490  0.6084
 6302TIP3    H240398   2.968   3.853  15.723 -0.3910  0.7155  0.2517
 6303TIP3   OH240399   5.980   2.034  14.086  0.8139  0.6196  0.8194
 6303TIP3    H140400   5.918   2.060  14.155  2.4239  0.7914  2.2214
 6303TIP3    H240401   5.938   2.063  14.005 -2.3077 -1.7929  1.4406
 6304TIP3   OH240402   6.788   5.161   4.498  0.1131 -0.3184  0.7388
 6304TIP3    H140403   6.859   5.146   4.561 -0.0606 -1.5084  0.6774
 6304TIP3    H240404   6.733   5.228   4.538  0.1811 -0.8346  1.7086
 6305TIP3   OH240405   1.815   4.691  17.180  0.7557 -0.3127 -0.0480
 6305TIP3    H140406   1.872   4.614  17.180  1.0478 -0.1174 -1.6377
 6305TIP3    H240407   1.742   4.667  17.122  0.5213  0.3769 -0.0464
 6306TIP3   OH240408   4.925   3.877  12.551  0.2414 -0.7824 -0.0156
 6306TIP3    H140409   4.989   3.940  12.584 -0.8685  0.1403  0.4013
 6306TIP3    H240410   4.902   3.824  12.626 -0.0450 -0.6231  0.0103
 6307TIP3   OH240411   0.547   5.542   3.884 -0.4273  0.3116 -0.3079
 6307TIP3    H140412   0.536   5.531   3.979 -0.3860  0.2898 -0.3059
 6307TIP3    H240413   0.638   5.516   3.867  0.1807  2.2041 -0.0711
 6308TIP3   OH240414   3.427   4.176   0.015 -0.3701 -0.1539  0.0121
 6308TIP3    H140415   3.497   4.233   0.046 -0.4895 -0.2447  0.4543
 6308TIP3    H240416   3.438   4.174  -0.080 -0.9214  1.3492 -0.1105
 6309TIP3   OH240417   0.506   3.971   0.194  0.0951  0.8797 -0.0144
 6309TIP3    H140418   0.578   3.914   0.224 -0.8987  0.6652  2.0761
 6309TIP3    H240419   0.532   4.058   0.224 -0.5431  0.7829  0.8536
 6310TIP3   OH240420   5.340   4.223   0.038 -0.0763 -0.6773  0.0006
 6310TIP3    H140421   5.320   4.301   0.088  1.6936  0.5669 -1.1462
 6310TIP3    H240422   5.300   4.151   0.087 -0.8115  0.8186  1.6321
 6311TIP3   OH240423   1.189   4.181   1.603  0.1730 -0.1681 -0.5207
 6311TIP3    H140424   1.112   4.216   1.558  1.2899 -0.4030 -2.6632
 6311TIP3    H240425   1.202   4.241   1.677 -1.4291  0.4916 -0.7513
 6312TIP3   OH240426   3.047   0.758   6.748 -0.1805  0.7723  0.3791
 6312TIP3    H140427   3.131   0.718   6.723 -0.4611 -0.2266  0.9869
 6312TIP3    H240428   3.013   0.795   6.667  0.3024  0.1374 -0.1202
 6313TIP3   OH240429   5.839   5.772   1.886  0.0555 -0.6827  0.6212
 6313TIP3    H140430   5.811   5.863   1.876  0.4010 -0.5745  0.6045
 6313TIP3    H240431   5.920   5.778   1.937  0.4173 -0.9325  0.0844
 6314TIP3   OH240432   5.696   6.659   3.285  0.2897 -0.0433 -0.5321
 6314TIP3    H140433   5.681   6.567   3.305  0.6184 -0.1180 -0.6279
 6314TIP3    H240434   5.702   6.663   3.190  1.7071 -0.1463 -0.4548
 6315TIP3   OH240435   4.910   1.865   5.340 -0.6711 -0.5799  0.3050
 6315TIP3    H140436   4.819   1.877   5.370  0.3539  0.3982  3.1418
 6315TIP3    H240437   4.941   1.954   5.325  0.0562 -0.8846  0.0211
 6316TIP3   OH240438   5.884   2.065  12.588  0.1212 -0.3841  0.6685
 6316TIP3    H140439   5.817   2.023  12.535 -0.3533  1.5459 -0.2888
 6316TIP3    H240440   5.874   2.025  12.675 -0.3599 -2.1607 -0.1842
 6317TIP3   OH240441   6.608   6.397  12.901  0.3457  0.5548  0.3454
 6317TIP3    H140442   6.617   6.306  12.872  2.2080  1.3150 -1.5613
 6317TIP3    H240443   6.591   6.446  12.821 -1.0280  1.8782  1.4065
 6318TIP3   OH240444   5.650   5.040  17.009  0.5486  0.2786  0.4720
 6318TIP3    H140445   5.664   4.975  16.941  0.9113  0.5089  0.3275
 6318TIP3    H240446   5.584   5.099  16.972  1.5544  1.0442 -0.1382
 6319TIP3   OH240447   1.948   3.588  14.037 -0.4055  0.1771  0.4961
 6319TIP3    H140448   1.943   3.503  14.080 -0.3914  0.0360  0.2193
 6319TIP3    H240449   1.959   3.568  13.944  2.5006  0.4484  0.7166
 6320TIP3   OH240450   4.567   3.347   2.240 -0.6415 -0.2362  0.0480
 6320TIP3    H140451   4.640   3.307   2.288 -0.3099 -0.1223 -0.3585
 6320TIP3    H240452   4.582   3.322   2.149  0.4677  2.1730 -0.4622
 6321TIP3   OH240453   4.372   6.205  15.442 -0.1298  0.0722 -0.1416
 6321TIP3    H140454   4.453   6.243  15.408  1.2635 -2.4798  0.2569
 6321TIP3    H240455   4.376   6.222  15.536 -1.0476  1.6783 -0.3617
 6322TIP3   OH240456   0.000   5.830  16.792 -0.2896  0.4189  0.0125
 6322TIP3    H140457  -0.008   5.901  16.729  0.2481 -0.4852 -1.0781
 6322TIP3    H240458  -0.019   5.750  16.742 -2.0089 -0.1291  1.4742
 6323TIP3   OH240459   3.985   2.447   3.516  0.7402 -0.2332  0.8026
 6323TIP3    H140460   4.026   2.526   3.552  0.6008  1.0449 -1.6568
 6323TIP3    H240461   4.059   2.388   3.497  1.0820  0.3000  0.4380
 6324TIP3   OH240462   5.549   1.891   0.139  0.7222  0.0799 -0.1907
 6324TIP3    H140463   5.561   1.799   0.158 -1.6625 -0.2952 -0.2786
 6324TIP3    H240464   5.636   1.930   0.146  1.6381 -2.0592  0.4222
 6325TIP3   OH240465   6.653   0.140  15.481  0.3172  0.1051  0.2442
 6325TIP3    H140466   6.634   0.063  15.427 -0.5182  1.2050 -1.0832
 6325TIP3    H240467   6.680   0.105  15.566 -0.3084 -1.6319 -0.2645
 6326TIP3   OH240468   6.805   1.467  14.657 -0.0999  0.1710  0.5513
 6326TIP3    H140469   6.741   1.432  14.595  0.2857  0.5893 -0.0984
 6326TIP3    H240470   6.885   1.476  14.605 -0.1321  1.7962  0.7519
 6327TIP3   OH240471   5.706   6.660   0.413  0.0704  0.6790 -0.5032
 6327TIP3    H140472   5.731   6.597   0.345 -0.5900 -0.1818  0.0505
 6327TIP3    H240473   5.645   6.613   0.469  1.1565  1.1431  1.1196
 6328TIP3   OH240474   5.177   4.908  17.111 -0.1878  0.4893  0.0239
 6328TIP3    H140475   5.125   4.955  17.175  2.2786  0.7546  1.8923
 6328TIP3    H240476   5.191   4.822  17.150  1.1669  0.5820 -0.2395
 6329TIP3   OH240477   6.687   3.721  16.427 -0.5012 -0.6559 -0.3611
 6329TIP3    H140478   6.623   3.680  16.485 -0.3120  1.0961  1.1246
 6329TIP3    H240479   6.770   3.718  16.476 -0.3213  0.7410 -0.5605
 6330TIP3   OH240480   3.512   1.510  17.245  0.6355 -0.6279 -1.0348
 6330TIP3    H140481   3.573   1.576  17.277 -1.1970  0.7091 -0.1673
 6330TIP3    H240482   3.508   1.445  17.316 -0.1644  0.1343 -0.3621
 6331TIP3   OH240483   0.376   4.369  12.209 -0.6543 -0.1758  0.3864
 6331TIP3    H140484   0.387   4.335  12.297 -0.2039 -0.0812  0.3673
 6331TIP3    H240485   0.288   4.407  12.208 -0.6029 -0.0515  0.8335
 6332TIP3   OH240486   3.689   4.888   3.195  0.6268 -0.4738 -0.4305
 6332TIP3    H140487   3.705   4.808   3.145 -0.1751 -0.3060 -0.9561
 6332TIP3    H240488   3.738   4.875   3.277 -1.9982 -2.8485  0.8564
 6333TIP3   OH240489   5.616   3.002   5.483  0.0380 -0.0181 -0.2672
 6333TIP3    H140490   5.605   3.094   5.459  0.2912  0.5912  1.8009
 6333TIP3    H240491   5.548   2.955   5.436  1.3141  0.9099 -3.1119
 6334TIP3   OH240492   2.789   1.408   6.792  0.1982 -0.4110  0.1806
 6334TIP3    H140493   2.713   1.454   6.826  0.7064  0.0861  0.6494
 6334TIP3    H240494   2.855   1.476   6.780  0.2752 -0.6905 -1.0752
 6335TIP3   OH240495   0.167   1.012  11.338 -0.2378 -0.3115  0.6802
 6335TIP3    H140496   0.207   1.073  11.277  0.4262  1.3374  2.6981
 6335TIP3    H240497   0.073   1.021  11.323 -0.0927  0.3375  0.1333
 6336TIP3   OH240498   0.258   1.640   4.285  0.2358  0.8672  0.1691
 6336TIP3    H140499   0.207   1.718   4.262  0.6110  0.9419 -0.4288
 6336TIP3    H240500   0.334   1.644   4.227  0.1812 -0.0205  0.0300
 6337TIP3   OH240501   4.022   0.031   2.092  0.1661  0.4638 -0.3942
 6337TIP3    H140502   3.978   0.116   2.081 -0.1042  0.1509 -1.7846
 6337TIP3    H240503   4.028   0.020   2.187 -0.4498  1.7093 -0.1944
 6338TIP3   OH240504   2.490   5.112   6.038  0.4389 -0.3702  0.0975
 6338TIP3    H140505   2.471   5.162   6.117  1.9921  0.9001 -0.2877
 6338TIP3    H240506   2.550   5.043   6.067  0.1095 -0.6052  0.2221
 6339TIP3   OH240507   5.484   2.856   5.302  0.3193 -0.1599  0.1323
 6339TIP3    H140508   5.520   2.801   5.232  0.4281 -0.1714  0.1969
 6339TIP3    H240509   5.393   2.870   5.277 -0.0586 -1.4251  0.7704
 6340TIP3   OH240510   2.612   2.949  13.611 -0.9718  0.4415 -0.4401
 6340TIP3    H140511   2.690   3.002  13.596 -0.8552  0.2751 -0.4225
 6340TIP3    H240512   2.567   2.992  13.684 -2.7068  2.5497 -2.6830
 6341TIP3   OH240513   3.841   4.272   0.515  0.2303  0.2352 -0.0514
 6341TIP3    H140514   3.878   4.190   0.481 -1.5436 -0.2370 -0.9122
 6341TIP3    H240515   3.765   4.244   0.567  0.8260  1.2033  1.3618
 6342TIP3   OH240516   1.456   0.877  14.489 -0.3458  0.5159  0.1519
 6342TIP3    H140517   1.452   0.939  14.416  1.3755  1.1393  0.5613
 6342TIP3    H240518   1.367   0.843  14.496 -0.9898  1.8823 -0.9958
 6343TIP3   OH240519   3.263   0.338  16.870  0.4844 -0.0938  0.3705
 6343TIP3    H140520   3.245   0.247  16.844 -0.6742 -0.2314  1.6237
 6343TIP3    H240521   3.177   0.376  16.887  1.0156  1.0239  0.6128
 6344TIP3   OH240522   2.465   1.262  17.248 -0.0178 -0.3018 -0.2750
 6344TIP3    H140523   2.451   1.296  17.160  0.3131  0.9363  0.1489
 6344TIP3    H240524   2.416   1.321  17.305 -0.0223 -0.9499  0.3995
 6345TIP3   OH240525   3.271   5.239  13.518 -0.1839  0.1763 -0.3661
 6345TIP3    H140526   3.339   5.293  13.478 -0.6546  0.7216 -0.4476
 6345TIP3    H240527   3.227   5.299  13.579 -1.9843  0.4583 -1.8998
 6346TIP3   OH240528   6.672   5.734   2.775  0.1231  0.4221  0.3176
 6346TIP3    H140529   6.691   5.715   2.683  0.3405 -0.5346  0.5513
 6346TIP3    H240530   6.758   5.756   2.812  0.0185  0.9157  0.2617
 6347TIP3   OH240531   5.124   2.776   3.979  0.1658 -0.2205 -0.1225
 6347TIP3    H140532   5.085   2.774   4.066  0.0242 -0.2604 -0.1856
 6347TIP3    H240533   5.102   2.862   3.944 -1.1904 -0.8180 -0.7518
 6348TIP3   OH240534   5.519   4.572   3.977  0.4226  0.2960 -0.0117
 6348TIP3    H140535   5.515   4.477   3.978  1.6856  0.2293  0.3033
 6348TIP3    H240536   5.606   4.592   3.942 -0.7654  1.3721 -2.5015
 6349TIP3   OH240537   4.126   0.436  13.019  0.0594  0.2314  0.1982
 6349TIP3    H140538   4.143   0.530  13.024  0.8425  0.0492  1.2417
 6349TIP3    H240539   4.051   0.428  12.961 -1.0208  1.6131  1.3873
 6350TIP3   OH240540   0.862   5.603  13.032  0.3766  0.0288  0.8621
 6350TIP3    H140541   0.846   5.668  13.100  0.9264 -0.1903  1.2144
 6350TIP3    H240542   0.917   5.648  12.967 -2.1567  0.9778 -0.6693
 6351TIP3   OH240543   2.731   2.534   4.807  0.0188 -0.1203 -0.1387
 6351TIP3    H140544   2.718   2.539   4.902  0.2432 -1.5181 -0.0159
 6351TIP3    H240545   2.649   2.500   4.773 -0.0075  0.2315 -0.4211
 6352TIP3   OH240546   0.282   5.956   5.607 -0.4621 -0.3526  0.0612
 6352TIP3    H140547   0.272   6.039   5.653 -1.2156 -0.3486 -0.1058
 6352TIP3    H240548   0.374   5.931   5.621  0.3604  1.5852 -1.6924
 6353TIP3   OH240549   5.726   3.233  14.706 -0.2642 -0.5088 -0.2376
 6353TIP3    H140550   5.821   3.229  14.717 -0.6648 -2.1608  3.3408
 6353TIP3    H240551   5.702   3.147  14.670 -0.4995 -0.3965 -0.3514
 6354TIP3   OH240552   4.771   6.018   1.718 -0.0188 -0.7369 -0.0775
 6354TIP3    H140553   4.792   5.925   1.715  1.7573 -0.3789  0.5400
 6354TIP3    H240554   4.807   6.047   1.802 -0.2014  0.5814 -0.4509
 6355TIP3   OH240555   0.867   2.357   0.551 -0.0823  0.0282 -0.8130
 6355TIP3    H140556   0.929   2.286   0.535  0.3363 -0.1464  1.3841
 6355TIP3    H240557   0.787   2.330   0.505 -0.1973 -2.3059  0.6441
 6356TIP3   OH240558   4.417   4.316   1.544 -0.5234  0.3837 -0.5937
 6356TIP3    H140559   4.324   4.293   1.539 -0.6873  0.3483  2.0260
 6356TIP3    H240560   4.420   4.391   1.603  1.2917 -0.9518  1.0760
 6357TIP3   OH240561   6.602   1.358   2.541  0.0602  0.7095  0.3844
 6357TIP3    H140562   6.512   1.384   2.525  0.1295  0.7220  0.0002
 6357TIP3    H240563   6.650   1.389   2.464  0.1179 -0.7127 -0.1844
 6358TIP3   OH240564   6.308   4.325   1.704 -0.0486 -0.0890 -0.5241
 6358TIP3    H140565   6.399   4.355   1.697  0.2980 -0.9373  0.2284
 6358TIP3    H240566   6.313   4.248   1.760 -1.2430 -0.1194 -0.4543
 6359TIP3   OH240567   4.879   0.685   5.195  0.5052 -0.4449  0.3844
 6359TIP3    H140568   4.896   0.756   5.133 -0.9189  0.1064  0.6173
 6359TIP3    H240569   4.788   0.696   5.221  0.7390 -1.3908  1.6733
 6360TIP3   OH240570   5.540   4.379  15.648 -0.3251 -0.2669  0.2032
 6360TIP3    H140571   5.576   4.379  15.737  2.4840 -0.1592 -0.8634
 6360TIP3    H240572   5.605   4.331  15.596 -2.5311 -1.4584 -1.5850
 6361TIP3   OH240573   0.034   0.635   3.378  0.3294 -0.0168 -0.3083
 6361TIP3    H140574   0.045   0.666   3.288  0.2113  0.5921 -0.1198
 6361TIP3    H240575   0.042   0.714   3.432 -0.3989 -0.2524  0.1566
 6362TIP3   OH240576   4.780   4.068  11.405 -0.0577 -0.2688  0.2653
 6362TIP3    H140577   4.767   4.135  11.472  1.5485 -1.4181  1.7744
 6362TIP3    H240578   4.721   3.997  11.430  1.0736 -0.9996  0.9053
 6363TIP3   OH240579   3.013   4.988  11.641  0.3310  0.3538  0.0376
 6363TIP3    H140580   2.940   5.024  11.592  0.7351  0.7155 -0.3051
 6363TIP3    H240581   2.989   5.001  11.733 -0.4338 -0.3447 -0.0603
 6364TIP3   OH240582   1.521   6.307   1.819  0.3511 -0.0790 -0.0843
 6364TIP3    H140583   1.519   6.390   1.771 -1.4958  0.1403  0.3593
 6364TIP3    H240584   1.583   6.322   1.890  1.0108  0.4910 -0.7694
 6365TIP3   OH240585   6.475   2.018   3.788  0.6673 -0.2269 -0.1313
 6365TIP3    H140586   6.410   1.947   3.779 -1.4688  1.5826  0.5427
 6365TIP3    H240587   6.498   2.016   3.881 -0.1274  0.5710  0.0876
 6366TIP3   OH240588   0.817   3.831   6.353  0.4572  0.4747 -0.0403
 6366TIP3    H140589   0.781   3.751   6.316  1.6169 -0.5293  0.9486
 6366TIP3    H240590   0.899   3.845   6.305 -1.6477  3.3474 -3.0497
 6367TIP3   OH240591   4.719   2.372  14.579 -0.4562 -0.3022 -0.0130
 6367TIP3    H140592   4.667   2.368  14.498  1.0896  0.9869 -1.1167
 6367TIP3    H240593   4.662   2.416  14.642 -1.0446  0.3153 -0.9506
 6368TIP3   OH240594   4.309   6.072  17.122  0.1656 -0.4373  0.2305
 6368TIP3    H140595   4.229   6.104  17.080  0.5679 -0.6032 -0.6855
 6368TIP3    H240596   4.295   5.978  17.131  0.5687 -0.5920 -0.6579
 6369TIP3   OH240597   4.730   2.606   5.385 -0.8561  0.2101 -0.0505
 6369TIP3    H140598   4.692   2.693   5.374 -0.1722  0.5331  0.1473
 6369TIP3    H240599   4.819   2.614   5.352  0.0900  0.2922  2.4064
 6370TIP3   OH240600   3.105   6.128  16.201 -0.0683 -0.1961 -0.1113
 6370TIP3    H140601   3.150   6.120  16.286  1.4352 -0.8966 -0.9578
 6370TIP3    H240602   3.024   6.079  16.213 -0.8688  1.4639  1.5812
 6371TIP3   OH240603   2.624   1.423   2.550  0.6664 -0.2843 -0.0687
 6371TIP3    H140604   2.564   1.392   2.482 -0.2743  1.1697  0.0640
 6371TIP3    H240605   2.669   1.497   2.510 -0.5122  1.1273  1.1535
 6372TIP3   OH240606   6.542   0.521  12.443 -0.1934 -0.1275 -0.4433
 6372TIP3    H140607   6.531   0.440  12.394  1.7104 -0.7722  0.1305
 6372TIP3    H240608   6.512   0.500  12.532  1.4564 -0.6077  0.0241
 6373TIP3   OH240609   0.415   4.556   1.642 -0.5023 -0.2529 -0.8258
 6373TIP3    H140610   0.449   4.521   1.560  2.6742  0.6648  0.0428
 6373TIP3    H240611   0.476   4.626   1.665 -3.4319  1.9581  0.4504
 6374TIP3   OH240612   3.655   1.580  12.630  0.3570 -0.7508  0.2170
 6374TIP3    H140613   3.747   1.603  12.619  0.5032 -1.3592  0.1442
 6374TIP3    H240614   3.610   1.630  12.561  0.8045 -1.5168 -0.6435
 6375TIP3   OH240615   2.331   5.071  11.263  0.1321  0.0072 -0.3634
 6375TIP3    H140616   2.300   4.993  11.217 -0.6344  0.8485 -1.2830
 6375TIP3    H240617   2.253   5.108  11.302  0.4416  0.5084 -0.2226
 6376TIP3   OH240618   6.526   1.511  11.931 -0.8197  0.1272  0.1820
 6376TIP3    H140619   6.563   1.530  11.845  0.5102  0.4627  0.8180
 6376TIP3    H240620   6.456   1.576  11.942 -0.3756  0.6814 -0.2421
 6377TIP3   OH240621   2.346   5.740   1.272 -0.6886  0.0419  0.3901
 6377TIP3    H140622   2.365   5.672   1.337  0.5687  0.9769  1.0302
 6377TIP3    H240623   2.431   5.783   1.258 -1.3401  1.0392 -0.4931
 6378TIP3   OH240624   6.033   5.782  15.354  0.1584  0.7468 -0.0720
 6378TIP3    H140625   6.071   5.792  15.267  0.5293 -0.0303 -0.0052
 6378TIP3    H240626   6.099   5.818  15.413  0.0276  1.0152 -0.0884
 6379TIP3   OH240627   1.463   5.729  12.762  0.4146 -0.0719 -0.4522
 6379TIP3    H140628   1.467   5.687  12.848 -1.1025  2.6089  1.0051
 6379TIP3    H240629   1.370   5.728  12.740  0.2998  2.6895 -0.2460
 6380TIP3   OH240630   4.394   1.232   0.329 -0.2359  0.6124 -0.0289
 6380TIP3    H140631   4.318   1.226   0.386 -0.0544 -2.8024 -0.0521
 6380TIP3    H240632   4.463   1.186   0.377  0.0302 -1.9975 -2.7428
 6381TIP3   OH240633   1.507   1.345  14.761  0.1049  0.1092  0.1811
 6381TIP3    H140634   1.501   1.252  14.739  0.1484  0.3832 -1.0321
 6381TIP3    H240635   1.426   1.363  14.809 -0.0902 -0.4598  0.0703
 6382TIP3   OH240636   1.051   6.017  13.525  0.5235 -0.3252  0.0238
 6382TIP3    H140637   1.109   5.951  13.562 -1.3296 -0.5003  2.7804
 6382TIP3    H240638   0.992   6.040  13.597 -0.0607  2.9836 -1.4018
 6383TIP3   OH240639   6.659   0.316  12.646  0.4472  0.2954  0.4348
 6383TIP3    H140640   6.753   0.333  12.646  0.1642  2.0828 -1.7650
 6383TIP3    H240641   6.636   0.310  12.554 -1.4284 -1.2643  0.9673
 6384TIP3   OH240642   1.955   4.517  13.402 -0.2101  0.4787  0.2293
 6384TIP3    H140643   1.864   4.542  13.393 -0.3663  0.6406  2.0509
 6384TIP3    H240644   1.975   4.530  13.494  0.3567 -3.8643  0.8600
 6385TIP3   OH240645   2.506   6.421  14.585  0.0129  0.4195 -0.1072
 6385TIP3    H140646   2.501   6.515  14.603  0.9571  0.7183 -1.2948
 6385TIP3    H240647   2.467   6.379  14.661 -1.3162  1.8152 -0.0007
 6386TIP3   OH240648   6.021   4.474   2.407 -0.5629  0.3414  1.1734
 6386TIP3    H140649   6.083   4.493   2.477 -1.9079  1.7830  2.0028
 6386TIP3    H240650   6.021   4.553   2.352  0.2707 -0.6671 -0.3007
 6387TIP3   OH240651   4.448   3.549  11.831  0.6380  0.9861  0.2639
 6387TIP3    H140652   4.456   3.464  11.875  2.5028 -0.2574 -2.3742
 6387TIP3    H240653   4.495   3.609  11.889  1.3517 -0.2368  0.9934
 6388TIP3   OH240654   3.232   1.001   4.664 -0.1180  0.5289 -0.0148
 6388TIP3    H140655   3.267   0.929   4.716 -0.1703  0.7917  0.3802
 6388TIP3    H240656   3.274   1.080   4.700 -2.1416  1.0147  1.3638
 6389TIP3   OH240657   5.123   5.861  15.660  0.3663 -0.1703  0.3486
 6389TIP3    H140658   5.045   5.874  15.606  0.3424 -1.1556  0.1391
 6389TIP3    H240659   5.159   5.949  15.671  1.6655 -0.1827 -3.1818
 6390TIP3   OH240660   1.096   3.127  12.754 -0.0708 -0.5286  0.4548
 6390TIP3    H140661   1.079   3.191  12.685  1.2446 -2.3336 -1.6178
 6390TIP3    H240662   1.186   3.146  12.783  0.0674 -0.9826  0.3307
 6391TIP3   OH240663   4.721   0.059  16.353 -0.0869  0.6177 -0.0965
 6391TIP3    H140664   4.684   0.128  16.298 -1.0001  0.2010 -0.0010
 6391TIP3    H240665   4.671  -0.019  16.332 -0.5776  0.5001  1.4628
 6392TIP3   OH240666   6.744   6.534   2.981  0.3956  0.0536  0.3107
 6392TIP3    H140667   6.809   6.603   2.968 -0.5680  1.0049  0.4729
 6392TIP3    H240668   6.753   6.478   2.904  0.9642  0.5451  0.0160
 6393TIP3   OH240669   5.923   0.854   4.523 -0.7078  0.2686  0.4479
 6393TIP3    H140670   5.945   0.809   4.605  0.0540 -1.1716 -0.5143
 6393TIP3    H240671   5.877   0.933   4.550  0.6051  0.4246  2.3115
 6394TIP3   OH240672   1.832   6.506   3.791 -0.7262 -0.0934 -0.1656
 6394TIP3    H140673   1.797   6.433   3.740 -2.1540  0.8329 -0.5567
 6394TIP3    H240674   1.846   6.576   3.727 -1.6165  0.7554  0.5460
 6395TIP3   OH240675   3.802   5.079  15.949 -0.3522  0.0116  0.0798
 6395TIP3    H140676   3.826   5.138  16.021  0.4870  1.0602 -1.0423
 6395TIP3    H240677   3.876   5.083  15.889 -1.1478 -0.6767 -0.9671
 6396TIP3   OH240678   0.568   3.119  12.367  0.5136  0.4373  0.0953
 6396TIP3    H140679   0.535   3.066  12.295  0.4418 -0.0860  0.5043
 6396TIP3    H240680   0.662   3.101  12.368  0.6880  1.3087 -0.5673
 6397TIP3   OH240681   3.546   5.753   0.455 -0.1587  0.1379 -0.1326
 6397TIP3    H140682   3.633   5.733   0.490 -0.2212 -0.5562 -0.3599
 6397TIP3    H240683   3.496   5.783   0.530  0.1933  0.2473  0.0594
 6398TIP3   OH240684   2.523   2.141   2.007  0.5296 -0.6316 -0.5770
 6398TIP3    H140685   2.518   2.127   1.913 -0.1499 -2.7029 -0.2544
 6398TIP3    H240686   2.584   2.075   2.039  1.3595  0.5509  0.3563
 6399TIP3   OH240687   4.203   3.221   3.315  0.8875  0.1639  0.0295
 6399TIP3    H140688   4.213   3.230   3.410  1.5797  2.1478 -0.2146
 6399TIP3    H240689   4.269   3.156   3.291  2.1636  1.1782  0.6528
 6400TIP3   OH240690   3.019   1.762  14.515 -0.3612 -0.1428  0.3129
 6400TIP3    H140691   2.934   1.719  14.527 -0.6815  0.4882  0.2930
 6400TIP3    H240692   3.077   1.692  14.485 -1.4670 -0.0560 -2.1410
 6401TIP3   OH240693   0.344   4.300  11.565 -0.6310  0.5306 -0.1565
 6401TIP3    H140694   0.295   4.218  11.559 -2.1830  1.4292  0.0723
 6401TIP3    H240695   0.428   4.280  11.522 -0.0396 -1.8548  1.9670
 6402TIP3   OH240696   5.245   4.866  13.865  0.2857  0.2635 -0.4470
 6402TIP3    H140697   5.302   4.794  13.890 -1.2881 -0.9583 -0.2591
 6402TIP3    H240698   5.292   4.913  13.797  1.9206 -0.1294  0.4045
 6403TIP3   OH240699   2.702   1.150   0.824  0.5684  0.1644  0.6112
 6403TIP3    H140700   2.624   1.094   0.819  0.8877 -0.2513  0.3400
 6403TIP3    H240701   2.769   1.096   0.865  0.8029  0.4318  0.5839
 6404TIP3   OH240702   4.660   0.961   5.452  0.3430 -0.6859  0.4713
 6404TIP3    H140703   4.710   0.938   5.531 -0.5068 -1.7768  0.7103
 6404TIP3    H240704   4.634   0.877   5.415  1.2210 -0.1943 -1.3160
 6405TIP3   OH240705   0.181   5.310  11.822  0.2829 -0.4562 -0.1220
 6405TIP3    H140706   0.098   5.349  11.796  0.6024 -0.6179 -1.4537
 6405TIP3    H240707   0.241   5.385  11.829  0.3570 -0.4735 -0.5309
 6406TIP3   OH240708   6.069   0.933   4.897  0.0466  0.2586  0.7321
 6406TIP3    H140709   6.094   0.903   4.985  0.0152  0.4874  0.8193
 6406TIP3    H240710   6.152   0.949   4.853  0.0750 -0.6436  0.4489
 6407TIP3   OH240711   6.155   4.908   1.045 -0.5897  0.4936  0.1470
 6407TIP3    H140712   6.110   4.896   0.962 -0.8795  1.3504  0.1771
 6407TIP3    H240713   6.186   4.999   1.043  2.5670 -0.5344 -0.5870
 6408TIP3   OH240714   0.288   0.973   0.842 -0.1312 -0.0075 -0.2593
 6408TIP3    H140715   0.321   1.000   0.757 -0.5609 -1.0467 -0.7663
 6408TIP3    H240716   0.193   0.969   0.831 -0.2096  0.1487  0.3499
 6409TIP3   OH240717   3.707   1.829  16.109 -0.2439 -0.5655 -0.4081
 6409TIP3    H140718   3.662   1.843  16.193 -4.1201 -1.5157 -2.2466
 6409TIP3    H240719   3.717   1.917  16.072  0.9401 -0.2028  0.6951
 6410TIP3   OH240720   2.202   5.791  13.963  0.3251  0.3935  0.0453
 6410TIP3    H140721   2.111   5.823  13.964  0.8414  2.4897 -4.6772
 6410TIP3    H240722   2.200   5.715  13.905  1.2456 -0.8847  1.6601
 6411TIP3   OH240723   3.072   5.158   5.929 -0.4762  0.3145 -0.3341
 6411TIP3    H140724   3.143   5.110   5.972  0.5467  1.2033 -1.0098
 6411TIP3    H240725   3.004   5.165   5.996  0.1252 -0.4199  0.3650
 6412TIP3   OH240726   6.809   5.383   5.969 -0.1130 -0.2265  0.1084
 6412TIP3    H140727   6.714   5.382   5.981 -0.3782  1.4758 -1.5985
 6412TIP3    H240728   6.827   5.310   5.910 -0.5079  0.1753 -0.5101
 6413TIP3   OH240729   3.038   2.546  11.596 -0.2591  0.3265 -0.0273
 6413TIP3    H140730   3.010   2.468  11.644 -0.1385  1.2249  1.5220
 6413TIP3    H240731   3.114   2.517  11.546 -0.0134 -0.4690  0.7998
 6414TIP3   OH240732   3.121   2.766   2.352 -0.3008 -1.0875 -0.2283
 6414TIP3    H140733   3.205   2.743   2.392 -0.5863 -1.0966  0.3711
 6414TIP3    H240734   3.076   2.818   2.419  0.1815  0.9329 -1.4191
 6415TIP3   OH240735   4.543   3.583  12.084  0.1762  0.0879 -0.5135
 6415TIP3    H140736   4.477   3.559  12.149 -0.4954  1.2955 -0.7406
 6415TIP3    H240737   4.598   3.505  12.076 -0.6747 -0.6107  0.3462
 6416TIP3   OH240738   1.344   6.434  16.728 -0.5081  0.0573 -0.5197
 6416TIP3    H140739   1.392   6.431  16.810 -0.6316 -1.7150 -0.4998
 6416TIP3    H240740   1.402   6.394  16.664 -1.0701 -0.0566 -0.9598
 6417TIP3   OH240741   6.712   2.232  12.014  0.4066  0.4053  0.1962
 6417TIP3    H140742   6.795   2.203  12.052  0.7136 -0.2997 -0.9692
 6417TIP3    H240743   6.648   2.169  12.046  0.3046  1.0080  1.1766
 6418TIP3   OH240744   5.430   5.226  17.014  0.1245  0.1327  0.1746
 6418TIP3    H140745   5.369   5.212  17.087  0.6984 -0.6584  0.5062
 6418TIP3    H240746   5.392   5.177  16.941  0.8604 -1.1704  0.6534
 6419TIP3   OH240747   5.236   1.520   4.801 -0.2426 -0.5365 -0.3720
 6419TIP3    H140748   5.283   1.502   4.719 -2.9573 -0.9223 -1.9000
 6419TIP3    H240749   5.221   1.615   4.800  1.1761 -0.2931  0.5076
 6420TIP3   OH240750   4.900   2.758   5.686  0.2457  0.6368 -0.2319
 6420TIP3    H140751   4.974   2.758   5.747  1.2713 -2.8568 -1.3655
 6420TIP3    H240752   4.823   2.747   5.742  1.0633 -1.1348  0.6123
 6421TIP3   OH240753   2.342   5.207  15.460  0.7332 -0.4029  0.1199
 6421TIP3    H140754   2.286   5.272  15.502  0.4273 -0.0454 -0.8275
 6421TIP3    H240755   2.388   5.164  15.532 -3.4659 -3.2415  1.2585
 6422TIP3   OH240756   4.677   6.056  13.008  0.1855 -0.1729 -0.3637
 6422TIP3    H140757   4.722   6.136  12.982  2.0803 -1.2739 -0.5457
 6422TIP3    H240758   4.745   5.989  13.009 -1.3389 -1.7577 -0.0492
 6423TIP3   OH240759   0.600   4.820  16.769  0.4266 -0.2152  0.2613
 6423TIP3    H140760   0.694   4.813  16.752  0.1135 -2.1613 -0.8706
 6423TIP3    H240761   0.573   4.729  16.783 -1.1678  0.4067  1.2704
 6424TIP3   OH240762   6.137   0.301   3.609  0.2941  0.0866  0.3035
 6424TIP3    H140763   6.222   0.285   3.569 -0.0118 -0.5798 -0.0810
 6424TIP3    H240764   6.085   0.343   3.540  0.6740  1.5745  0.8955
 6425TIP3   OH240765   5.010   4.423   2.878 -0.2094  0.0622  0.0835
 6425TIP3    H140766   5.040   4.337   2.908  2.9736  1.2831  0.5690
 6425TIP3    H240767   4.946   4.450   2.945 -1.1106 -1.8099  0.0201
 6426TIP3   OH240768   0.952   0.670   2.965 -0.0330  0.3423 -0.5794
 6426TIP3    H140769   0.976   0.695   2.876  1.1106  1.0597 -0.0712
 6426TIP3    H240770   1.026   0.619   2.996 -0.2153  0.5134  0.1393
 6427TIP3   OH240771   0.181   5.296  15.890  0.3409  0.1201 -0.0334
 6427TIP3    H140772   0.213   5.343  15.813  0.8060  3.3484  2.0505
 6427TIP3    H240773   0.259   5.284  15.944 -0.5391  0.7972  1.4084
 6428TIP3   OH240774   6.659   4.146  16.980 -0.5281 -0.9119 -0.0229
 6428TIP3    H140775   6.746   4.159  16.942 -0.5828 -1.2640 -0.2673
 6428TIP3    H240776   6.668   4.067  17.032 -0.2024  0.0730  1.4496
 6429TIP3   OH240777   3.155   5.197   5.036 -0.0813  0.4289 -0.0295
 6429TIP3    H140778   3.128   5.146   5.112  2.9097 -0.4554  0.5109
 6429TIP3    H240779   3.177   5.131   4.970  0.9854  1.0818 -0.3329
 6430TIP3   OH240780   0.051   6.188   4.962  0.1120  0.3483 -0.3884
 6430TIP3    H140781   0.133   6.230   4.934 -0.4664  2.7558  1.3606
 6430TIP3    H240782   0.076   6.134   5.037  0.4917 -0.8871 -1.3778
 6431TIP3   OH240783   4.718   0.381   0.257  0.1779  0.2134  0.2470
 6431TIP3    H140784   4.636   0.398   0.302 -0.5234 -1.5148 -0.3416
 6431TIP3    H240785   4.728   0.453   0.196 -0.1868  1.1653  1.2932
 6432TIP3   OH240786   3.886   6.670  13.529 -0.2768 -0.2635 -1.1121
 6432TIP3    H140787   3.793   6.659  13.547 -0.3815 -0.5779 -1.8370
 6432TIP3    H240788   3.891   6.690  13.436  0.3524  0.1315 -0.9957
 6433TIP3   OH240789   0.894   2.124   6.230 -0.3865  0.0307  0.2037
 6433TIP3    H140790   0.895   2.061   6.159 -0.6301 -2.0305  1.9980
 6433TIP3    H240791   0.810   2.111   6.273 -0.6072  1.8476  0.3797
 6434TIP3   OH240792   4.312   1.857   1.226 -0.3795  0.9030 -0.4501
 6434TIP3    H140793   4.379   1.821   1.167  0.9881  2.0806  0.3538
 6434TIP3    H240794   4.234   1.805   1.208  0.6079 -0.1541 -1.7864
 6435TIP3   OH240795   4.740   1.942   0.038  0.2575 -0.0165  0.5912
 6435TIP3    H140796   4.834   1.939   0.018  0.1676  0.6273  0.0426
 6435TIP3    H240797   4.735   1.930   0.133  0.7929 -1.5825  0.4349
 6436TIP3   OH240798   3.241   2.602   5.106 -0.2342  0.1226  0.2992
 6436TIP3    H140799   3.328   2.629   5.078  0.1729 -2.6796 -1.3205
 6436TIP3    H240800   3.254   2.556   5.189  0.1818 -2.2304 -1.0184
 6437TIP3   OH240801   6.606   5.405  13.328 -0.3511  0.2303  0.4620
 6437TIP3    H140802   6.628   5.471  13.261  0.9622  0.8963  1.5258
 6437TIP3    H240803   6.617   5.321  13.283 -1.2776  0.6990 -0.6889
 6438TIP3   OH240804   6.717   1.291   6.309 -0.0789  0.3165 -0.3984
 6438TIP3    H140805   6.640   1.344   6.328 -0.5942 -0.3060 -0.7106
 6438TIP3    H240806   6.776   1.350   6.260 -0.5810  0.6364 -0.6205
 6439TIP3   OH240807   0.442   2.137   1.321  0.9213 -0.0324  0.2164
 6439TIP3    H140808   0.471   2.047   1.312  0.4125  0.0738 -3.2567
 6439TIP3    H240809   0.517   2.189   1.292  0.0808  0.5335 -0.9542
 6440TIP3   OH240810   0.632   1.904   5.329 -0.0651  0.2667  0.6027
 6440TIP3    H140811   0.557   1.902   5.387 -1.4631  1.2689 -1.1260
 6440TIP3    H240812   0.620   1.983   5.276  1.3499 -0.4251 -0.8045
 6441TIP3   OH240813   4.311   6.778  13.140  0.5378 -0.9812  0.3005
 6441TIP3    H140814   4.234   6.834  13.129  0.7359 -0.8169 -0.2480
 6441TIP3    H240815   4.275   6.693  13.168  0.2016 -0.7443  0.5955
 6442TIP3   OH240816   1.495   5.972  15.135 -0.1950 -0.5890  0.0018
 6442TIP3    H140817   1.575   5.937  15.095  0.0525 -0.7570  0.6353
 6442TIP3    H240818   1.426   5.956  15.070  0.0392 -1.6677  0.0104
 6443TIP3   OH240819   1.134   3.708   1.752 -0.1149  0.5248 -0.1279
 6443TIP3    H140820   1.073   3.635   1.757  1.5326 -0.9679 -1.3339
 6443TIP3    H240821   1.115   3.760   1.830 -2.0237 -0.6072  0.1908
 6444TIP3   OH240822   4.489   3.207  13.520 -0.0031 -0.3088  0.1617
 6444TIP3    H140823   4.536   3.163  13.591  0.0326  0.3742  0.5620
 6444TIP3    H240824   4.557   3.239  13.462  0.0539  0.9029  0.8724
 6445TIP3   OH240825   6.660   1.858   5.364  0.6188  0.2586 -0.8598
 6445TIP3    H140826   6.682   1.914   5.289  0.7557  0.2785 -0.8065
 6445TIP3    H240827   6.745   1.828   5.397  0.6054  0.8308 -0.2735
 6446TIP3   OH240828   1.293   6.033  11.746 -0.0272 -0.2923 -0.4439
 6446TIP3    H140829   1.376   6.071  11.719  0.3211 -0.5420  0.2379
 6446TIP3    H240830   1.230   6.060  11.680  0.0188  2.2283  0.4891
 6447TIP3   OH240831   6.240   3.803  13.055  0.1812 -0.0292 -0.2363
 6447TIP3    H140832   6.165   3.844  13.099  0.0227  1.3971 -1.7687
 6447TIP3    H240833   6.306   3.793  13.124  0.0404  2.4029  0.3014
 6448TIP3   OH240834   1.924   5.753  13.964  0.8523  0.2506  0.0104
 6448TIP3    H140835   1.852   5.816  13.955  1.0798  0.3803 -0.9108
 6448TIP3    H240836   1.911   5.715  14.051 -1.0353 -0.5860 -0.6196
 6449TIP3   OH240837   3.683   4.299  15.500 -0.3071  0.0001  0.4344
 6449TIP3    H140838   3.731   4.218  15.483 -1.5258 -0.2116 -2.1874
 6449TIP3    H240839   3.591   4.273  15.496 -0.6922  1.3159  0.6112
 6450TIP3   OH240840   1.315   1.160  11.626 -0.1250  0.0311  0.0839
 6450TIP3    H140841   1.232   1.164  11.579 -0.2631  0.1492  0.3376
 6450TIP3    H240842   1.377   1.126  11.562  0.3469  2.9857 -1.0658
 6451TIP3   OH240843   6.804   6.753  12.603 -0.1673  0.0452 -0.0633
 6451TIP3    H140844   6.778   6.811  12.531 -1.3855  1.8250  1.7704
 6451TIP3    H240845   6.899   6.764  12.609  0.4972 -2.7906 -3.6149
 6452TIP3   OH240846   0.433   6.768  12.216  0.1553 -0.2887  0.2700
 6452TIP3    H140847   0.453   6.840  12.276 -3.2092 -0.8431  2.1498
 6452TIP3    H240848   0.434   6.808  12.129  2.7960  1.0227  0.8649
 6453TIP3   OH240849   1.321   0.004  11.048 -0.7967 -0.0347  0.3656
 6453TIP3    H140850   1.356  -0.074  11.091 -1.8270  0.2985  1.8551
 6453TIP3    H240851   1.354   0.077  11.101  0.2106  0.5464 -1.0535
 6454TIP3   OH240852   1.667   2.196  16.061 -0.0039  0.5651  0.0134
 6454TIP3    H140853   1.654   2.270  16.120  1.0138 -0.1492  1.1681
 6454TIP3    H240854   1.588   2.193  16.008 -1.2921  0.7901  1.8445
 6455TIP3   OH240855   1.935   4.621   5.861 -0.4155 -0.7931  0.4256
 6455TIP3    H140856   1.847   4.586   5.870 -0.8121  0.0150 -0.2672
 6455TIP3    H240857   1.956   4.612   5.768  0.4026 -1.3705  0.6551
 6456TIP3   OH240858   0.226   0.681  15.973 -0.0277  0.0708 -0.4027
 6456TIP3    H140859   0.209   0.601  16.021 -1.7042  1.7354  1.8944
 6456TIP3    H240860   0.212   0.751  16.037  0.6965  2.2265 -2.5204
 6457TIP3   OH240861   6.535   3.034  15.878 -0.0372 -0.1481  0.3409
 6457TIP3    H140862   6.569   3.033  15.788  0.0277 -2.6549  0.3456
 6457TIP3    H240863   6.546   3.124  15.907  2.0993  0.1862 -1.3721
 6458TIP3   OH240864   3.443   0.615   3.873  0.3212 -0.1958  0.0985
 6458TIP3    H140865   3.425   0.561   3.796 -1.3041 -0.6357  0.7503
 6458TIP3    H240866   3.522   0.578   3.911  0.5986 -0.5749 -0.8307
 6459TIP3   OH240867   3.638   2.321  15.869  0.2837 -0.5835  0.0797
 6459TIP3    H140868   3.701   2.323  15.797  0.8539  0.7664  0.6063
 6459TIP3    H240869   3.685   2.361  15.943 -0.5827 -1.1934  0.9706
 6460TIP3   OH240870   2.193   0.849  15.618  0.4979 -0.8307  0.0704
 6460TIP3    H140871   2.259   0.900  15.665 -0.2449 -0.1848  0.4115
 6460TIP3    H240872   2.169   0.778  15.678  1.9911 -1.9864 -0.6457
 6461TIP3   OH240873   0.884   0.918  11.550 -0.2071  0.3704  0.1678
 6461TIP3    H140874   0.942   0.864  11.496  0.1287  0.5238  0.3789
 6461TIP3    H240875   0.802   0.869  11.552  0.0235 -0.0180  0.1648
 6462TIP3   OH240876   3.586   1.897  16.769 -0.3604  0.5309  0.1485
 6462TIP3    H140877   3.543   1.979  16.794 -1.8181 -0.8732  2.4495
 6462TIP3    H240878   3.659   1.889  16.829 -0.2613  0.1029 -0.0263
 6463TIP3   OH240879   3.550   6.810   2.509 -0.0619 -0.2284  0.0422
 6463TIP3    H140880   3.498   6.863   2.449 -0.3884 -0.9951 -0.3460
 6463TIP3    H240881   3.612   6.764   2.452  1.2491  0.9014  0.5200
 6464TIP3   OH240882   2.316   4.973  13.709 -0.3094 -1.0687  1.0877
 6464TIP3    H140883   2.375   4.966  13.783 -1.4237  1.0350  2.2414
 6464TIP3    H240884   2.240   4.919  13.733 -0.3498 -0.9813  1.1583
 6465TIP3   OH240885   0.668   1.699  11.781 -0.6450 -0.0320  0.0206
 6465TIP3    H140886   0.645   1.612  11.750  0.3955 -0.0856 -0.6544
 6465TIP3    H240887   0.753   1.717  11.740 -0.0252  0.5872  1.5200
 6466TIP3   OH240888   4.306   5.293   0.165  0.1592  0.2385 -0.2303
 6466TIP3    H140889   4.260   5.289   0.081 -0.3390  1.0208 -0.0108
 6466TIP3    H240890   4.297   5.205   0.202 -4.2330  1.2202  1.3607
 6467TIP3   OH240891   3.659   3.233   6.301  0.2024 -0.4540 -0.2091
 6467TIP3    H140892   3.731   3.279   6.255  1.6151 -0.0241  2.3490
 6467TIP3    H240893   3.701   3.157   6.340 -1.0850 -1.0579  0.0091
 6468TIP3   OH240894   6.485   6.395   3.384 -0.3267  0.7944 -0.3400
 6468TIP3    H140895   6.548   6.327   3.409 -1.5687  0.4505  2.0860
 6468TIP3    H240896   6.499   6.408   3.291  1.9233 -0.7289 -0.2678
 6469TIP3   OH240897   1.795   5.344  13.147 -0.3746  0.1041  0.1061
 6469TIP3    H140898   1.814   5.390  13.229 -0.4789  0.4996 -0.0890
 6469TIP3    H240899   1.857   5.272  13.145  0.7664  1.0773 -0.2718
 6470TIP3   OH240900   5.429   2.890  11.974  0.2567  0.4970 -0.2577
 6470TIP3    H140901   5.424   2.795  11.964 -0.9713  0.4948  0.3419
 6470TIP3    H240902   5.516   2.905  12.011  0.1961 -0.4585  0.2998
 6471TIP3   OH240903   4.774   4.151  13.366  0.6298  0.2731 -0.3665
 6471TIP3    H140904   4.786   4.208  13.442  2.8151 -0.2233 -0.2815
 6471TIP3    H240905   4.774   4.210  13.291 -0.8979  0.7067 -0.0333
 6472TIP3   OH240906   6.190   3.291  11.614 -0.2036 -0.2112 -0.3645
 6472TIP3    H140907   6.228   3.263  11.531  0.2755  0.6442 -0.4337
 6472TIP3    H240908   6.260   3.279  11.678 -0.4608 -0.5391 -0.1461
 6473TIP3   OH240909   1.231   2.051   1.430  0.2400  0.0922 -0.9527
 6473TIP3    H140910   1.159   2.112   1.446  0.1375 -0.1625 -0.4319
 6473TIP3    H240911   1.190   1.975   1.389 -0.1359 -0.9458  1.2682
 6474TIP3   OH240912   3.401   2.466  15.940  0.2687  0.0422  0.6199
 6474TIP3    H140913   3.453   2.518  15.879  0.6229 -1.0263 -0.0120
 6474TIP3    H240914   3.444   2.381  15.942 -1.3498 -0.8138  0.1988
 6475TIP3   OH240915   4.129   3.603   4.010  0.3363 -0.1265 -0.0683
 6475TIP3    H140916   4.078   3.576   3.933  0.2303 -3.3556  1.0465
 6475TIP3    H240917   4.211   3.554   4.003  0.6402  0.1294  1.4449
 6476TIP3   OH240918   5.117   0.119  14.853 -0.0967  0.4959 -0.3107
 6476TIP3    H140919   5.044   0.179  14.839 -0.5904 -0.3677 -1.4728
 6476TIP3    H240920   5.177   0.137  14.780  0.4549  0.6050  0.1635
 6477TIP3   OH240921   5.690   6.176  15.122  0.0313 -0.0128  0.8388
 6477TIP3    H140922   5.731   6.262  15.136 -1.7680  0.6710  2.0804
 6477TIP3    H240923   5.630   6.166  15.195 -1.8750 -1.0649 -0.8146
 6478TIP3   OH240924   4.736   0.247   0.863 -0.2537  0.1525  0.4428
 6478TIP3    H140925   4.675   0.222   0.793  0.5021  2.3115 -1.0461
 6478TIP3    H240926   4.682   0.296   0.925  0.0863  3.2476 -1.5407
 6479TIP3   OH240927   0.752   6.320   5.015 -0.8596  0.6698  0.1723
 6479TIP3    H140928   0.808   6.306   4.939  1.8403  0.3972  2.1340
 6479TIP3    H240929   0.813   6.327   5.089 -3.3517  1.6978  2.2101
 6480TIP3   OH240930   2.938   4.703   5.688  0.2990  0.5295 -0.3146
 6480TIP3    H140931   2.885   4.773   5.650 -0.6517 -0.3420 -0.6025
 6480TIP3    H240932   2.906   4.695   5.778  0.4340  0.4832 -0.2709
 6481TIP3   OH240933   1.939   1.633  11.825 -0.1909 -0.1864  0.5100
 6481TIP3    H140934   1.903   1.574  11.759  1.9599 -0.6687 -0.2753
 6481TIP3    H240935   1.934   1.720  11.786  5.6247 -0.9734 -2.5004
 6482TIP3   OH240936   3.266   5.401   3.498  0.3107 -0.1772  0.1953
 6482TIP3    H140937   3.324   5.325   3.504 -0.4223 -0.6832  1.0631
 6482TIP3    H240938   3.212   5.384   3.421  0.7717 -0.0877 -0.1498
 6483TIP3   OH240939   1.545   2.288  11.173  0.3232 -0.3251  0.7739
 6483TIP3    H140940   1.586   2.230  11.238  1.7246 -0.1815  0.0417
 6483TIP3    H240941   1.580   2.375  11.194  0.9471 -0.3148 -0.2990
 6484TIP3   OH240942   2.333   2.163  11.504  0.2095 -0.1880  0.0191
 6484TIP3    H140943   2.385   2.087  11.530 -2.4703 -2.3595 -0.7045
 6484TIP3    H240944   2.354   2.230  11.569  2.1898 -1.7167  1.0149
 6485TIP3   OH240945   4.389   2.615  14.309 -0.2610 -0.1015 -0.4093
 6485TIP3    H140946   4.375   2.708  14.329  0.7293  0.5063 -2.3710
 6485TIP3    H240947   4.386   2.571  14.394 -1.3253  1.6434  0.4891
 6486TIP3   OH240948   3.889   5.608   5.400 -0.6013 -0.3877  0.2385
 6486TIP3    H140949   3.886   5.641   5.490 -0.8119  1.1168 -0.2873
 6486TIP3    H240950   3.973   5.639   5.366  0.1425 -2.2164  0.3606
 6487TIP3   OH240951   6.337   5.483  12.195  0.1816  0.3494 -0.2733
 6487TIP3    H140952   6.255   5.474  12.244  0.8426  0.9609  0.9583
 6487TIP3    H240953   6.335   5.410  12.133 -0.8242 -0.2372  0.4217
 6488TIP3   OH240954   6.486   0.851  10.829 -0.2148  0.2155  0.4547
 6488TIP3    H140955   6.393   0.833  10.815 -0.7847  1.7109  2.1987
 6488TIP3    H240956   6.493   0.946  10.824  1.0043  0.1944  1.5948
 6489TIP3   OH240957   3.635   3.383   5.091 -0.0735 -0.2486 -0.0835
 6489TIP3    H140958   3.702   3.449   5.107 -0.5512  0.1111  0.4660
 6489TIP3    H240959   3.602   3.403   5.003  1.5913 -1.3671 -0.9867
 6490TIP3   OH240960   0.854   5.197   5.647 -0.1792 -0.4701  0.3243
 6490TIP3    H140961   0.774   5.146   5.647  0.4983 -1.5401  0.1221
 6490TIP3    H240962   0.858   5.235   5.735 -0.8367 -0.5044  0.3704
 6491TIP3   OH240963   6.275   1.382   5.646  0.4790 -0.3154  0.0465
 6491TIP3    H140964   6.316   1.445   5.706  1.0115  0.2753 -0.9207
 6491TIP3    H240965   6.181   1.398   5.655  0.5402 -0.4366  0.9425
 6492TIP3   OH240966   5.487   4.296  14.950  0.0955 -0.4120 -0.2833
 6492TIP3    H140967   5.468   4.202  14.947 -1.6561 -0.0312 -1.4582
 6492TIP3    H240968   5.558   4.308  14.887 -1.1087 -0.6383 -1.7082
 6493TIP3   OH240969   3.013   4.853   5.366 -0.0624  0.2028 -0.6989
 6493TIP3    H140970   2.948   4.866   5.435  0.0867 -0.1164 -0.4906
 6493TIP3    H240971   3.081   4.799   5.408  1.3976  2.3337 -0.2506
 6494TIP3   OH240972   2.239   6.081   6.640 -0.0686 -0.0986 -0.1084
 6494TIP3    H140973   2.167   6.023   6.616 -0.2100 -0.1733  0.4706
 6494TIP3    H240974   2.221   6.162   6.594  0.0799 -0.4884 -0.8504
 6495TIP3   OH240975   5.688   4.991  17.271 -0.1643  0.0665 -0.2298
 6495TIP3    H140976   5.689   5.032  17.184 -2.5141 -0.3605 -0.5005
 6495TIP3    H240977   5.596   4.974  17.288  0.2411  0.2704  2.4317
 6496TIP3   OH240978   3.161   2.162  15.960  0.3253 -0.3773 -0.4539
 6496TIP3    H140979   3.138   2.070  15.953 -0.3021 -0.5378  2.8309
 6496TIP3    H240980   3.232   2.174  15.897 -0.9806 -2.5662 -2.4267
 6497TIP3   OH240981   4.458   1.085  15.207  0.1462 -0.1125  0.0261
 6497TIP3    H140982   4.511   1.099  15.128 -1.1087 -0.9275 -0.9758
 6497TIP3    H240983   4.481   0.996  15.235  1.0008  0.3792  0.9035
 6498TIP3   OH240984   4.504   2.922  12.036  0.0451 -0.0089 -0.0925
 6498TIP3    H140985   4.516   3.001  12.089  0.6082  0.1196 -0.4017
 6498TIP3    H240986   4.536   2.851  12.091  0.7350  0.1382 -0.2935
 6499TIP3   OH240987   6.311   0.233  12.206  0.6012 -0.4396  0.3381
 6499TIP3    H140988   6.306   0.138  12.213 -0.2989 -0.3617  0.7997
 6499TIP3    H240989   6.354   0.249  12.122 -0.2470 -1.2365 -0.2509
 6500TIP3   OH240990   4.073   2.191   5.408 -0.0521  0.1466 -0.6554
 6500TIP3    H140991   4.092   2.097   5.402 -0.6468 -0.0717  0.6896
 6500TIP3    H240992   4.158   2.232   5.422  0.0624 -0.3112  0.0007
 6501TIP3   OH240993   5.194   5.449   0.688  0.0675 -0.4298 -0.2106
 6501TIP3    H140994   5.147   5.462   0.771 -0.1067  0.5060 -0.4438
 6501TIP3    H240995   5.285   5.472   0.707  0.1243 -0.7144 -0.1462
 6502TIP3   OH240996   2.672   3.913   6.106  0.1712  0.1736  0.1821
 6502TIP3    H140997   2.713   3.868   6.032  0.9234 -0.0867  0.7636
 6502TIP3    H240998   2.605   3.853   6.137  0.6462 -0.2137  0.4574
 6503TIP3   OH240999   5.798   3.063   1.369  0.2509  0.0251 -0.2503
 6503TIP3    H141000   5.743   3.066   1.447  0.1794 -1.2143 -0.2284
 6503TIP3    H241001   5.739   3.082   1.296  0.2639  0.9376 -0.0196
 6504TIP3   OH241002   5.040   3.251  12.448  0.3709  0.0805 -0.4350
 6504TIP3    H141003   5.097   3.311  12.495 -1.6271  0.8157  1.1370
 6504TIP3    H241004   5.032   3.175  12.507 -1.2063  0.4946 -0.1100
 6505TIP3   OH241005   3.424   6.610   3.940  0.3898  0.6050  0.4059
 6505TIP3    H141006   3.405   6.689   3.890 -0.9720  0.1380  0.1676
 6505TIP3    H241007   3.503   6.574   3.899 -0.1094  0.7855 -0.7367
 6506TIP3   OH241008   0.985   3.045  16.446  0.4270 -0.3338 -0.2247
 6506TIP3    H141009   0.929   2.971  16.470  1.3079 -1.5966 -1.9791
 6506TIP3    H241010   0.927   3.121  16.449 -0.8261 -1.2908  0.1905
 6507TIP3   OH241011   0.369   1.001  10.399  0.2099 -0.3991  0.1206
 6507TIP3    H141012   0.408   1.088  10.392 -0.9865  0.3810  2.5088
 6507TIP3    H241013   0.301   0.999  10.333  0.4721  0.3623 -0.1737
 6508TIP3   OH241014   1.685   5.944   2.515 -0.0218 -0.1177 -0.0821
 6508TIP3    H141015   1.674   6.024   2.566  3.7674  2.1969 -2.6631
 6508TIP3    H241016   1.655   5.968   2.427 -1.5870 -2.4658 -0.2254
 6509TIP3   OH241017   5.077   3.763  16.700  0.1886  0.5550  0.4487
 6509TIP3    H141018   5.072   3.672  16.729  0.1434 -0.0292 -1.3102
 6509TIP3    H241019   4.986   3.789  16.687  0.2916 -0.0554 -1.6841
 6510TIP3   OH241020   0.656   3.618   1.590  0.4817  0.4949  0.0651
 6510TIP3    H141021   0.583   3.638   1.532  1.2906 -0.1802 -1.2117
 6510TIP3    H241022   0.618   3.619   1.678 -1.5733 -2.0466 -0.7367
 6511TIP3   OH241023   5.508   1.560   6.291  0.3647 -0.2881  0.0755
 6511TIP3    H141024   5.414   1.576   6.304 -0.3095 -2.7777 -1.4269
 6511TIP3    H241025   5.547   1.647   6.292 -2.3783  1.0744 -2.3305
 6512TIP3   OH241026   5.128   2.303   4.543  0.4114 -0.4451 -0.0930
 6512TIP3    H141027   5.079   2.222   4.528  2.1710 -1.7395  0.9460
 6512TIP3    H241028   5.153   2.332   4.456 -0.9417 -0.5670 -0.5329
 6513TIP3   OH241029   6.461   6.297   4.664  0.3511 -0.0033  0.1440
 6513TIP3    H141030   6.544   6.272   4.706  0.7453  0.9042 -0.0832
 6513TIP3    H241031   6.446   6.229   4.598  1.1007  0.0245 -0.0647
 6514TIP3   OH241032   4.777   4.396  14.929 -0.4710 -0.1797  0.7442
 6514TIP3    H141033   4.786   4.429  14.839 -0.0472  2.1169  1.5864
 6514TIP3    H241034   4.861   4.355  14.948  0.0658  0.8693  0.6770
 6515TIP3   OH241035   0.603   5.693  11.179 -0.0997 -0.4607 -0.9459
 6515TIP3    H141036   0.641   5.607  11.162 -0.3257 -0.7161 -0.1818
 6515TIP3    H241037   0.613   5.741  11.096  0.0190 -1.2229 -1.3720
 6516TIP3   OH241038   0.245   6.651   1.716  0.1415 -0.0810 -0.0597
 6516TIP3    H141039   0.282   6.733   1.682 -0.5614  0.3203  0.1166
 6516TIP3    H241040   0.180   6.680   1.780 -2.0419 -0.6796 -1.9174
 6517TIP3   OH241041   0.415   5.803   5.329  0.2650  0.0121  0.0086
 6517TIP3    H141042   0.474   5.827   5.400 -0.6096  1.1804  0.3718
 6517TIP3    H241043   0.372   5.723   5.358  3.1227 -1.9979 -1.1357
 6518TIP3   OH241044   1.049   2.692  15.876  0.3489 -0.3146  0.0561
 6518TIP3    H141045   0.956   2.683  15.896  0.0315  1.0984 -0.7258
 6518TIP3    H241046   1.091   2.621  15.924 -1.2305 -1.5021 -0.2883
 6519TIP3   OH241047   2.756   5.483  11.742  0.0028 -0.2821 -0.1193
 6519TIP3    H141048   2.704   5.436  11.676 -1.6283 -0.6894  1.4072
 6519TIP3    H241049   2.691   5.528  11.796  1.4361  1.9717 -0.1947
 6520TIP3   OH241050   5.425   4.552  11.588 -0.1615  0.2118 -0.0052
 6520TIP3    H141051   5.353   4.507  11.542 -0.1735  0.8456 -0.6047
 6520TIP3    H241052   5.417   4.643  11.561  0.5116  0.3856  0.3920
 6521TIP3   OH241053   1.549   1.124  12.040  0.1472 -0.1071 -0.2630
 6521TIP3    H141054   1.587   1.114  11.953  0.0885 -0.6937 -0.2189
 6521TIP3    H241055   1.467   1.171  12.024 -0.6099 -1.5512 -0.6999
 6522TIP3   OH241056   0.643   4.410   3.999  0.1267 -0.0051 -0.1809
 6522TIP3    H141057   0.720   4.353   3.995 -0.3416 -0.6927  0.3204
 6522TIP3    H241058   0.664   4.484   3.942  0.4048 -1.0960 -1.5141
 6523TIP3   OH241059   1.469   2.743  13.468  0.4998 -0.1030  0.3003
 6523TIP3    H141060   1.394   2.769  13.521  0.4780 -1.8008  1.1394
 6523TIP3    H241061   1.536   2.717  13.532  2.4917  3.0693 -0.3704
 6524TIP3   OH241062   5.023   5.042  13.468  0.0340  0.2541  0.0736
 6524TIP3    H141063   5.110   5.077  13.487  0.8837 -0.7374 -1.8517
 6524TIP3    H241064   4.999   5.081  13.384 -0.8942 -0.3627  0.0380
 6525TIP3   OH241065   5.324   5.612  12.844 -0.0894  0.5144  0.6899
 6525TIP3    H141066   5.314   5.537  12.784 -1.8979  0.8857  0.4889
 6525TIP3    H241067   5.248   5.606  12.902  0.8900  0.9869  2.0379
 6526TIP3   OH241068   0.938   5.951   4.355 -0.1459  0.3496  0.4498
 6526TIP3    H141069   0.999   5.897   4.304  0.3256  1.6134 -0.3534
 6526TIP3    H241070   0.893   5.889   4.412  0.1222 -0.9416 -0.7112
 6527TIP3   OH241071   6.494   1.736   0.915 -0.4163 -0.0817  0.2431
 6527TIP3    H141072   6.526   1.775   0.833 -1.5095  1.7730  0.6824
 6527TIP3    H241073   6.494   1.641   0.898  2.0559  0.0891 -0.9258
 6528TIP3   OH241074   0.948   0.175  16.755 -0.0979  0.1431  0.4159
 6528TIP3    H141075   0.922   0.149  16.667 -2.7914  1.4331  0.8095
 6528TIP3    H241076   1.030   0.128  16.770  1.0796  0.8872 -3.2363
 6529TIP3   OH241077   5.354   5.674  16.101  0.0677 -0.4172  0.8003
 6529TIP3    H141078   5.328   5.673  16.193 -0.2324  1.0038  0.7335
 6529TIP3    H241079   5.340   5.764  16.072  1.5757 -0.4909 -0.2439
 6530TIP3   OH241080   1.771   3.349  13.923  0.2003  0.2882 -0.1042
 6530TIP3    H141081   1.828   3.294  13.976  0.4426  2.0281  1.5103
 6530TIP3    H241082   1.685   3.340  13.964  0.3621  1.5511  0.5389
 6531TIP3   OH241083   6.005   2.032  14.674  0.2776  0.0167 -0.1284
 6531TIP3    H141084   6.057   1.955  14.693 -0.3043  0.1595  2.2288
 6531TIP3    H241085   5.918   1.998  14.654  0.4533 -0.0445 -0.7728
 6532TIP3   OH241086   0.067   0.531  13.142  0.3683 -0.1764 -0.0437
 6532TIP3    H141087   0.062   0.537  13.238  0.3639 -0.2062 -0.0420
 6532TIP3    H241088   0.108   0.446  13.125  0.5861 -0.0669 -0.0633
 6533TIP3   OH241089   0.850   0.556  13.441  0.5991  0.6638 -0.8461
 6533TIP3    H141090   0.928   0.547  13.387  1.7297  2.5701  0.4115
 6533TIP3    H241091   0.822   0.647  13.427 -0.6045  0.3894 -0.2637
 6534TIP3   OH241092   0.223   0.352  16.796  0.4628  0.5802  0.3351
 6534TIP3    H141093   0.196   0.417  16.862  1.1778 -0.2140  1.4388
 6534TIP3    H241094   0.155   0.356  16.729 -0.6357  0.9638  1.4447
 6535TIP3   OH241095   2.439   0.237  16.283  0.5219  0.1423  0.6415
 6535TIP3    H141096   2.484   0.314  16.249  1.3268 -0.1130  1.1332
 6535TIP3    H241097   2.414   0.261  16.372 -1.1242  0.6137  0.0828
 6536TIP3   OH241098   3.663   0.413  14.874 -0.3415 -0.7552  0.2806
 6536TIP3    H141099   3.631   0.419  14.964  2.2875 -1.3916  1.2822
 6536TIP3    H241100   3.665   0.320  14.855  0.0003 -0.6646 -0.1359
 6537TIP3   OH241101   0.064   6.581  16.943  0.0478  0.3542  0.4955
 6537TIP3    H141102   0.043   6.607  16.853  1.3793  1.2605  0.4331
 6537TIP3    H241103   0.087   6.489  16.937  1.7994  0.8261 -0.3902
 6538TIP3   OH241104   4.140   5.482   3.659  0.4080  0.2957  0.7318
 6538TIP3    H141105   4.101   5.565   3.687 -0.7827 -0.2264  0.6423
 6538TIP3    H241106   4.195   5.455   3.733  0.2818  0.8339  1.0218
 6539TIP3   OH241107   5.816   2.426  12.803  0.1857  0.2969  0.3262
 6539TIP3    H141108   5.727   2.454  12.820  0.4560  1.4968 -0.1336
 6539TIP3    H241109   5.851   2.492  12.743  0.5699 -1.5123 -1.5431
 6540TIP3   OH241110   2.617   3.942   3.609  0.2084 -0.1625  0.5249
 6540TIP3    H141111   2.654   3.862   3.648  1.3493 -0.2577 -0.7346
 6540TIP3    H241112   2.607   3.921   3.516 -1.9346  0.2735  0.6364
 6541TIP3   OH241113   2.273   6.347   5.714  0.1954  0.2796 -0.7071
 6541TIP3    H141114   2.225   6.400   5.651 -0.8699 -2.4057 -2.2304
 6541TIP3    H241115   2.363   6.379   5.708 -0.0543  0.6073 -3.0066
 6542TIP3   OH241116   1.145   1.675  16.544  0.1794 -0.5884 -0.1298
 6542TIP3    H141117   1.217   1.671  16.607 -0.0869 -2.1130  0.0913
 6542TIP3    H241118   1.187   1.680  16.459  0.5361  0.1423  0.0791
 6543TIP3   OH241119   3.596   3.788  13.704 -0.1661 -0.1915 -0.2401
 6543TIP3    H141120   3.599   3.848  13.777  0.8713  0.3714 -0.7299
 6543TIP3    H241121   3.505   3.790  13.674  0.0033  1.6534 -0.6809
 6544TIP3   OH241122   0.188   2.931   4.548  0.2335  0.3285  0.2265
 6544TIP3    H141123   0.178   3.026   4.554  0.8512  0.3821  0.3907
 6544TIP3    H241124   0.104   2.897   4.579 -0.4013  0.8360 -0.8898
 6545TIP3   OH241125   1.586   2.696   1.012 -0.8914  0.3332  0.0748
 6545TIP3    H141126   1.518   2.653   0.961  0.9842 -1.8265 -0.6763
 6545TIP3    H241127   1.589   2.646   1.094 -0.5040  0.6884  0.2782
 6546TIP3   OH241128   6.397   1.945  12.780 -0.3968 -0.0241 -0.3935
 6546TIP3    H141129   6.445   1.919  12.859 -1.5639 -0.1297  0.2925
 6546TIP3    H241130   6.376   1.863  12.736  1.7814  0.1023 -1.7652
 6547TIP3   OH241131   5.482   2.110  11.217 -0.6862 -0.5085 -0.0547
 6547TIP3    H141132   5.493   2.204  11.228 -0.2874 -0.7036  1.2685
 6547TIP3    H241133   5.393   2.100  11.183 -1.3209  0.2479  1.3582
 6548TIP3   OH241134   4.464   0.731   5.471 -0.0795  0.1025  0.5339
 6548TIP3    H141135   4.444   0.807   5.526 -1.6620 -1.3285  2.0149
 6548TIP3    H241136   4.420   0.658   5.515  0.4616 -1.4712 -1.4723
 6549TIP3   OH241137   0.868   2.723   5.133  0.2045  0.1908  0.0180
 6549TIP3    H141138   0.937   2.742   5.197  0.2159  0.0483  0.0493
 6549TIP3    H241139   0.865   2.627   5.129 -0.6503  0.1833  0.7387
 6550TIP3   OH241140   6.618   1.110  17.202  0.0074 -0.1637 -0.2595
 6550TIP3    H141141   6.591   1.027  17.161 -0.1844 -0.2403  0.0262
 6550TIP3    H241142   6.658   1.084  17.285 -3.6140  0.2663  1.7246
 6551TIP3   OH241143   6.734   6.408   5.065  0.6667  0.2066 -0.5709
 6551TIP3    H141144   6.674   6.384   5.135  2.3907 -0.4236  0.7539
 6551TIP3    H241145   6.782   6.327   5.046  1.3094  0.7674 -1.3632
 6552TIP3   OH241146   6.606   5.833   0.050 -0.4198 -0.4338  0.1662
 6552TIP3    H141147   6.522   5.788   0.044  0.8779 -2.8106 -1.3288
 6552TIP3    H241148   6.633   5.845  -0.041  0.0305  1.9473  0.5957
 6553TIP3   OH241149   3.430   3.407   6.294  0.1709 -0.2153  0.4156
 6553TIP3    H141150   3.467   3.486   6.334 -1.6294  0.4196  0.8421
 6553TIP3    H241151   3.506   3.351   6.277  1.3427  1.1317  1.1582
 6554TIP3   OH241152   1.173   6.346  12.478  0.1061  0.5217 -0.2109
 6554TIP3    H141153   1.126   6.362  12.559  0.7396 -0.7270  0.4247
 6554TIP3    H241154   1.117   6.285  12.429  0.5020 -0.0372  0.0279
 6555TIP3   OH241155   4.116   5.217   0.768 -0.0256  0.0622 -0.7114
 6555TIP3    H141156   4.106   5.281   0.697  1.3114  0.7691 -0.2773
 6555TIP3    H241157   4.137   5.135   0.724  1.0877  0.5633 -1.1209
 6556TIP3   OH241158   5.188   3.705  15.288 -0.2196 -0.5961 -0.0426
 6556TIP3    H141159   5.241   3.741  15.359 -0.2983  1.0620 -0.8055
 6556TIP3    H241160   5.253   3.681  15.220 -0.2446 -1.0505  0.0884
 6557TIP3   OH241161   3.373   5.694  11.589 -0.1306  0.2452  0.0068
 6557TIP3    H141162   3.292   5.643  11.589  0.6308 -0.9839 -0.0708
 6557TIP3    H241163   3.429   5.650  11.653  1.1180  0.0431 -1.2069
 6558TIP3   OH241164   4.657   5.565   4.649 -0.1058 -0.2710  0.5038
 6558TIP3    H141165   4.711   5.642   4.663 -0.2329  0.1368 -1.1784
 6558TIP3    H241166   4.682   5.505   4.719 -0.2779  1.4223  2.0553
 6559TIP3   OH241167   4.134   4.043  15.967 -0.0742  0.3996 -0.0366
 6559TIP3    H141168   4.071   4.082  16.027 -0.8153 -1.1347  0.2021
 6559TIP3    H241169   4.217   4.044  16.015 -0.2200  1.0646  0.2107
 6560TIP3   OH241170   4.524   4.954  16.513  0.3075 -0.5624  0.1937
 6560TIP3    H141171   4.518   4.871  16.465  2.0844  0.2821 -1.5099
 6560TIP3    H241172   4.494   5.020  16.451 -3.5368 -0.1021  2.3233
 6561TIP3   OH241173   2.143   5.568   7.030 -0.1086 -0.5471  0.3693
 6561TIP3    H141174   2.103   5.528   6.953  0.9414 -0.7100 -0.0975
 6561TIP3    H241175   2.070   5.584   7.090 -0.6421 -2.5752  0.2958
 6562TIP3   OH241176   3.032   2.692   1.527  0.4310 -0.1858  0.3669
 6562TIP3    H141177   2.971   2.644   1.583  0.5178 -0.9271 -0.1740
 6562TIP3    H241178   3.113   2.641   1.530  0.6232  0.1012  0.0517
 6563TIP3   OH241179   6.079   4.203  12.742 -0.4660  0.2954 -0.5773
 6563TIP3    H141180   6.135   4.279  12.759 -0.3365 -0.0440  0.5363
 6563TIP3    H241181   6.080   4.194  12.647  1.0450  0.5586 -0.6080
 6564TIP3   OH241182   6.421   5.257  14.520 -0.5427  0.7837  0.3883
 6564TIP3    H141183   6.441   5.279  14.429 -1.1169 -0.6960 -0.1049
 6564TIP3    H241184   6.455   5.168  14.530 -1.2210  0.6431  1.3902
 6565TIP3   OH241185   0.621   6.707  15.680  0.2750 -0.1359 -0.0252
 6565TIP3    H141186   0.696   6.650  15.666  0.8318  0.8125 -0.8767
 6565TIP3    H241187   0.657   6.787  15.718 -0.5497 -0.4809  1.5322
 6566TIP3   OH241188   0.344   2.560  14.057 -0.5414  0.1691 -0.5519
 6566TIP3    H141189   0.296   2.488  14.016 -1.2202 -0.1547  0.7851
 6566TIP3    H241190   0.396   2.518  14.126  0.2676  0.7532 -0.8045
 6567TIP3   OH241191   5.704   5.159  16.089 -0.0231 -1.0744 -0.4336
 6567TIP3    H141192   5.794   5.145  16.059  0.2514  0.9111 -0.6624
 6567TIP3    H241193   5.668   5.072  16.102  1.4633 -1.9004 -1.7704
 6568TIP3   OH241194   4.976   6.240   0.066 -0.9845  0.0878 -0.4393
 6568TIP3    H141195   4.927   6.162   0.094 -0.1557  0.4184  2.0359
 6568TIP3    H241196   5.068   6.216   0.078 -0.7009  1.1780 -0.3702
 6569TIP3   OH241197   1.022   6.674  11.093  0.2064  0.4677 -0.0815
 6569TIP3    H141198   1.115   6.696  11.093  0.5940 -1.0185  2.2626
 6569TIP3    H241199   0.989   6.712  11.012  3.0303  0.2837 -1.4064
 6570TIP3   OH241200   6.128   1.022  14.680 -0.1802 -0.6416 -0.7684
 6570TIP3    H141201   6.089   0.936  14.663  0.5351 -1.0156 -0.5356
 6570TIP3    H241202   6.112   1.039  14.773  1.1956 -1.3038 -0.4023
 6571TIP3   OH241203   3.513   5.706  13.440 -0.3750  0.0551 -0.0252
 6571TIP3    H141204   3.584   5.653  13.403 -0.8531  0.0055 -0.8927
 6571TIP3    H241205   3.556   5.786  13.469 -0.1763  0.6877 -1.9726
 6572TIP3   OH241206   0.551   6.552   0.428  0.4855 -0.0835  0.1371
 6572TIP3    H141207   0.511   6.611   0.365  0.7042 -1.1703 -1.0489
 6572TIP3    H241208   0.497   6.561   0.507  0.3543  1.4618 -0.1131
 6573TIP3   OH241209   6.743   2.197  13.641  0.2767 -0.5003  0.3394
 6573TIP3    H141210   6.674   2.181  13.706  1.6032 -0.6852  1.7232
 6573TIP3    H241211   6.696   2.207  13.559 -1.3092 -1.9476  1.0409
 6574TIP3   OH241212   0.198   2.289   5.314 -0.5229 -0.3806 -0.1108
 6574TIP3    H141213   0.187   2.252   5.227 -0.5887 -0.9473  0.1405
 6574TIP3    H241214   0.152   2.229   5.373 -1.8848  0.8762  0.1241
 6575TIP3   OH241215   3.196   1.162   5.493  0.0142 -0.1430 -0.1716
 6575TIP3    H141216   3.197   1.110   5.573 -1.3772 -1.4791 -0.9864
 6575TIP3    H241217   3.118   1.217   5.501  0.4225  0.4428 -0.1773
 6576TIP3   OH241218   6.626   5.695  10.852 -0.4124 -0.3945 -0.0965
 6576TIP3    H141219   6.663   5.739  10.928  2.3907 -1.3039 -0.8809
 6576TIP3    H241220   6.689   5.712  10.782 -2.1345 -0.9350 -1.8225
 6577TIP3   OH241221   0.234   4.432   0.998 -0.0059  0.7101 -0.5676
 6577TIP3    H141222   0.261   4.362   0.939  0.6861  0.2724  0.2525
 6577TIP3    H241223   0.141   4.447   0.977  0.1989  0.4683 -1.6546
 6578TIP3   OH241224   4.315   3.114  14.330  0.1794  0.4545  0.9927
 6578TIP3    H141225   4.305   3.108  14.235 -0.9787 -1.0193  1.1898
 6578TIP3    H241226   4.318   3.023  14.359  1.2912  0.8976  2.2933
 6579TIP3   OH241227   0.764   0.838  16.261  0.4947  0.6596 -0.7480
 6579TIP3    H141228   0.687   0.796  16.222 -0.3116  0.5610  0.9056
 6579TIP3    H241229   0.805   0.768  16.312  1.0855  0.9874 -0.7781
 6580TIP3   OH241230   1.434   5.638  12.094 -0.9428  0.0398  0.8535
 6580TIP3    H141231   1.420   5.732  12.082  2.0594  0.5572  1.0988
 6580TIP3    H241232   1.466   5.608  12.009  0.8740 -0.1859  1.6013
 6581TIP3   OH241233   1.610   1.097  16.427 -0.2229  0.2133  0.3981
 6581TIP3    H141234   1.702   1.122  16.420 -0.2961  0.6267  0.8898
 6581TIP3    H241235   1.598   1.072  16.518 -0.8433  1.1676  0.5890
 6582TIP3   OH241236   0.028   3.060  11.624  0.1370 -0.3352  0.0736
 6582TIP3    H141237  -0.053   3.046  11.673 -0.9957  1.0378 -1.3657
 6582TIP3    H241238   0.009   3.027  11.537  0.8711  0.6705 -0.4772
 6583TIP3   OH241239   6.001   1.823   6.144  0.2489 -0.2961  0.4389
 6583TIP3    H141240   5.927   1.780   6.188  0.3321  0.6065  1.4730
 6583TIP3    H241241   5.995   1.915   6.172  0.0202  0.4037 -1.8088
 6584TIP3   OH241242   0.850   4.839  16.683  0.0586  0.0832 -0.3781
 6584TIP3    H141243   0.917   4.834  16.614  2.1123  1.1117  1.4821
 6584TIP3    H241244   0.867   4.922  16.727  0.0127 -1.3859  2.5426
 6585TIP3   OH241245   1.668   4.862  13.149  0.0995 -0.6725 -0.6701
 6585TIP3    H141246   1.715   4.848  13.231  0.0860 -0.9386 -0.7051
 6585TIP3    H241247   1.600   4.926  13.170 -0.7047 -1.6649 -0.1667
 6586TIP3   OH241248   2.761   6.127  12.745  0.1845  0.0449 -0.1747
 6586TIP3    H141249   2.804   6.207  12.717  0.7752 -0.1863  0.0769
 6586TIP3    H241250   2.790   6.113  12.835 -0.9410  0.2524  0.2339
 6587TIP3   OH241251   3.336   2.305   5.629 -0.2464 -0.1752 -0.3975
 6587TIP3    H141252   3.303   2.283   5.716  0.0492  1.7036  0.2001
 6587TIP3    H241253   3.338   2.400   5.627 -0.9929 -0.1614 -2.7467
 6588TIP3   OH241254   1.185   6.632  14.726  0.3670  0.2876  0.0504
 6588TIP3    H141255   1.129   6.668  14.657  1.5563  1.1805 -0.4843
 6588TIP3    H241256   1.175   6.694  14.799 -1.0036 -0.7367  0.7426
 6589TIP3   OH241257   6.321   0.005  13.723 -0.5364 -0.3202 -0.2137
 6589TIP3    H141258   6.267  -0.071  13.744 -0.8967  0.2113  0.8240
 6589TIP3    H241259   6.406  -0.014  13.761 -0.4620 -0.4598 -0.4527
 6590TIP3   OH241260   2.953   4.779  15.363 -0.4385 -0.2162  0.3791
 6590TIP3    H141261   2.981   4.870  15.358  1.8491 -0.9767 -2.0150
 6590TIP3    H241262   3.015   4.738  15.423  0.2333 -0.7334 -0.6451
 6591TIP3   OH241263   1.333   2.479  14.097  0.1386  0.0780  0.2400
 6591TIP3    H141264   1.381   2.536  14.156  2.4615 -0.3974 -1.1249
 6591TIP3    H241265   1.395   2.459  14.027 -2.0488 -0.6027 -1.5698
 6592TIP3   OH241266   3.395   6.247  14.087 -0.2451  0.0232 -0.0123
 6592TIP3    H141267   3.417   6.237  14.180 -0.9338 -0.9310  0.0515
 6592TIP3    H241268   3.396   6.342  14.073 -0.2673  0.1839  1.0032
 6593TIP3   OH241269   2.185   3.171   4.442  0.3615  0.2066 -0.1688
 6593TIP3    H141270   2.161   3.148   4.532  1.4762  1.7982  0.5446
 6593TIP3    H241271   2.224   3.090   4.407 -0.3691 -0.5188  0.6597
 6594TIP3   OH241272   2.606   1.840  11.192 -0.0505  0.2080  0.3945
 6594TIP3    H141273   2.622   1.850  11.098  0.9505  2.0300  0.7197
 6594TIP3    H241274   2.511   1.848  11.202 -0.2290 -0.7621 -0.5412
 6595TIP3   OH241275   6.113   6.382   4.976 -0.1437  0.0611 -0.5503
 6595TIP3    H141276   6.199   6.422   4.965 -0.4921  0.8210 -0.5578
 6595TIP3    H241277   6.079   6.419   5.058  0.2772 -1.6082  0.3906
 6596TIP3   OH241278   2.853   0.327   3.852 -0.5351 -0.3645 -0.0379
 6596TIP3    H141279   2.792   0.255   3.836 -1.8778  0.3687  1.6591
 6596TIP3    H241280   2.925   0.285   3.900 -0.5799 -0.8786 -0.4106
 6597TIP3   OH241281   6.693   6.704   2.320  0.1771  0.6666  0.2035
 6597TIP3    H141282   6.754   6.657   2.377 -0.9441 -0.8356  0.1651
 6597TIP3    H241283   6.722   6.795   2.325  2.1992  0.0291  0.4841
 6598TIP3   OH241284   0.053   1.423  16.235 -0.0513  0.1361 -0.4041
 6598TIP3    H141285   0.030   1.510  16.268 -1.6494  0.1674 -1.5895
 6598TIP3    H241286  -0.019   1.367  16.263  1.0861 -0.8819  0.5659
 6599TIP3   OH241287   3.382   1.643   1.278 -0.0042  0.3617  0.1173
 6599TIP3    H141288   3.477   1.644   1.268  0.0942 -0.2261  0.9693
 6599TIP3    H241289   3.349   1.610   1.194  0.4994  1.1353 -0.3989
 6600TIP3   OH241290   1.757   6.305   1.457  0.5027  0.2206  0.1288
 6600TIP3    H141291   1.710   6.352   1.388  1.8144  0.4323 -0.6307
 6600TIP3    H241292   1.688   6.270   1.513 -0.5720  0.1211 -1.2437
 6601TIP3   OH241293   5.082   4.361  14.945 -0.0469 -0.4209 -0.4283
 6601TIP3    H141294   5.137   4.414  15.003 -1.1300  0.2590 -0.0205
 6601TIP3    H241295   5.099   4.271  14.971 -3.8653 -0.0419  4.0552
 6602TIP3   OH241296   1.015   3.495  16.233 -0.6976  0.3479 -0.2144
 6602TIP3    H141297   1.103   3.473  16.264 -0.6414  1.2764  0.3182
 6602TIP3    H241298   1.000   3.436  16.159  0.7890  0.8586 -0.9572
 6603TIP3   OH241299   0.285   5.805   6.532 -0.6445 -0.2816 -0.1145
 6603TIP3    H141300   0.280   5.896   6.503  0.2272 -0.2647 -0.2084
 6603TIP3    H241301   0.241   5.805   6.618 -2.0084 -0.0781 -0.7915
 6604TIP3   OH241302   6.345   4.805  13.916 -0.0657  0.0456  0.1959
 6604TIP3    H141303   6.265   4.849  13.947  0.1769  0.0404  0.8254
 6604TIP3    H241304   6.362   4.737  13.981  0.7085  0.3323  0.2904
 6605TIP3   OH241305   0.460   4.698  11.856 -0.1251  0.3833  0.3721
 6605TIP3    H141306   0.478   4.628  11.793  0.8729  0.9723  0.0024
 6605TIP3    H241307   0.539   4.751  11.857 -1.0554  1.7909  0.3082
 6606TIP3   OH241308   2.589   5.587  15.655 -0.6086  0.2727 -0.0650
 6606TIP3    H141309   2.614   5.511  15.708 -0.4523  0.8157  0.6518
 6606TIP3    H241310   2.650   5.585  15.581  0.3232  0.5032  0.6840
 6607TIP3   OH241311   0.900   2.159  11.352  0.2004  0.1820  0.1672
 6607TIP3    H141312   0.861   2.200  11.274  0.8487  2.9181  1.2318
 6607TIP3    H241313   0.827   2.113  11.394 -0.1203 -1.4700 -2.1118
 6608TIP3   OH241314   4.668   4.454  11.932 -0.6700  0.0628  0.8495
 6608TIP3    H141315   4.604   4.478  11.865  0.4774  1.1234  0.1011
 6608TIP3    H241316   4.733   4.402  11.885  0.1352  0.7960  1.1342
 6609TIP3   OH241317   0.491   2.826  15.284 -0.2170 -0.0366 -0.0072
 6609TIP3    H141318   0.517   2.907  15.240 -1.1287  0.2821  0.0414
 6609TIP3    H241319   0.463   2.854  15.371 -0.3902 -0.4196  0.0628
 6610TIP3   OH241320   6.434   4.545   1.949  0.2354 -0.8013  0.1071
 6610TIP3    H141321   6.406   4.523   1.860  0.1939  0.7723 -0.2847
 6610TIP3    H241322   6.484   4.626   1.939  0.3377 -0.6825  1.5042
 6611TIP3   OH241323   5.444   2.733   4.156  0.5511 -0.0371 -0.3263
 6611TIP3    H141324   5.516   2.797   4.150  1.3843 -0.9469 -0.0613
 6611TIP3    H241325   5.416   2.721   4.065  1.1448 -0.1411 -0.5003
 6612TIP3   OH241326   0.545   3.939  11.625  0.3105 -0.2821 -0.1846
 6612TIP3    H141327   0.515   3.923  11.714 -0.2631  0.0647 -0.3182
 6612TIP3    H241328   0.498   3.875  11.572  2.6030 -2.2783  0.0998
 6613TIP3   OH241329   6.685   0.351  13.047  0.4363 -0.2358  0.4178
 6613TIP3    H141330   6.749   0.401  13.098  1.1458 -0.0753 -0.6247
 6613TIP3    H241331   6.653   0.413  12.981 -0.8839 -0.2796  0.9964
 6614TIP3   OH241332   3.135   0.536   0.168 -0.1872 -0.3344  0.0918
 6614TIP3    H141333   3.096   0.510   0.252 -0.6995 -2.3145 -0.7279
 6614TIP3    H241334   3.117   0.630   0.161 -2.4179 -0.6591  1.0136
 6615TIP3   OH241335   3.722   3.353  15.295  0.2224 -0.0131  0.5602
 6615TIP3    H141336   3.648   3.295  15.310  1.1205 -1.6235 -0.9748
 6615TIP3    H241337   3.685   3.441  15.294 -1.9157 -0.8973 -1.6688
 6616TIP3   OH241338   6.457   1.599  13.121 -0.7137 -0.0337  0.0410
 6616TIP3    H141339   6.387   1.646  13.166 -1.8996 -0.8801 -0.8579
 6616TIP3    H241340   6.446   1.508  13.148 -0.3041 -0.2610 -0.5426
 6617TIP3   OH241341   2.354   3.414  11.925  0.0676 -0.3564 -1.0384
 6617TIP3    H141342   2.399   3.345  11.974 -2.1641 -0.1007  1.5011
 6617TIP3    H241343   2.285   3.368  11.877 -1.5671  0.0546  0.8317
 6618TIP3   OH241344   3.272   3.478  10.822 -0.7474 -0.8973 -0.1712
 6618TIP3    H141345   3.182   3.512  10.816 -0.7625 -1.0895 -1.2107
 6618TIP3    H241346   3.281   3.423  10.744 -0.3956 -2.4974  0.9837
 6619TIP3   OH241347   0.308   2.287  11.352 -0.1498  0.2746  0.0214
 6619TIP3    H141348   0.338   2.269  11.441  0.0843 -0.3875 -0.1839
 6619TIP3    H241349   0.381   2.334  11.311  0.9908 -2.0366 -0.7271
 6620TIP3   OH241350   5.445   5.951   3.638  0.0772  0.4505  0.1832
 6620TIP3    H141351   5.433   5.881   3.574  2.0583  0.4619 -0.2321
 6620TIP3    H241352   5.528   5.931   3.680  0.0546  1.8688  0.9310
 6621TIP3   OH241353   5.982   1.266  12.695  0.4460  0.8234 -0.1519
 6621TIP3    H141354   5.983   1.302  12.784 -0.6904  1.1329 -0.2562
 6621TIP3    H241355   5.948   1.177  12.706 -0.1941  1.0382 -0.3259
 6622TIP3   OH241356   1.872   4.551   3.960  0.1446 -0.4334  0.0446
 6622TIP3    H141357   1.962   4.525   3.980  0.5646  1.2466  0.5019
 6622TIP3    H241358   1.818   4.503   4.022  0.6748 -1.8823 -0.6063
 6623TIP3   OH241359   5.434   4.419   4.495 -0.1645 -0.0268  0.3016
 6623TIP3    H141360   5.392   4.457   4.572 -0.5255 -0.9477  0.5680
 6623TIP3    H241361   5.438   4.325   4.514  3.3761  0.2123  0.9343
 6624TIP3   OH241362   3.981   2.021   3.107  0.6812 -0.3291  0.1832
 6624TIP3    H141363   4.034   2.000   3.031  0.0324  0.0140 -0.3629
 6624TIP3    H241364   4.045   2.032   3.178  1.3694  0.3436 -0.5217
 6625TIP3   OH241365   5.198   5.504  15.953  0.4670 -0.0820  0.2654
 6625TIP3    H141366   5.217   5.508  15.859 -0.9442  0.3687 -0.0187
 6625TIP3    H241367   5.276   5.539  15.995  0.3435  1.5960 -0.8521
 6626TIP3   OH241368   2.876   1.663  16.352 -0.1029 -0.0321 -0.4019
 6626TIP3    H141369   2.871   1.746  16.304 -0.3473 -0.1347 -0.5593
 6626TIP3    H241370   2.855   1.686  16.443 -0.6605  0.0017 -0.5343
 6627TIP3   OH241371   3.194   5.407   4.278  0.5592  0.3851  0.7667
 6627TIP3    H141372   3.275   5.393   4.328  1.2119 -0.2755 -0.4573
 6627TIP3    H241373   3.203   5.495   4.241 -1.1248  1.9941  3.9793
 6628TIP3   OH241374   1.876   3.187   5.907 -0.1616  0.3912 -0.5940
 6628TIP3    H141375   1.799   3.131   5.920  0.1665 -0.0212 -0.4246
 6628TIP3    H241376   1.859   3.263   5.964  0.7933 -0.9441  1.5334
 6629TIP3   OH241377   1.736   1.665   3.677 -0.6582  0.3374 -0.4409
 6629TIP3    H141378   1.644   1.658   3.651 -0.0641  1.0503 -2.8231
 6629TIP3    H241379   1.775   1.581   3.652 -0.3085  0.6304 -0.8818
 6630TIP3   OH241380   4.427   0.733  16.461  0.2634  0.4408 -0.1765
 6630TIP3    H141381   4.436   0.828  16.459 -0.5443  0.5945  2.0020
 6630TIP3    H241382   4.344   0.716  16.416 -0.2830  0.8763  0.6644
 6631TIP3   OH241383   4.282   0.722  12.844 -0.3519  0.4673 -0.5769
 6631TIP3    H141384   4.254   0.792  12.784  1.5076  2.6924  1.0837
 6631TIP3    H241385   4.293   0.766  12.928 -2.9850 -2.6394  1.4759
 6632TIP3   OH241386   1.464   1.076  11.397  0.0725  0.3028 -0.1927
 6632TIP3    H141387   1.508   0.991  11.393 -0.5353 -0.1959  2.7192
 6632TIP3    H241388   1.534   1.139  11.411  0.3453  0.0839 -0.5610
 6633TIP3   OH241389   3.925   6.379  11.602 -0.4389  0.1420 -0.4437
 6633TIP3    H141390   3.864   6.346  11.536  0.6405  0.9814 -1.8970
 6633TIP3    H241391   3.872   6.436  11.658 -1.7084 -1.8523  0.4097
 6634TIP3   OH241392   1.741   3.773   0.009 -0.2830 -0.2271  0.2303
 6634TIP3    H141393   1.698   3.820  -0.062  1.1219  1.4000  0.4261
 6634TIP3    H241394   1.783   3.698  -0.032 -1.8699 -0.8941 -0.2060
 6635TIP3   OH241395   1.045   2.955  15.664 -0.0567 -1.1148 -1.1063
 6635TIP3    H141396   0.951   2.941  15.649 -0.3527  0.4684 -0.7912
 6635TIP3    H241397   1.060   2.925  15.753 -1.0203  2.0132  0.1574
 6636TIP3   OH241398   0.283   0.705   2.985 -0.3281  0.1838 -0.0822
 6636TIP3    H141399   0.291   0.672   3.075 -1.7871  2.1883  0.8161
 6636TIP3    H241400   0.192   0.734   2.978 -0.5070 -0.8825 -2.5654
 6637TIP3   OH241401   6.352   3.199  12.360  0.5217 -0.6034  0.3642
 6637TIP3    H141402   6.419   3.182  12.425 -0.2002 -1.6818  0.8373
 6637TIP3    H241403   6.322   3.112  12.332 -1.0855 -0.1421  0.5923
 6638TIP3   OH241404   1.374   4.800   0.845  0.3642 -0.4975 -0.7956
 6638TIP3    H141405   1.315   4.855   0.896  0.6798  1.2709 -2.3277
 6638TIP3    H241406   1.388   4.847   0.763  0.2138 -3.0857 -2.3841
 6639TIP3   OH241407   1.879   4.715   3.737 -0.1756 -0.8639  0.4885
 6639TIP3    H141408   1.793   4.750   3.759 -0.8960 -2.1193 -0.2286
 6639TIP3    H241409   1.892   4.644   3.800  0.9694  0.2429  1.5082
 6640TIP3   OH241410   2.512   4.088  16.448 -0.0340  0.0720  0.3158
 6640TIP3    H141411   2.521   4.165  16.392  2.2630  0.6726  1.4326
 6640TIP3    H241412   2.424   4.096  16.486  0.0160  1.9419  0.1057
 6641TIP3   OH241413   3.209   2.923   4.114  0.1182  0.4888 -0.1188
 6641TIP3    H141414   3.122   2.962   4.113 -0.2165 -0.2423  0.3894
 6641TIP3    H241415   3.223   2.893   4.024  1.7588  4.7460 -1.4520
 6642TIP3   OH241416   4.613   2.254  11.317  0.0339  0.1171  0.5379
 6642TIP3    H141417   4.573   2.216  11.239  0.9134 -0.5558  0.4087
 6642TIP3    H241418   4.692   2.298  11.286  1.1132 -1.2912  1.1970
 6643TIP3   OH241419   5.037   5.581   2.254 -0.0431  0.1156  0.2818
 6643TIP3    H141420   5.077   5.502   2.216 -1.0332 -0.0961 -0.3175
 6643TIP3    H241421   4.956   5.550   2.294 -0.2383  0.7674  0.3977
 6644TIP3   OH241422   6.377   5.963   4.050  0.8106 -0.1368 -0.1584
 6644TIP3    H141423   6.344   5.890   4.102 -2.1176  0.0043 -1.6961
 6644TIP3    H241424   6.433   5.923   3.984  0.7054 -0.7732  0.1360
 6645TIP3   OH241425   6.552   3.949  12.141 -0.1866  0.1773 -0.8967
 6645TIP3    H141426   6.533   3.970  12.233  0.8808 -0.4384 -0.5171
 6645TIP3    H241427   6.554   3.853  12.139  0.0785  0.1941 -1.5007
 6646TIP3   OH241428   3.414   4.673  17.156  0.2396  0.6433  0.1465
 6646TIP3    H141429   3.426   4.633  17.070  0.3656 -3.6567  2.0181
 6646TIP3    H241430   3.320   4.693  17.160 -0.1659 -1.1170 -0.2102
 6647TIP3   OH241431   2.308   3.246   0.611 -0.1709  0.0337 -0.4145
 6647TIP3    H141432   2.366   3.241   0.534 -0.0108  1.0723 -0.3605
 6647TIP3    H241433   2.282   3.155   0.626  0.3775 -0.2751 -1.2584
 6648TIP3   OH241434   4.012   6.385   2.848  0.0404  0.4176  0.0689
 6648TIP3    H141435   4.089   6.336   2.875  0.3004 -0.3349 -1.9436
 6648TIP3    H241436   3.941   6.320   2.850  0.5705 -0.4068 -3.5684
 6649TIP3   OH241437   5.970   0.326   1.022  0.3210  0.5845 -0.1641
 6649TIP3    H141438   6.017   0.264   1.079 -0.0464  2.0464  1.7833
 6649TIP3    H241439   6.029   0.402   1.017 -1.0842  1.7620  0.9277
 6650TIP3   OH241440   5.809   0.745  11.034  0.1855 -0.0836 -0.2571
 6650TIP3    H141441   5.734   0.757  10.976  0.3053 -0.1214 -0.4192
 6650TIP3    H241442   5.869   0.690  10.985  0.7828  0.8213 -0.5437
 6651TIP3   OH241443   6.176   4.675  15.655  0.1721 -0.2998 -0.5050
 6651TIP3    H141444   6.268   4.646  15.650 -0.0040 -0.9295 -0.1582
 6651TIP3    H241445   6.125   4.595  15.648 -0.2558 -0.5480  3.9164
 6652TIP3   OH241446   2.281   2.820  17.231 -0.2313 -0.0581  0.6524
 6652TIP3    H141447   2.206   2.842  17.286 -0.1188 -1.6927  1.4799
 6652TIP3    H241448   2.248   2.828  17.142 -1.1456  0.0844  0.9960
 6653TIP3   OH241449   6.658   0.234   3.979 -0.0618  0.5858  0.4152
 6653TIP3    H141450   6.700   0.155   3.945 -1.5183  0.5075 -1.2918
 6653TIP3    H241451   6.565   0.211   3.984 -0.1054  1.2057  2.7968
 6654TIP3   OH241452   0.120   6.180   2.389 -0.4135 -0.8143  0.2810
 6654TIP3    H141453   0.122   6.118   2.316 -3.1732  0.3348 -0.8431
 6654TIP3    H241454   0.115   6.266   2.348  1.4914  0.1008  1.8434
 6655TIP3   OH241455   3.216   4.348  11.908  0.7861  0.4434  0.1493
 6655TIP3    H141456   3.182   4.320  11.993  0.2323  0.0333 -0.2017
 6655TIP3    H241457   3.270   4.425  11.927  2.6945 -1.1091  1.2054
 6656TIP3   OH241458   2.535   1.933   0.874 -0.6083  0.3906  0.4182
 6656TIP3    H141459   2.454   1.967   0.912 -0.3469  0.2760  1.0799
 6656TIP3    H241460   2.604   1.985   0.915 -0.4325  1.6824 -1.4077
 6657TIP3   OH241461   3.146   2.555   1.249  0.1339  0.0568  0.2378
 6657TIP3    H141462   3.115   2.466   1.267  0.3353  0.4089  2.4944
 6657TIP3    H241463   3.180   2.586   1.333 -0.2793  2.4007 -0.4089
 6658TIP3   OH241464   4.473   0.290  15.679  0.1542  0.2649  0.6120
 6658TIP3    H141465   4.565   0.304  15.658 -0.5882  0.2006 -2.9840
 6658TIP3    H241466   4.427   0.366  15.642 -1.8902 -2.7434 -3.4733
 6659TIP3   OH241467   1.213   6.238  14.130  0.3026 -0.5303  0.7074
 6659TIP3    H141468   1.272   6.184  14.183  0.9733 -0.7173 -0.2157
 6659TIP3    H241469   1.214   6.197  14.043  1.8609  1.7172 -0.3868
 6660TIP3   OH241470   0.670   6.619  11.650 -0.0940 -0.3388  0.2145
 6660TIP3    H141471   0.707   6.533  11.667  0.9823  0.2634  1.0293
 6660TIP3    H241472   0.607   6.633  11.722  0.7948  0.1431  0.9100
 6661TIP3   OH241473   2.871   1.301   3.129 -0.5578  0.1376 -0.3954
 6661TIP3    H141474   2.833   1.344   3.206 -2.7488 -0.1281 -1.2913
 6661TIP3    H241475   2.959   1.338   3.123  0.1048 -0.7456  2.9267
 6662TIP3   OH241476   2.666   2.254  11.538 -0.0157 -0.0446  0.8129
 6662TIP3    H141477   2.600   2.237  11.605  0.0073 -0.1384  0.8127
 6662TIP3    H241478   2.719   2.174  11.536  0.6535  0.3712  1.4451
 6663TIP3   OH241479   6.483   6.169   3.626 -0.1675  0.7036 -0.1115
 6663TIP3    H141480   6.522   6.248   3.662 -0.8904  0.8829  0.2933
 6663TIP3    H241481   6.402   6.200   3.584  0.0052  0.3107 -0.7351
 6664TIP3   OH241482   0.801   5.698  16.608  0.0772  0.4746 -0.7704
 6664TIP3    H141483   0.727   5.757  16.604 -0.6159 -0.3291  0.0491
 6664TIP3    H241484   0.873   5.746  16.566 -0.7563  1.4536 -1.0815
 6665TIP3   OH241485   2.586   0.935   1.205  0.1930 -0.0545 -0.2188
 6665TIP3    H141486   2.549   0.850   1.230  1.7176 -0.7678 -0.3351
 6665TIP3    H241487   2.567   0.992   1.279 -2.5839  0.0687 -0.9467
 6666TIP3   OH241488   1.161   2.996  14.519 -0.0545 -0.2000 -0.3849
 6666TIP3    H141489   1.071   3.018  14.545  0.2597 -1.3415  1.7968
 6666TIP3    H241490   1.190   3.070  14.467 -2.2436  0.2091 -1.0927
 6667TIP3   OH241491   0.158   2.795  17.056 -0.0400 -0.1012  0.0025
 6667TIP3    H141492   0.173   2.879  17.015 -0.0475  1.3345  2.7993
 6667TIP3    H241493   0.234   2.742  17.033 -0.2323  0.5072 -2.0913
 6668TIP3   OH241494   1.523   2.226   4.585 -0.0384 -0.5492  0.0913
 6668TIP3    H141495   1.572   2.144   4.593  0.1340 -0.4388  0.1807
 6668TIP3    H241496   1.537   2.253   4.494  1.4067  0.3085  0.5381
 6669TIP3   OH241497   4.495   5.575   6.222  0.0524  0.0767  0.1858
 6669TIP3    H141498   4.461   5.643   6.164 -1.0691  0.3383  1.1536
 6669TIP3    H241499   4.578   5.610   6.254  0.0948  0.4386 -0.3202
 6670TIP3   OH241500   1.724   4.943  17.265  0.4802 -0.5125 -0.5381
 6670TIP3    H141501   1.644   4.962  17.215  0.2222 -1.1225 -0.3693
 6670TIP3    H241502   1.745   4.852  17.241 -0.6067 -1.4055  1.7400
 6671TIP3   OH241503   6.312   3.065  14.681 -0.3880  0.6379 -0.2487
 6671TIP3    H141504   6.400   3.096  14.661 -0.6560  1.0660 -0.7363
 6671TIP3    H241505   6.316   3.042  14.774  1.3647 -3.0658 -1.1226
 6672TIP3   OH241506   5.620   0.837  16.731 -0.7069  0.3819 -0.2401
 6672TIP3    H141507   5.663   0.763  16.688  2.4921  1.5028  0.8550
 6672TIP3    H241508   5.561   0.797  16.795 -1.2047 -1.2145 -1.6574
 6673TIP3   OH241509   3.697   5.530  14.762 -0.2690  1.0990 -0.1734
 6673TIP3    H141510   3.784   5.550  14.797 -0.1450 -0.3804  0.4111
 6673TIP3    H241511   3.687   5.588  14.687  1.7241  0.4368 -0.9809
 6674TIP3   OH241512   6.679   2.651  14.802  0.9062 -0.4829 -0.0112
 6674TIP3    H141513   6.747   2.717  14.821  1.7186 -0.7822 -1.7277
 6674TIP3    H241514   6.608   2.672  14.862  1.2859  1.7781 -0.2783
 6675TIP3   OH241515   2.803   0.973  12.308 -0.4667 -0.0438 -0.1053
 6675TIP3    H141516   2.747   0.945  12.235 -2.9047  2.0284  0.9087
 6675TIP3    H241517   2.828   1.063  12.287  1.9494 -0.6943 -0.1840
 6676TIP3   OH241518   1.215   1.333  15.175 -0.3805 -0.0245 -0.0759
 6676TIP3    H141519   1.132   1.377  15.193 -0.3959  0.1443 -0.5565
 6676TIP3    H241520   1.223   1.334  15.080 -1.4014 -2.9278 -0.2593
 6677TIP3   OH241521   0.173   1.329  12.850  0.1511  0.1886  1.1748
 6677TIP3    H141522   0.162   1.409  12.902  0.9336  0.5872  0.7284
 6677TIP3    H241523   0.244   1.282  12.893  0.2005  0.0923  0.9862
 6678TIP3   OH241524   0.519   0.902  11.618 -0.1743  0.2270  0.5093
 6678TIP3    H141525   0.546   0.823  11.572 -0.5959 -0.2654  1.0952
 6678TIP3    H241526   0.574   0.903  11.697 -1.6092 -0.6008  1.5371
 6679TIP3   OH241527   5.551   5.217  14.113  0.3854 -0.0749 -0.3545
 6679TIP3    H141528   5.481   5.209  14.178  0.9112 -1.3802  0.0803
 6679TIP3    H241529   5.516   5.277  14.047 -0.8227 -0.0732  0.2686
 6680TIP3   OH241530   4.979   4.667   4.701 -0.2514  0.3239 -0.2666
 6680TIP3    H141531   5.041   4.717   4.755 -1.6781  0.8453  0.9156
 6680TIP3    H241532   4.898   4.666   4.752 -0.7161 -1.8865 -0.9848
 6681TIP3   OH241533   4.604   5.017  13.836 -0.2219  0.6669  0.6315
 6681TIP3    H141534   4.630   4.975  13.918 -2.5656 -2.4855 -0.1030
 6681TIP3    H241535   4.654   4.971  13.769 -0.9564  0.7350  0.0209
 6682TIP3   OH241536   2.316   4.909   3.209  0.3988  0.2628 -0.4237
 6682TIP3    H141537   2.281   4.930   3.296  0.2197 -0.8570 -0.2127
 6682TIP3    H241538   2.379   4.838   3.225  0.1483 -0.1506 -1.2328
 6683TIP3   OH241539   1.484   2.537   5.361  0.2291  0.1148  0.3092
 6683TIP3    H141540   1.541   2.611   5.379  0.8435  0.3521 -2.4409
 6683TIP3    H241541   1.541   2.460   5.369  0.6875  0.2757 -1.3885
 6684TIP3   OH241542   4.468   6.336  16.405  0.0942 -0.1914  0.2256
 6684TIP3    H141543   4.436   6.388  16.332 -0.6316 -0.1875  0.5341
 6684TIP3    H241544   4.545   6.382  16.437  0.8878 -0.6387 -1.0525
 6685TIP3   OH241545   4.184   6.079  15.907  0.3716  0.2793  0.4775
 6685TIP3    H141546   4.212   6.018  15.975  1.3170 -0.2006 -0.3344
 6685TIP3    H241547   4.106   6.038  15.870 -1.4970  1.6523  2.7870
 6686TIP3   OH241548   6.169   4.293   2.607 -0.3639  0.4464  0.4833
 6686TIP3    H141549   6.246   4.335   2.645 -0.1314  0.4445  0.0200
 6686TIP3    H241550   6.114   4.270   2.682 -0.2963  1.1934  0.7633
 6687TIP3   OH241551   5.561   0.152  14.959  0.1830  0.0895  0.4996
 6687TIP3    H141552   5.616   0.194  14.894  0.2590  0.4417  0.7924
 6687TIP3    H241553   5.605   0.166  15.042  0.1594 -0.4833  0.6143
 6688TIP3   OH241554   0.451   5.055   3.687  0.6427  0.0479  0.3503
 6688TIP3    H141555   0.515   5.084   3.752 -0.0732  0.2438  0.9802
 6688TIP3    H241556   0.368   5.095   3.716  0.5118  0.9753 -1.2375
 6689TIP3   OH241557   0.213   0.787  14.582  0.2244  0.1670  0.3890
 6689TIP3    H141558   0.298   0.830  14.593  0.2648  0.4849 -1.1566
 6689TIP3    H241559   0.156   0.833  14.643  0.9261  0.5989  0.7347
 6690TIP3   OH241560   5.846   0.372   4.456  0.0598 -0.4592 -0.2736
 6690TIP3    H141561   5.773   0.309   4.449  1.2513 -2.0549  1.3256
 6690TIP3    H241562   5.834   0.430   4.381 -3.3638 -0.1549  0.4006
 6691TIP3   OH241563   5.298   4.223   0.383 -0.4722 -0.5448 -0.2560
 6691TIP3    H141564   5.390   4.198   0.387 -0.0132  1.0797 -0.3160
 6691TIP3    H241565   5.296   4.302   0.329 -2.1386 -1.6105 -1.8382
 6692TIP3   OH241566   6.509   6.631  12.409 -0.7140 -0.3643  0.6144
 6692TIP3    H141567   6.492   6.669  12.495  0.0147 -2.2262  1.5918
 6692TIP3    H241568   6.599   6.659  12.389 -1.4018  1.3299 -0.2418
 6693TIP3   OH241569   3.708   6.431  12.370 -0.6959  0.0856 -0.5081
 6693TIP3    H141570   3.762   6.479  12.434 -1.6344 -1.3831  1.4215
 6693TIP3    H241571   3.744   6.457  12.285  2.0581  0.3437  0.6734
 6694TIP3   OH241572   3.380   0.594   2.795 -0.0628  0.6136 -0.1626
 6694TIP3    H141573   3.301   0.553   2.759  0.2336 -0.4326  0.3563
 6694TIP3    H241574   3.453   0.548   2.752  0.2689  1.3805 -0.4276
 6695TIP3   OH241575   4.303   2.032  14.197  0.5464 -0.3327 -0.0428
 6695TIP3    H141576   4.398   2.038  14.186  0.5324 -2.3254 -1.6755
 6695TIP3    H241577   4.291   2.002  14.287  1.3834  1.4268  0.6753
 6696TIP3   OH241578   0.138   4.880  12.002 -0.4044 -0.2120  0.5233
 6696TIP3    H141579   0.119   4.971  12.023  0.1604  0.3916 -1.5332
 6696TIP3    H241580   0.101   4.866  11.915  0.9278 -1.4774  0.1358
 6697TIP3   OH241581   2.750   3.548   2.119  0.1064  0.5197 -0.7689
 6697TIP3    H141582   2.820   3.575   2.180  0.8536 -0.4756 -1.1689
 6697TIP3    H241583   2.703   3.479   2.167  1.4153 -1.0965 -1.7239
 6698TIP3   OH241584   6.664   3.857   1.619  0.1099  0.0351  0.2777
 6698TIP3    H141585   6.713   3.796   1.564  2.5447  3.1625 -1.2083
 6698TIP3    H241586   6.628   3.921   1.557 -0.6329  1.2609  1.9487
 6699TIP3   OH241587   4.722   4.180  14.092 -0.3620  0.4063 -0.1361
 6699TIP3    H141588   4.813   4.171  14.062 -1.0272 -1.1486 -1.7489
 6699TIP3    H241589   4.729   4.181  14.188  1.2775 -0.8542 -0.2168
 6700TIP3   OH241590   0.160   0.557  14.176  0.0878 -0.4489  0.2174
 6700TIP3    H141591   0.070   0.550  14.143 -0.1300 -0.2578  0.7660
 6700TIP3    H241592   0.168   0.649  14.202  0.9308 -0.1039 -1.2327
 6701TIP3   OH241593   4.724   3.272  14.605 -0.2928  0.2294 -0.2701
 6701TIP3    H141594   4.713   3.196  14.549 -0.2593  0.2458 -0.2990
 6701TIP3    H241595   4.817   3.295  14.597 -0.6373  1.2235 -1.4890
 6702TIP3   OH241596   1.138   6.345   5.022  0.1017  0.4802 -0.2175
 6702TIP3    H141597   1.063   6.391   5.058 -0.9619 -0.2346 -1.4768
 6702TIP3    H241598   1.115   6.252   5.029  0.6174  0.2733 -1.1065
 6703TIP3   OH241599   4.178   2.342   4.188 -0.1311 -0.1800  0.2860
 6703TIP3    H141600   4.207   2.415   4.133 -3.0363 -0.6697 -2.0045
 6703TIP3    H241601   4.221   2.357   4.272  1.9473  2.3288 -1.1467
 6704TIP3   OH241602   6.306   4.112   0.705 -0.0266 -0.1436 -0.1180
 6704TIP3    H141603   6.247   4.130   0.632  0.2053  0.5073 -0.1417
 6704TIP3    H241604   6.288   4.181   0.769 -1.3886 -1.6292  1.1499
 6705TIP3   OH241605   6.134   4.423   5.325 -0.4436  0.0608  0.3758
 6705TIP3    H141606   6.067   4.453   5.387 -0.7566  0.3106 -0.0807
 6705TIP3    H241607   6.186   4.500   5.305  0.2367 -0.2170  1.0313
 6706TIP3   OH241608   0.324   1.784   0.479  0.0796  0.2560  0.2926
 6706TIP3    H141609   0.417   1.785   0.499  0.1995  0.8134 -0.2728
 6706TIP3    H241610   0.302   1.875   0.460 -0.3607 -0.0121 -0.5244
 6707TIP3   OH241611   5.865   5.354  13.614  0.2379 -0.4007  0.6547
 6707TIP3    H141612   5.873   5.339  13.519 -1.2790 -0.8071  0.5852
 6707TIP3    H241613   5.796   5.294  13.642 -0.0503  0.4813  1.8400
 6708TIP3   OH241614   2.933   0.056   3.610 -0.1350 -0.5142 -0.1872
 6708TIP3    H141615   2.903  -0.012   3.670 -0.0938  0.0111  0.4438
 6708TIP3    H241616   2.907   0.026   3.524  0.4035 -1.6117  0.0175
 6709TIP3   OH241617   0.412   5.391   1.150  0.2976  0.3128  0.3168
 6709TIP3    H141618   0.477   5.374   1.218  0.8326  1.0519 -0.0065
 6709TIP3    H241619   0.328   5.378   1.193  0.6487 -2.8772  0.1665
 6710TIP3   OH241620   4.690   4.517   1.849 -0.4062 -0.0019 -0.0068
 6710TIP3    H141621   4.764   4.576   1.830 -0.6719  0.9336  1.7756
 6710TIP3    H241622   4.614   4.575   1.855 -0.9963 -0.7556 -0.0881
 6711TIP3   OH241623   4.888   3.414  12.012 -0.5533 -0.1506  0.3574
 6711TIP3    H141624   4.970   3.461  12.002 -1.3065  0.7764 -1.8072
 6711TIP3    H241625   4.913   3.326  12.039  1.0893  0.3397  0.4557
 6712TIP3   OH241626   5.327   0.213   6.300  0.4358  0.8302 -0.0343
 6712TIP3    H141627   5.354   0.279   6.237 -0.0095  1.2087  0.1700
 6712TIP3    H241628   5.235   0.195   6.279 -0.1033  1.9053  1.3266
 6713TIP3   OH241629   0.425   1.945   5.562  0.0117 -0.0170 -0.2824
 6713TIP3    H141630   0.492   1.942   5.630  0.9626  2.4638 -1.0579
 6713TIP3    H241631   0.346   1.910   5.604  0.8630  0.4387  1.7502
 6714TIP3   OH241632   6.059   2.748  12.069 -0.3898  0.4188 -0.3054
 6714TIP3    H141633   6.114   2.808  12.019  0.8468 -1.4020 -1.1723
 6714TIP3    H241634   6.063   2.665  12.021 -0.1140 -1.0632  2.1569
 6715TIP3   OH241635   2.861   2.296   0.273 -0.3320  0.1157  0.6660
 6715TIP3    H141636   2.784   2.244   0.298  0.0009 -0.6951  0.0144
 6715TIP3    H241637   2.827   2.360   0.211 -0.5657  0.0558  0.7312
 6716TIP3   OH241638   4.708   5.168   4.403 -0.2921  0.1163 -0.2160
 6716TIP3    H141639   4.681   5.079   4.379 -2.1477  0.3624  0.8229
 6716TIP3    H241640   4.632   5.223   4.381 -0.0527  1.0956  1.2898
 6717TIP3   OH241641   2.996   0.535   0.393  0.1623 -0.3116  0.4811
 6717TIP3    H141642   2.944   0.456   0.389 -0.3931  0.0298  0.8676
 6717TIP3    H241643   2.997   0.559   0.486  0.8939 -0.2417  0.4625
 6718TIP3   OH241644   4.399   3.537  14.384 -0.2776  0.2450  0.2094
 6718TIP3    H141645   4.485   3.496  14.377 -0.7477 -0.7966  0.5337
 6718TIP3    H241646   4.397   3.599  14.311  0.8316  0.4438  0.3285
 6719TIP3   OH241647   2.525   5.505   6.716  0.0815 -0.7688  0.5323
 6719TIP3    H141648   2.504   5.514   6.809  2.7257 -0.7137  1.1640
 6719TIP3    H241649   2.583   5.429   6.712  1.0905  0.0665 -0.8944
 6720TIP3   OH241650   3.665   1.144   3.196  0.0695 -0.3501  0.5226
 6720TIP3    H141651   3.695   1.224   3.238 -1.6274  1.1297 -0.9638
 6720TIP3    H241652   3.587   1.119   3.246 -1.6510  1.1271 -1.3155
 6721TIP3   OH241653   5.560   2.328  11.833 -0.8042  0.2600  0.3470
 6721TIP3    H141654   5.622   2.343  11.905 -0.6840  1.8702 -0.0871
 6721TIP3    H241655   5.614   2.293  11.762 -0.2358  2.4594 -0.3197
 6722TIP3   OH241656   0.273   5.818  14.503  0.0981  0.3622  0.6216
 6722TIP3    H141657   0.299   5.877  14.574  1.3501  0.5854 -0.0116
 6722TIP3    H241658   0.350   5.815  14.445  0.0255 -1.8313  0.6074
 6723TIP3   OH241659   5.098   1.581   1.961 -0.0298 -0.6917 -0.1792
 6723TIP3    H141660   5.110   1.675   1.954 -0.4205 -0.4205  2.5325
 6723TIP3    H241661   5.022   1.562   1.905  1.1462  0.3003 -2.1618
 6724TIP3   OH241662   2.567   2.180   0.190  0.0681 -0.3958  0.2104
 6724TIP3    H141663   2.589   2.088   0.178 -2.3727 -0.7875 -1.6675
 6724TIP3    H241664   2.495   2.180   0.253 -0.2525  0.1805 -0.1497
 6725TIP3   OH241665   4.587   3.941   5.375 -0.3100 -0.5441  0.2336
 6725TIP3    H141666   4.550   3.926   5.288  1.1738  1.1689 -0.7341
 6725TIP3    H241667   4.576   4.035   5.390  2.6375 -0.1623  0.3172
 6726TIP3   OH241668   4.457   0.591  13.580 -0.0613 -0.6380 -0.1525
 6726TIP3    H141669   4.411   0.675  13.567  2.3249  0.9359  1.2058
 6726TIP3    H241670   4.549   0.612  13.563  0.8299 -2.5305  2.1139
 6727TIP3   OH241671   2.752   5.519   5.846 -0.1452  0.3745  0.1781
 6727TIP3    H141672   2.690   5.446   5.854  0.2936 -0.2378 -1.7053
 6727TIP3    H241673   2.823   5.497   5.907 -0.8739  0.1510  0.9622
 6728TIP3   OH241674   3.011   2.983  11.555 -0.1725 -0.4168  0.0835
 6728TIP3    H141675   2.918   2.975  11.574 -0.4408 -1.4955 -1.6124
 6728TIP3    H241676   3.046   2.895  11.573  0.3325 -0.2940 -0.3033
 6729TIP3   OH241677   3.315   1.151   2.223  0.1027  0.5742  0.2481
 6729TIP3    H141678   3.226   1.126   2.198  0.6210 -1.5326  0.4255
 6729TIP3    H241679   3.359   1.068   2.243  1.4152  1.7527  2.4949
 6730TIP3   OH241680   3.116   5.153   2.089 -0.0989 -0.3771  0.5782
 6730TIP3    H141681   3.183   5.101   2.132  0.1075  0.0852  0.8205
 6730TIP3    H241682   3.122   5.239   2.130 -0.1980 -0.0575 -0.0582
 6731TIP3   OH241683   1.950   3.282   4.993  0.2645 -0.1737 -0.3067
 6731TIP3    H141684   1.955   3.268   4.898  0.0719  1.0740 -0.5168
 6731TIP3    H241685   1.856   3.292   5.010  0.3525  0.2854 -0.0935
 6732TIP3   OH241686   2.051   0.804  11.356 -0.1261 -0.0308  0.0807
 6732TIP3    H141687   2.085   0.757  11.432  1.5450  0.0223 -0.6029
 6732TIP3    H241688   1.996   0.739  11.311  0.8954 -0.8655 -0.0007
 6733TIP3   OH241689   0.017   2.904  15.803 -0.2274  0.3379  0.5508
 6733TIP3    H141690  -0.055   2.948  15.758 -1.2760 -0.7732  1.1196
 6733TIP3    H241691  -0.019   2.882  15.889 -0.0175 -2.3746 -0.0040
 6734TIP3   OH241692   2.310   3.951   2.974 -0.2075  0.0995 -0.5396
 6734TIP3    H141693   2.227   3.971   3.018  1.1049  1.2486  1.4933
 6734TIP3    H241694   2.291   3.961   2.881 -1.8410  2.3203 -0.0066
 6735TIP3   OH241695   5.361   6.753  13.554  0.5158 -0.1569  0.2932
 6735TIP3    H141696   5.448   6.718  13.574  0.1329 -1.5369 -0.3812
 6735TIP3    H241697   5.372   6.802  13.473  0.8890  0.6540  0.8237
 6736TIP3   OH241698   5.713   4.246  12.000 -0.3309 -0.1600 -0.1023
 6736TIP3    H141699   5.704   4.178  11.933 -1.4862  0.5134 -0.6502
 6736TIP3    H241700   5.627   4.249  12.043  0.0226  0.2575  0.5861
 6737TIP3   OH241701   4.597   6.417   2.655  0.0943 -0.0958 -0.5375
 6737TIP3    H141702   4.522   6.361   2.675  0.7310 -0.4998  0.7646
 6737TIP3    H241703   4.558   6.500   2.628 -0.8200  0.0350  1.1261
 6738TIP3   OH241704   6.073   3.977   3.993 -0.4025  0.2607 -0.0966
 6738TIP3    H141705   6.036   4.014   4.073  0.7732 -0.3861  0.7539
 6738TIP3    H241706   6.158   3.941   4.019 -0.9275 -1.8496 -1.1905
 6739TIP3   OH241707   3.272   0.480  16.037 -0.0392 -0.4687 -0.0878
 6739TIP3    H141708   3.338   0.448  15.975  0.2583  0.5917 -0.3325
 6739TIP3    H241709   3.279   0.575  16.032 -0.7546 -0.3639  0.7931
 6740TIP3   OH241710   2.299   3.887   3.295  0.5034  0.0811 -0.4388
 6740TIP3    H141711   2.348   3.969   3.304  0.2975  0.1584  0.0076
 6740TIP3    H241712   2.283   3.879   3.201  1.0294  0.2567 -0.5417
 6741TIP3   OH241713   1.060   3.184  13.030 -0.5646  0.4968 -0.4100
 6741TIP3    H141714   1.033   3.175  12.938 -1.8089  0.2001 -0.0286
 6741TIP3    H241715   1.000   3.249  13.066 -0.7118 -0.0997  0.4367
 6742TIP3   OH241716   1.263   5.337  11.037 -0.1437 -0.1097  0.5867
 6742TIP3    H141717   1.199   5.277  11.077 -1.3223  1.8029  1.6539
 6742TIP3    H241718   1.308   5.377  11.112 -0.1919  1.2005 -0.0766
 6743TIP3   OH241719   3.483   5.165   0.209  0.0437 -0.3620 -0.4738
 6743TIP3    H141720   3.479   5.222   0.286  0.0004 -0.9017 -0.0651
 6743TIP3    H241721   3.552   5.203   0.155  1.3948 -1.0242  0.7239
 6744TIP3   OH241722   3.141   3.773   1.994  0.0519 -0.6724 -0.7419
 6744TIP3    H141723   3.159   3.826   1.917  0.4893 -0.8830 -0.7868
 6744TIP3    H241724   3.088   3.829   2.051  0.6459 -0.1314 -0.7217
 6745TIP3   OH241725   5.422   3.840  15.328 -0.0475  0.2874 -0.0558
 6745TIP3    H141726   5.455   3.767  15.380 -1.6478 -0.0586  0.5109
 6745TIP3    H241727   5.446   3.918  15.378  0.0983  0.0529  0.2423
 6746TIP3   OH241728   5.775   3.595   4.168 -0.2225  1.0981 -0.1455
 6746TIP3    H141729   5.699   3.652   4.172 -1.4492 -0.4164 -1.6431
 6746TIP3    H241730   5.840   3.639   4.223 -1.9857  2.6494  0.7507
 6747TIP3   OH241731   3.926   0.794  10.827  0.1939  0.1456 -0.0054
 6747TIP3    H141732   3.923   0.705  10.864 -0.7205 -0.7087 -2.0328
 6747TIP3    H241733   4.015   0.803  10.793 -0.2861 -0.7821 -1.5767
 6748TIP3   OH241734   1.636   6.073  10.865 -0.7262  0.7000  0.0426
 6748TIP3    H141735   1.580   6.019  10.809 -0.8577  1.3643 -0.4616
 6748TIP3    H241736   1.705   6.013  10.894 -1.0154  0.1906 -0.3160
 6749TIP3   OH241737   4.561   2.713   1.730  0.6579  0.3930  0.2178
 6749TIP3    H141738   4.495   2.644   1.731  0.5464  0.5035  1.0482
 6749TIP3    H241739   4.518   2.788   1.771  0.1324  1.5677 -2.4006
 6750TIP3   OH241740   0.700   2.237  15.738 -0.2097 -0.3952  0.3353
 6750TIP3    H141741   0.615   2.233  15.783 -0.5069 -0.5378 -0.2310
 6750TIP3    H241742   0.688   2.306  15.673 -0.2717 -1.2317 -0.5405
 6751TIP3   OH241743   6.603   5.690   3.191 -0.2140  0.6104  0.4317
 6751TIP3    H141744   6.627   5.695   3.283 -2.1539 -0.3059  1.0205
 6751TIP3    H241745   6.589   5.781   3.164 -1.3586  0.7677  1.5241
 6752TIP3   OH241746   2.984   1.834  15.001  0.1632  0.1298 -0.4745
 6752TIP3    H141747   2.959   1.774  14.931 -1.3134  1.6468 -1.2702
 6752TIP3    H241748   2.907   1.837  15.058  0.3277  1.0438 -0.2917
 6753TIP3   OH241749   3.231   6.286  11.660 -0.0962  0.0999 -0.1145
 6753TIP3    H141750   3.279   6.369  11.653 -1.4205  0.8071 -1.0101
 6753TIP3    H241751   3.214   6.276  11.753  2.2717 -0.4552  0.2944
 6754TIP3   OH241752   0.929   0.257  13.383  0.0238  0.4317 -0.1149
 6754TIP3    H141753   0.910   0.337  13.431  1.6576  1.8096 -1.7000
 6754TIP3    H241754   1.005   0.220  13.428 -0.4983 -0.0333  0.3872
 6755TIP3   OH241755   0.695   2.177   2.315  0.3042  0.7501 -0.1530
 6755TIP3    H141756   0.722   2.096   2.272  0.5858  1.8265 -2.0983
 6755TIP3    H241757   0.766   2.197   2.376  0.1894 -0.5077  0.3994
 6756TIP3   OH241758   5.676   3.493   2.587  0.1717 -0.1402 -0.3669
 6756TIP3    H141759   5.608   3.546   2.629 -0.8843 -2.8886  1.5091
 6756TIP3    H241760   5.751   3.499   2.646  1.6680  2.9157 -2.4525
 6757TIP3   OH241761   5.493   5.500   3.262  0.6860 -0.6609  0.2454
 6757TIP3    H141762   5.411   5.543   3.286  2.1561  1.9692  0.8108
 6757TIP3    H241763   5.481   5.473   3.171 -0.1070  1.5365 -0.3372
 6758TIP3   OH241764   4.057   5.950  16.521 -0.1213 -0.1758  0.1055
 6758TIP3    H141765   4.045   5.924  16.429 -2.2209 -0.6139  0.4909
 6758TIP3    H241766   4.057   6.046  16.518 -0.6000 -0.1846 -0.3098
 6759TIP3   OH241767   6.566   0.748   5.797  0.3845 -0.3552 -0.0399
 6759TIP3    H141768   6.654   0.764   5.764  0.4576  0.8404  0.7335
 6759TIP3    H241769   6.559   0.802   5.876 -0.0293 -2.6150  1.5473
 6760TIP3   OH241770   1.929   0.075   5.616 -0.1442 -0.0786 -1.0460
 6760TIP3    H141771   1.904   0.157   5.658  0.8886 -0.5487  0.5382
 6760TIP3    H241772   1.897   0.007   5.676  0.1735 -0.8040 -1.6888
 6761TIP3   OH241773   5.259   2.005  13.249 -0.2425  0.0247 -0.1884
 6761TIP3    H141774   5.176   1.996  13.202  0.7214  2.0546 -2.4024
 6761TIP3    H241775   5.306   1.924  13.230 -0.2359  0.4337 -2.1310
 6762TIP3   OH241776   4.936   3.938  14.311  0.1086  0.2827 -0.0331
 6762TIP3    H141777   4.873   3.867  14.302  0.9165 -0.3539 -0.7503
 6762TIP3    H241778   4.883   4.013  14.339 -0.7302 -0.6119  0.8188
 6763TIP3   OH241779   6.410   0.861   5.291 -0.0497  0.5156 -0.1204
 6763TIP3    H141780   6.367   0.808   5.359 -0.2168 -0.0202 -0.6406
 6763TIP3    H241781   6.432   0.798   5.222  1.3725  0.8238  0.0361
 6764TIP3   OH241782   5.354   3.899  11.898  0.6172 -0.1793 -0.0614
 6764TIP3    H141783   5.362   3.804  11.902  3.7875  0.0602  0.8381
 6764TIP3    H241784   5.318   3.917  11.811  0.7669 -2.1404 -0.5397
 6765TIP3   OH241785   4.936   0.279  14.495  0.4415 -0.3538 -0.1883
 6765TIP3    H141786   4.944   0.311  14.585 -2.1561  2.0863 -0.7789
 6765TIP3    H241787   4.875   0.206  14.501  0.4303 -0.3239  0.0729
 6766TIP3   OH241788   0.883   5.839  12.663 -0.5777 -0.0402  0.1490
 6766TIP3    H141789   0.800   5.824  12.708 -1.3363 -2.2334 -1.9091
 6766TIP3    H241790   0.865   5.913  12.604 -0.7345  0.2589  0.5727
 6767TIP3   OH241791   1.229   6.671  10.677 -0.0375  0.1909  0.6859
 6767TIP3    H141792   1.269   6.672  10.590  1.3743 -0.7063  1.2927
 6767TIP3    H241793   1.141   6.637  10.663  0.3776 -0.4871 -0.3144
 6768TIP3   OH241794   2.549   3.009  10.903  0.0093 -0.0882 -0.6357
 6768TIP3    H141795   2.599   3.090  10.891  0.4227  0.4704  3.9535
 6768TIP3    H241796   2.459   3.039  10.918 -0.0934 -0.5488 -0.3305
 6769TIP3   OH241797   0.287   1.774   2.446 -0.2369  0.0979  0.3149
 6769TIP3    H141798   0.224   1.715   2.403  1.2746 -0.4364 -1.2285
 6769TIP3    H241799   0.240   1.857   2.452 -1.9749 -0.9199  1.4444
 6770TIP3   OH241800   1.329   4.560  11.585 -0.4291  0.0480  0.0161
 6770TIP3    H141801   1.313   4.631  11.522  0.3372 -1.0410 -1.4481
 6770TIP3    H241802   1.301   4.596  11.669  1.4817  2.7003 -0.4154
 6771TIP3   OH241803   1.083   0.640  11.119 -0.0568  0.4874  0.1726
 6771TIP3    H141804   1.062   0.548  11.103  1.2502 -0.0408  1.4400
 6771TIP3    H241805   1.092   0.678  11.031 -2.3019 -0.1671 -0.3726
 6772TIP3   OH241806   0.322   0.650   5.190 -0.2788 -0.5426  0.3360
 6772TIP3    H141807   0.244   0.698   5.162 -0.4738 -0.1717  1.4871
 6772TIP3    H241808   0.393   0.689   5.140 -0.7178 -0.3773 -0.1690
 6773TIP3   OH241809   5.114   5.975  16.328 -0.2130 -0.1239  0.0575
 6773TIP3    H141810   5.068   6.057  16.347 -0.4707 -0.0506 -0.8714
 6773TIP3    H241811   5.050   5.907  16.346 -0.2996 -0.0783 -0.0801
 6774TIP3   OH241812   3.247   1.856   5.443  0.4214 -0.4290 -0.1556
 6774TIP3    H141813   3.306   1.923   5.478  2.4844 -2.0825 -0.3332
 6774TIP3    H241814   3.263   1.857   5.349  0.3668 -1.0519 -0.1750
 6775TIP3   OH241815   0.556   6.314  15.490  0.5615 -0.4670 -0.0539
 6775TIP3    H141816   0.588   6.298  15.579  0.8334 -2.6166 -0.5028
 6775TIP3    H241817   0.507   6.235  15.468 -2.2664  1.3697 -0.6427
 6776TIP3   OH241818   1.343   5.435  13.780 -0.5000  0.7311 -0.3635
 6776TIP3    H141819   1.406   5.376  13.740 -1.7367 -2.3901  2.1030
 6776TIP3    H241820   1.288   5.464  13.708  0.2779 -0.9246 -1.6587
 6777TIP3   OH241821   3.505   5.345   6.055  0.3937 -0.3626  0.1180
 6777TIP3    H141822   3.599   5.326   6.052  0.5357  0.3900 -0.3092
 6777TIP3    H241823   3.465   5.265   6.089  1.0678 -1.0776 -0.7670
 6778TIP3   OH241824   4.739   6.070   4.501 -0.0620 -0.5738 -0.2704
 6778TIP3    H141825   4.684   6.003   4.461  1.1144 -1.8158  0.1889
 6778TIP3    H241826   4.678   6.120   4.556 -0.4235 -3.1319  1.7534
 6779TIP3   OH241827   2.513   4.176  11.372  0.2869 -0.0854  0.1310
 6779TIP3    H141828   2.558   4.095  11.345 -1.7165 -1.1596 -0.1389
 6779TIP3    H241829   2.540   4.190  11.462  1.5463 -0.4246 -0.1867
 6780TIP3   OH241830   3.435   3.268   4.323  0.3083 -0.2704 -0.0630
 6780TIP3    H141831   3.481   3.287   4.405 -0.6459 -0.5782  0.5536
 6780TIP3    H241832   3.463   3.180   4.300  0.6413 -0.1527 -0.1200
 6781TIP3   OH241833   0.858   1.834  15.248  0.0081  0.1840 -0.1451
 6781TIP3    H141834   0.844   1.929  15.250  1.2438  0.3805 -0.2574
 6781TIP3    H241835   0.882   1.816  15.157  1.0778 -0.0429  0.1838
 6782TIP3   OH241836   1.619   4.217  13.056  0.1614 -0.2710  0.1629
 6782TIP3    H141837   1.678   4.183  12.988  1.8605  1.3125  0.7814
 6782TIP3    H241838   1.664   4.296  13.089 -1.7554  0.3039  1.4877
 6783TIP3   OH241839   5.162   0.220  14.216  0.0599  0.1399 -0.3268
 6783TIP3    H141840   5.093   0.154  14.226 -0.2714  0.4177 -0.7179
 6783TIP3    H241841   5.228   0.196  14.280 -1.2521  0.9464  1.3824
 6784TIP3   OH241842   6.391   5.440  15.222  0.1298 -0.0281 -0.0406
 6784TIP3    H141843   6.342   5.358  15.218 -1.5022  0.8928  0.4193
 6784TIP3    H241844   6.443   5.442  15.141 -0.7532 -0.9325 -0.6364
 6785TIP3   OH241845   1.703   6.818  16.179 -0.4684 -0.2832 -0.2597
 6785TIP3    H141846   1.756   6.847  16.105 -0.7068 -1.2013 -0.8031
 6785TIP3    H241847   1.615   6.852  16.159 -0.2726  0.4982  0.2063
 6786TIP3   OH241848   3.845   0.669  11.749  0.0347 -0.0110  0.4689
 6786TIP3    H141849   3.822   0.699  11.661  2.0825  0.1153 -0.0546
 6786TIP3    H241850   3.823   0.576  11.750  2.3211 -0.6241 -1.0655
 6787TIP3   OH241851   4.913   5.183   1.514  0.0794  0.3472 -0.2680
 6787TIP3    H141852   4.827   5.143   1.498  0.1640  0.1442 -0.2251
 6787TIP3    H241853   4.929   5.168   1.608 -0.3774  1.4539 -0.0029
 6788TIP3   OH241854   4.599   6.205  15.747  0.0773  0.2550  0.3587
 6788TIP3    H141855   4.539   6.275  15.723  0.4478  0.3298 -0.3773
 6788TIP3    H241856   4.573   6.179  15.836 -1.1327  0.1662 -0.0190
 6789TIP3   OH241857   5.026   3.798   4.737 -0.4456  1.2720 -0.0883
 6789TIP3    H141858   4.970   3.874   4.748 -0.1081  1.1707  2.9368
 6789TIP3    H241859   5.103   3.817   4.791 -0.6847 -1.4614  1.3497
 6790TIP3   OH241860   5.695   0.557  14.754  0.4922 -0.0090 -0.1615
 6790TIP3    H141861   5.689   0.574  14.848 -2.7690 -0.3134 -0.2536
 6790TIP3    H241862   5.665   0.639  14.713 -1.2325 -0.9491 -0.8393
 6791TIP3   OH241863   4.158   4.732   1.295  0.1378  0.0213 -0.4691
 6791TIP3    H141864   4.089   4.798   1.292 -0.3840 -0.3763  1.8045
 6791TIP3    H241865   4.216   4.760   1.366  0.3107 -1.5563  0.0537
 6792TIP3   OH241866   5.302   0.293  14.997 -0.0378  0.4094 -0.3365
 6792TIP3    H141867   5.361   0.223  14.968  0.3059  0.2141  0.8061
 6792TIP3    H241868   5.349   0.374  14.978  0.9246  0.2367  1.2164
 6793TIP3   OH241869   1.478   1.144  13.392  0.1867  0.3923  0.2324
 6793TIP3    H141870   1.510   1.234  13.394 -1.2032  1.0134 -2.5498
 6793TIP3    H241871   1.383   1.151  13.404 -0.1018 -0.5537 -1.3154
 6794TIP3   OH241872   2.808   2.495   3.074  0.2909 -0.0891  0.2169
 6794TIP3    H141873   2.786   2.539   3.156 -1.6319 -1.6584  0.5740
 6794TIP3    H241874   2.726   2.457   3.043  1.7853 -3.1977 -0.2162
 6795TIP3   OH241875   2.610   2.492  16.626 -0.0560 -0.1246 -0.3936
 6795TIP3    H141876   2.580   2.464  16.712 -0.0214  1.3174  0.1017
 6795TIP3    H241877   2.700   2.460  16.619  0.2857  0.6180  0.5234
 6796TIP3   OH241878   4.450   2.434  13.562  0.4950 -0.0012 -0.5240
 6796TIP3    H141879   4.438   2.460  13.653  0.6892  0.6108 -0.6684
 6796TIP3    H241880   4.533   2.385  13.562  0.0031 -0.8517 -0.2091
 6797TIP3   OH241881   5.994   4.597  14.166 -0.1604  0.1366  0.0842
 6797TIP3    H141882   5.942   4.659  14.218 -1.5321  0.3081 -1.4587
 6797TIP3    H241883   5.941   4.517  14.164  1.7046 -1.2236  2.2584
 6798TIP3   OH241884   5.890   1.008  16.516  0.2764  0.0132  0.4994
 6798TIP3    H141885   5.962   0.962  16.559  0.7456 -0.5918 -0.9125
 6798TIP3    H241886   5.869   0.955  16.439 -0.6519  0.9921  0.0571
 6799TIP3   OH241887   5.417   3.043  14.882 -0.3608 -0.2893 -0.5628
 6799TIP3    H141888   5.509   3.022  14.902  0.2220  1.3148 -1.5172
 6799TIP3    H241889   5.374   3.045  14.968  0.4580 -1.1407 -0.1115
 6800TIP3   OH241890   5.407   3.248  14.174  0.4017  0.1344 -0.0939
 6800TIP3    H141891   5.367   3.201  14.248  1.1812 -0.8992 -0.3161
 6800TIP3    H241892   5.353   3.326  14.163 -0.4096 -0.2846  0.8346
 6801TIP3   OH241893   3.771   5.606   4.030  0.5056 -0.3247  0.1254
 6801TIP3    H141894   3.712   5.680   4.015 -0.3606 -0.7449  1.3790
 6801TIP3    H241895   3.846   5.643   4.077  1.3128  0.2289 -1.5580
 6802TIP3   OH241896   3.782   6.690   3.744 -0.1220  0.3625  0.2572
 6802TIP3    H141897   3.716   6.731   3.688  0.6652  1.3290  0.0305
 6802TIP3    H241898   3.852   6.755   3.751  1.9109 -1.5475 -1.4355
 6803TIP3   OH241899   2.700   3.364  15.814  0.3584 -0.3985  0.1640
 6803TIP3    H141900   2.630   3.308  15.781  0.1539  0.0182 -0.1242
 6803TIP3    H241901   2.675   3.384  15.904 -0.3093  0.4074 -0.1979
 6804TIP3   OH241902   1.499   4.854  15.861  0.0406  0.5561  0.2703
 6804TIP3    H141903   1.442   4.931  15.859 -0.2236  0.3375 -1.1472
 6804TIP3    H241904   1.458   4.792  15.800 -0.3285 -1.1365  2.1583
 6805TIP3   OH241905   5.303   1.342   3.679  0.4745 -0.5778 -0.1126
 6805TIP3    H141906   5.337   1.410   3.620  0.4635  0.0722  0.6184
 6805TIP3    H241907   5.230   1.303   3.631  0.8642 -0.4927 -0.7900
 6806TIP3   OH241908   5.839   6.464   6.077 -0.5288  0.8714 -0.5301
 6806TIP3    H141909   5.875   6.378   6.059 -1.0527  0.4336  0.4567
 6806TIP3    H241910   5.897   6.501   6.144 -0.2528  1.3235 -1.0142
 6807TIP3   OH241911   6.467   6.394   0.736 -0.5024  0.0486  0.0478
 6807TIP3    H141912   6.387   6.434   0.770 -0.7940 -0.9107  0.5144
 6807TIP3    H241913   6.436   6.323   0.680  0.0206 -0.5651  0.5224
 6808TIP3   OH241914   5.146   4.166   4.386  0.0651  0.0458  0.0234
 6808TIP3    H141915   5.107   4.208   4.463 -0.0484 -0.1126  0.0509
 6808TIP3    H241916   5.078   4.172   4.319 -0.2736 -0.8455  0.2730
 6809TIP3   OH241917   1.609   3.598   5.080  0.2548  0.5785 -0.5371
 6809TIP3    H141918   1.515   3.613   5.090  0.0272 -0.7338 -0.5881
 6809TIP3    H241919   1.639   3.579   5.169 -0.0175 -1.5919 -0.8841
 6810TIP3   OH241920   3.429   2.144  16.832  0.3188 -0.0798 -0.0053
 6810TIP3    H141921   3.353   2.179  16.785 -0.4567 -0.7678  0.7270
 6810TIP3    H241922   3.484   2.221  16.849  0.5790  0.1953 -1.9585
 6811TIP3   OH241923   0.014   5.178   2.105  0.5420  0.4274  0.1597
 6811TIP3    H141924  -0.026   5.196   2.190  0.6849  0.8846  0.1301
 6811TIP3    H241925  -0.051   5.206   2.041 -0.4721 -1.9382  0.1138
 6812TIP3   OH241926   2.258   3.804   0.330 -0.2843  0.6093 -0.3265
 6812TIP3    H141927   2.249   3.899   0.325  1.1745  0.6499 -2.6899
 6812TIP3    H241928   2.232   3.772   0.243  2.1784 -0.8785 -0.5712
 6813TIP3   OH241929   0.813   4.021   5.824 -0.5736  0.1602  0.1524
 6813TIP3    H141930   0.817   3.997   5.732 -2.1705 -0.1699  0.1574
 6813TIP3    H241931   0.904   4.038   5.848 -0.1222  0.0817 -1.4304
 6814TIP3   OH241932   1.187   0.815  10.742  0.1622  0.2532 -0.2446
 6814TIP3    H141933   1.183   0.720  10.746 -1.8813  0.2674 -1.1964
 6814TIP3    H241934   1.155   0.844  10.827 -2.1912  0.0957 -1.0400
 6815TIP3   OH241935   4.927   5.161  16.482  0.2892 -0.0203  0.2834
 6815TIP3    H141936   4.864   5.170  16.553 -0.4621 -2.7250  0.0208
 6815TIP3    H241937   5.005   5.126  16.523  0.6569  0.6369  0.1494
 6816TIP3   OH241938   6.706   6.028  15.361 -0.5128 -0.1292 -0.0526
 6816TIP3    H141939   6.796   5.995  15.358 -0.7357 -0.7567  0.1681
 6816TIP3    H241940   6.714   6.121  15.338  0.3226  0.0941  1.1128
 6817TIP3   OH241941   3.776   4.867   5.051 -0.4599 -0.0621 -0.6198
 6817TIP3    H141942   3.687   4.878   5.017 -1.0896  0.2354  1.1110
 6817TIP3    H241943   3.830   4.920   4.993 -1.4147 -0.1215 -1.5976
 6818TIP3   OH241944   1.555   0.238   0.306  0.5254 -0.1362  0.0066
 6818TIP3    H141945   1.584   0.251   0.396 -1.4554 -0.1015  0.6628
 6818TIP3    H241946   1.595   0.310   0.257  3.6216 -1.5279  0.3368
 6819TIP3   OH241947   1.677   0.330   0.531 -0.3010 -0.2494  0.2931
 6819TIP3    H141948   1.692   0.236   0.544  0.7173 -0.2884 -1.1253
 6819TIP3    H241949   1.703   0.370   0.614  1.0007 -1.0460  0.2799
 6820TIP3   OH241950   1.126   3.605   5.006 -0.4861  0.5804  0.2596
 6820TIP3    H141951   1.102   3.696   5.024  0.3562  0.8754 -0.0976
 6820TIP3    H241952   1.216   3.597   5.037  0.0102  0.3254 -1.2279
 6821TIP3   OH241953   1.479   4.116   2.105 -0.2763 -0.3181 -0.4100
 6821TIP3    H141954   1.455   4.084   2.017  0.9397 -0.1306 -0.8180
 6821TIP3    H241955   1.555   4.172   2.090  1.2825 -1.9818  1.0161
 6822TIP3   OH241956   1.369   2.621   6.571 -0.1675 -1.0270  0.0062
 6822TIP3    H141957   1.360   2.538   6.524 -0.0302 -0.8984 -0.2519
 6822TIP3    H241958   1.280   2.658   6.572 -0.1359 -0.9394 -0.3265
 6823TIP3   OH241959   1.849   5.474   4.688  0.4604 -0.3380  0.4085
 6823TIP3    H141960   1.925   5.460   4.632  2.0009  0.7680  2.1446
 6823TIP3    H241961   1.860   5.409   4.758  0.6573  0.8093  1.4730
 6824TIP3   OH241962   4.496   4.631   5.696  0.1459  0.1931  0.1894
 6824TIP3    H141963   4.464   4.548   5.731  2.3658 -1.5808 -1.7982
 6824TIP3    H241964   4.440   4.649   5.620  1.2954 -0.8958 -0.9500
 6825TIP3   OH241965   0.756   5.920  16.863  0.2812  0.2869 -0.1521
 6825TIP3    H141966   0.836   5.912  16.914 -0.5618  0.4677  1.2345
 6825TIP3    H241967   0.731   6.012  16.873  0.5911  0.5372 -1.6387
 6826TIP3   OH241968   3.162   0.376  13.891  0.0689  0.1899  0.1856
 6826TIP3    H141969   3.093   0.438  13.914  0.6198  1.2488 -0.9352
 6826TIP3    H241970   3.238   0.406  13.940 -0.0008 -0.4011  0.6668
 6827TIP3   OH241971   5.325   3.432   5.579  0.0063 -0.7930  0.4876
 6827TIP3    H141972   5.296   3.465   5.664 -1.3890 -0.1325 -0.2277
 6827TIP3    H241973   5.262   3.363   5.557  0.3581 -0.9558 -0.0120
 6828TIP3   OH241974   2.363   6.029   1.144 -0.4037  0.6980 -1.2348
 6828TIP3    H141975   2.325   6.035   1.231  1.9609 -0.9131 -0.0109
 6828TIP3    H241976   2.297   5.984   1.092 -0.0880 -2.5294  0.9652
 6829TIP3   OH241977   5.020   2.738   5.941  0.0254  0.4484  0.4807
 6829TIP3    H141978   4.978   2.824   5.949 -0.6946  0.1811 -0.3873
 6829TIP3    H241979   5.012   2.699   6.029  0.3936  1.2744  0.8896
 6830TIP3   OH241980   4.087   2.465   4.761 -0.2001 -0.5256  0.1218
 6830TIP3    H141981   4.180   2.443   4.763 -0.1564 -0.2819  3.3559
 6830TIP3    H241982   4.063   2.475   4.853 -3.2769  0.0872 -0.6994
 6831TIP3   OH241983   2.282   0.167  10.517  0.2389 -0.1330 -0.0968
 6831TIP3    H141984   2.224   0.201  10.449  0.7495  2.6924  0.8227
 6831TIP3    H241985   2.226   0.107  10.567 -1.5608  1.5887  0.0126
 6832TIP3   OH241986   6.506   6.662  14.284 -0.0960 -0.0603  0.7271
 6832TIP3    H141987   6.532   6.719  14.356 -0.1162  0.3208  0.4308
 6832TIP3    H241988   6.588   6.633  14.244 -0.0536 -0.9555  1.4304
 6833TIP3   OH241989   5.629   0.134  13.943 -0.0501 -0.0678  0.1898
 6833TIP3    H141990   5.630   0.074  14.017 -2.0483 -0.0569  0.2738
 6833TIP3    H241991   5.543   0.177  13.949  0.9967  2.1740 -0.3471
 6834TIP3   OH241992   4.131   5.413   3.180 -0.2816  0.4613  0.5491
 6834TIP3    H141993   4.098   5.503   3.170 -0.2490  0.5617  1.3615
 6834TIP3    H241994   4.226   5.424   3.192 -0.4255  0.3836  1.7692
 6835TIP3   OH241995   3.688   4.102  16.552  0.6401  0.4236 -0.1541
 6835TIP3    H141996   3.706   4.176  16.609  1.0850  0.7194 -0.6885
 6835TIP3    H241997   3.636   4.043  16.607 -1.5769  2.0907 -0.3866
 6836TIP3   OH241998   6.473   6.716  16.347  0.4216  0.7077  0.1647
 6836TIP3    H141999   6.554   6.760  16.324  0.1663  1.3904  0.5492
 6836TIP3    H242000   6.428   6.703  16.263  0.1383  1.9104  0.1154
 6837TIP3   OH242001   6.307   0.790  11.127  0.0864  0.4072  0.3189
 6837TIP3    H142002   6.265   0.781  11.042 -0.5836  0.7882  0.6063
 6837TIP3    H242003   6.388   0.739  11.119 -0.7593 -0.9118 -0.0093
 6838TIP3   OH242004   0.811   2.094  12.218 -0.0021 -0.5562 -0.4078
 6838TIP3    H142005   0.770   2.069  12.301  0.5318  0.7336  0.2408
 6838TIP3    H242006   0.830   2.010  12.175 -0.6254 -1.2193  0.5944
 6839TIP3   OH242007   3.032   3.548  11.933 -0.5275  0.0076 -0.1633
 6839TIP3    H142008   2.954   3.520  11.981  0.8544 -1.8687  1.0412
 6839TIP3    H242009   3.055   3.632  11.972 -1.9308  0.5903 -0.5417
 6840TIP3   OH242010   5.981   3.474  11.340  0.0463  0.7672 -0.2153
 6840TIP3    H142011   5.993   3.384  11.311  1.1748  0.2549  1.7359
 6840TIP3    H242012   6.070   3.506  11.357 -0.4643  1.5283  1.1259
 6841TIP3   OH242013   1.640   2.079  12.091 -0.4870  0.4566 -0.4234
 6841TIP3    H142014   1.699   2.027  12.146 -2.1002 -1.0430 -0.0749
 6841TIP3    H242015   1.680   2.166  12.088  0.5580  0.0620  1.6312
 6842TIP3   OH242016   3.030   4.129   4.741 -0.3276  0.1253 -0.1360
 6842TIP3    H142017   3.031   4.059   4.807  2.0218 -0.7683 -1.0945
 6842TIP3    H242018   3.012   4.208   4.792 -1.6789 -0.9676  1.1434
 6843TIP3   OH242019   6.696   0.892  12.131 -0.1857 -0.2738 -0.0835
 6843TIP3    H142020   6.714   0.827  12.063  3.1744 -0.1960  0.6091
 6843TIP3    H242021   6.694   0.842  12.213 -0.4197  0.1183  0.1538
 6844TIP3   OH242022   4.629   3.172   4.630 -0.7150 -0.1037  0.6061
 6844TIP3    H142023   4.663   3.159   4.542 -2.4583 -1.3351  0.0599
 6844TIP3    H242024   4.619   3.266   4.640  3.3464  0.3491  1.0420
 6845TIP3   OH242025   2.300   2.786  11.195  0.6438  0.8485  0.0133
 6845TIP3    H142026   2.339   2.874  11.202 -0.5122  1.3845 -0.1864
 6845TIP3    H242027   2.373   2.730  11.168  1.2178  1.9076 -0.6966
 6846TIP3   OH242028   2.575   5.221   0.851  0.2702 -0.4336  0.2506
 6846TIP3    H142029   2.499   5.230   0.794  0.5907 -1.2759 -0.3299
 6846TIP3    H242030   2.631   5.158   0.805  1.9966  1.2960 -0.0571
 6847TIP3   OH242031   2.061   6.018  12.534  0.3244  0.6704  0.2269
 6847TIP3    H142032   1.971   5.989  12.519  0.1097  1.1193  0.6513
 6847TIP3    H242033   2.103   6.010  12.448 -0.5270  1.9243 -0.3239
 6848TIP3   OH242034   0.763   5.897  13.702 -0.6974 -0.0287 -0.3696
 6848TIP3    H142035   0.829   5.832  13.727  0.1001  0.9217  0.0157
 6848TIP3    H242036   0.752   5.951  13.780 -1.7335 -0.0003 -0.5267
 6849TIP3   OH242037   1.837   4.400  11.569  0.0088 -0.1086  0.0685
 6849TIP3    H142038   1.780   4.419  11.494  0.7974 -1.4616 -0.9185
 6849TIP3    H242039   1.806   4.316  11.602  1.2767 -0.7506 -0.3393
 6850TIP3   OH242040   5.464   3.478   4.060  0.4770  0.1202  0.1716
 6850TIP3    H142041   5.545   3.504   4.102 -0.8148  1.2222  2.0402
 6850TIP3    H242042   5.400   3.473   4.131 -0.7965 -2.0087 -1.0617
 6851TIP3   OH242043   5.767   6.558   5.824  0.2165  0.5898  0.4344
 6851TIP3    H142044   5.812   6.519   5.749 -0.6106  1.2878 -0.4349
 6851TIP3    H242045   5.813   6.523   5.900  0.4111 -0.9420 -0.3578
 6852TIP3   OH242046   4.154   2.784   1.899  0.4961 -0.0220  0.2548
 6852TIP3    H142047   4.107   2.848   1.952  1.5983  1.0252 -0.0303
 6852TIP3    H242048   4.239   2.824   1.881  0.6058 -0.8817 -1.2727
 6853TIP3   OH242049   4.924   5.418  11.942  0.5218 -0.0364 -0.2841
 6853TIP3    H142050   4.829   5.405  11.934  0.8598 -1.5679 -2.4596
 6853TIP3    H242051   4.941   5.501  11.897  0.3991 -0.6937 -1.5929
 6854TIP3   OH242052   5.957   4.326   0.660 -0.3448  0.4522  0.0832
 6854TIP3    H142053   6.005   4.395   0.615 -1.1750 -0.0223 -1.5527
 6854TIP3    H242054   6.016   4.251   0.658  0.0615  0.7456  0.7824
 6855TIP3   OH242055   6.449   4.361   4.859 -0.3043 -0.1220 -0.5958
 6855TIP3    H142056   6.400   4.306   4.798 -1.4874  1.3243 -0.9866
 6855TIP3    H242057   6.397   4.361   4.939  0.3944 -0.6662 -0.1374
 6856TIP3   OH242058   2.624   6.165  11.873 -0.8406  0.4278 -0.1711
 6856TIP3    H142059   2.716   6.158  11.847 -0.8280 -0.8406  0.2208
 6856TIP3    H242060   2.602   6.080  11.909 -1.8033  1.1265  0.9391
 6857TIP3   OH242061   6.014   6.361   0.435  0.2340 -0.0526  0.1874
 6857TIP3    H142062   5.952   6.383   0.365  1.1160  1.4315 -0.1504
 6857TIP3    H242063   6.095   6.405   0.409  0.9133 -0.5085  1.5250
 6858TIP3   OH242064   0.210   3.155  12.877 -0.9825 -0.5017  0.5540
 6858TIP3    H142065   0.248   3.178  12.792 -1.5501 -1.7076 -0.0306
 6858TIP3    H242066   0.243   3.222  12.937 -0.5708  0.3507 -0.6157
 6859TIP3   OH242067   4.719   2.520   2.433  0.4771  0.0562 -0.3442
 6859TIP3    H142068   4.779   2.484   2.369 -0.8621  0.7323 -2.0344
 6859TIP3    H242069   4.637   2.532   2.385 -0.4483  0.9437  1.3878
 6860TIP3   OH242070   3.896   1.815   0.934 -0.0472 -0.6342  0.4156
 6860TIP3    H142071   3.831   1.874   0.896  0.0059 -1.1338 -0.4696
 6860TIP3    H242072   3.980   1.858   0.915 -0.0733 -0.3943  0.8401
 6861TIP3   OH242073   4.935   4.671   5.085  0.9342  0.6540  0.1383
 6861TIP3    H142074   4.860   4.620   5.054  0.5733  1.4325 -0.2877
 6861TIP3    H242075   4.921   4.680   5.179 -1.0062  3.1759 -0.3223
 6862TIP3   OH242076   0.230   6.248   4.244 -0.2220  0.0060 -0.4781
 6862TIP3    H142077   0.167   6.214   4.308 -1.5724 -0.0739 -1.8395
 6862TIP3    H242078   0.266   6.327   4.286  0.1968 -1.0095  1.1071
 6863TIP3   OH242079   2.294   6.515   5.018 -0.0405 -0.3168  0.0898
 6863TIP3    H142080   2.345   6.572   5.076  0.2983 -0.3970 -0.1212
 6863TIP3    H242081   2.265   6.443   5.074  1.0558 -0.8695 -0.0280
 6864TIP3   OH242082   4.472   4.390   5.846  0.1225  0.4603  0.3239
 6864TIP3    H142083   4.452   4.404   5.939  0.5252 -0.8236  0.6098
 6864TIP3    H242084   4.541   4.324   5.846  0.0918  0.4239 -0.8916
 6865TIP3   OH242085   5.482   0.653   1.687  0.0474 -0.6055 -0.4552
 6865TIP3    H142086   5.482   0.557   1.682 -0.7878 -0.7780  2.4008
 6865TIP3    H242087   5.571   0.677   1.661  0.9418 -2.2983  0.8757
 6866TIP3   OH242088   5.078   2.304  12.604 -0.6721 -0.1479  0.5159
 6866TIP3    H142089   5.164   2.300  12.562  0.0297  0.4334  1.8715
 6866TIP3    H242090   5.036   2.220  12.583  0.1527 -0.3604 -0.2845
 6867TIP3   OH242091   3.145   0.547   4.146  0.3616 -0.2441  0.1860
 6867TIP3    H142092   3.177   0.463   4.114 -2.9738 -1.5908  0.1695
 6867TIP3    H242093   3.138   0.602   4.068  1.2045 -0.3823  0.0020
 6868TIP3   OH242094   0.119   6.403   1.312  0.2295 -0.1807 -0.3081
 6868TIP3    H142095   0.120   6.368   1.224  1.2910 -0.7764 -0.0752
 6868TIP3    H242096   0.057   6.349   1.360  0.0798 -0.2176 -0.5470
 6869TIP3   OH242097   0.699   1.845  15.677  0.0316  0.1367  0.1791
 6869TIP3    H142098   0.716   1.879  15.589 -0.9243  0.2922  0.0513
 6869TIP3    H242099   0.637   1.772  15.664  1.6844 -1.3669  0.4943
 6870TIP3   OH242100   4.641   0.172  11.493  0.1724 -0.4359 -0.3176
 6870TIP3    H142101   4.582   0.169  11.418 -0.0580  2.0778 -0.2823
 6870TIP3    H242102   4.582   0.181  11.569  0.4040 -2.8840  0.1759
 6871TIP3   OH242103   4.910   1.622  11.184  0.0059  0.0566 -0.0984
 6871TIP3    H142104   4.970   1.687  11.148  0.4294 -0.1723  0.1918
 6871TIP3    H242105   4.834   1.673  11.214 -0.5368  0.1962 -1.6986
 6872TIP3   OH242106   4.715   0.038   5.274 -0.2935 -0.0974  0.1147
 6872TIP3    H142107   4.729   0.069   5.185  0.1459 -0.7640 -0.0449
 6872TIP3    H242108   4.644  -0.025   5.268  2.3705 -3.1816 -0.4114
 6873TIP3   OH242109   3.437   1.778   6.772  0.4808  0.2428 -0.5036
 6873TIP3    H142110   3.511   1.735   6.729  1.6818  0.8060  0.9699
 6873TIP3    H242111   3.363   1.720   6.755  1.2979 -0.4456 -1.8025
 6874TIP3   OH242112   5.489   3.861   3.376  0.0055  0.0783  0.0293
 6874TIP3    H142113   5.537   3.790   3.333 -1.2511 -1.3430  0.9199
 6874TIP3    H242114   5.446   3.819   3.451  0.8723  2.1889  1.7508
 6875TIP3   OH242115   5.212   2.830   3.090 -0.2974 -0.1414  0.2919
 6875TIP3    H142116   5.216   2.744   3.049 -0.6445 -0.0369  0.0381
 6875TIP3    H242117   5.135   2.827   3.147  1.6407 -1.1900  3.0159
 6876TIP3   OH242118   0.079   5.570   4.465  0.7205 -0.1458 -0.1639
 6876TIP3    H142119   0.053   5.525   4.546  0.9532 -0.5935 -0.3360
 6876TIP3    H242120   0.155   5.521   4.434  0.9971  0.3887 -0.3397
 6877TIP3   OH242121   4.636   3.770   3.528  0.0248 -0.1962 -0.3252
 6877TIP3    H142122   4.629   3.838   3.594  1.9106 -0.3175  0.0470
 6877TIP3    H242123   4.646   3.817   3.445 -1.6090 -0.0422 -0.4378
 6878TIP3   OH242124   3.547   0.354   1.667 -0.0158  0.2360  0.0997
 6878TIP3    H142125   3.488   0.397   1.729  0.6360  1.8052 -0.3208
 6878TIP3    H242126   3.507   0.370   1.581 -0.7784 -1.6988  0.0756
 6879TIP3   OH242127   2.183   1.198   2.870  0.3211  0.0288 -0.4202
 6879TIP3    H142128   2.193   1.247   2.952 -0.6224 -1.0782  0.3605
 6879TIP3    H242129   2.246   1.239   2.811 -0.0796  1.8578  0.3750
 6880TIP3   OH242130   0.091   3.146   1.517  0.3626 -0.1013 -0.0218
 6880TIP3    H142131   0.068   3.069   1.466 -0.5602 -0.6375  1.1989
 6880TIP3    H242132   0.081   3.120   1.608  2.0130  0.8498  0.4641
 6881TIP3   OH242133   5.764   1.178   4.668 -0.1067  0.3642  0.2697
 6881TIP3    H142134   5.720   1.118   4.728  0.8643 -1.6610 -0.9989
 6881TIP3    H242135   5.856   1.172   4.691 -0.0891  1.9856  0.6562
 6882TIP3   OH242136   2.876   2.116  13.483 -0.0152 -0.1279  0.0997
 6882TIP3    H142137   2.785   2.145  13.491 -0.2849 -0.9992  0.1965
 6882TIP3    H242138   2.905   2.152  13.399 -1.2765 -2.0523 -1.2059
 6883TIP3   OH242139   4.514   4.455  12.910  0.1560 -0.0382 -0.1918
 6883TIP3    H142140   4.543   4.398  12.839  1.2814  1.1364 -0.6951
 6883TIP3    H242141   4.489   4.536  12.866  1.0553  0.7647  0.7788
 6884TIP3   OH242142   1.641   4.596   5.936  0.1145 -0.1510 -0.1851
 6884TIP3    H142143   1.575   4.534   5.904  0.0673  0.8519 -2.1440
 6884TIP3    H242144   1.620   4.607   6.029  1.2793 -4.4307  0.6760
 6885TIP3   OH242145   1.320   3.560   4.132 -0.8203  0.3627  0.0559
 6885TIP3    H142146   1.325   3.568   4.227 -1.8667  1.5049  0.0298
 6885TIP3    H242147   1.409   3.578   4.102 -0.5165  0.1421  0.8154
 6886TIP3   OH242148   5.551   4.637   0.062  0.5092  0.1202 -0.2660
 6886TIP3    H142149   5.536   4.543   0.062  2.1278 -0.1508 -0.5250
 6886TIP3    H242150   5.594   4.655   0.146 -0.5979  0.7630  0.1690
 6887TIP3   OH242151   0.267   6.122   6.174  0.4079  0.6133 -0.6385
 6887TIP3    H142152   0.313   6.191   6.221  0.6765  0.5177 -0.7602
 6887TIP3    H242153   0.231   6.066   6.243  1.0246  0.3265 -0.5441
 6888TIP3   OH242154   1.083   4.424   4.204  0.2365 -0.0211  0.1162
 6888TIP3    H142155   1.033   4.504   4.187 -0.5559 -0.0855  2.0503
 6888TIP3    H242156   1.017   4.359   4.228  1.1881 -0.1561  2.5218
 6889TIP3   OH242157   5.590   0.379   1.249  0.2788  0.1188  0.3778
 6889TIP3    H142158   5.671   0.338   1.220 -0.1237  0.1745 -0.8514
 6889TIP3    H242159   5.528   0.365   1.177 -1.3143 -1.3710  1.9686
 6890TIP3   OH242160   4.270   0.444   0.680  0.0460 -0.6256  0.3031
 6890TIP3    H142161   4.222   0.524   0.699 -0.1996 -0.4663 -0.9916
 6890TIP3    H242162   4.251   0.424   0.589  0.1366 -2.1401  0.5905
 6891TIP3   OH242163   4.644   2.210   4.306  0.3072 -0.1544 -0.2325
 6891TIP3    H142164   4.680   2.123   4.287  1.6460  0.1762  0.7046
 6891TIP3    H242165   4.693   2.269   4.248 -0.7259 -0.0287 -0.9994
 6892TIP3   OH242166   3.574   2.892   2.701  0.0732 -0.2112 -0.4954
 6892TIP3    H142167   3.553   2.979   2.669  2.6013  0.4072 -0.5589
 6892TIP3    H242168   3.593   2.904   2.794 -0.7890 -0.9261 -0.2128
 6893TIP3   OH242169   2.317   4.350   3.409 -0.1392 -0.2388  0.4731
 6893TIP3    H142170   2.345   4.259   3.395 -2.1328 -0.8397  0.1601
 6893TIP3    H242171   2.349   4.397   3.332  1.4777 -0.5222  0.9547
 6894TIP3   OH242172   0.120   5.635  12.021  0.6629  0.2805 -0.2527
 6894TIP3    H142173   0.106   5.642  11.927 -0.8951 -0.0689 -0.0611
 6894TIP3    H242174   0.111   5.725  12.054  0.2798  0.2680 -0.3220
 6895TIP3   OH242175   1.992   1.476   5.528  0.5703  0.7208  0.3343
 6895TIP3    H142176   1.942   1.400   5.557  0.6167  0.0989 -1.2046
 6895TIP3    H242177   1.951   1.550   5.573 -0.5987  0.0020  0.4497
 6896TIP3   OH242178   5.458   3.009  16.795 -0.1165  0.1901  0.4367
 6896TIP3    H142179   5.464   3.042  16.884 -3.7310  1.3645  0.3055
 6896TIP3    H242180   5.501   3.075  16.741  0.6450  0.2524  1.1241
 6897TIP3   OH242181   1.083   5.992   4.665 -0.1113 -0.1753 -0.0017
 6897TIP3    H142182   1.100   5.905   4.629 -0.6234 -0.6416  0.8727
 6897TIP3    H242183   1.003   6.021   4.621  0.5901  0.2583 -1.0015
 6898TIP3   OH242184   3.796   4.252   5.014  0.0164 -0.0614 -0.1310
 6898TIP3    H142185   3.875   4.208   5.047  0.1262 -1.2550 -1.8912
 6898TIP3    H242186   3.821   4.344   5.007  1.6731 -0.6072 -1.8171
 6899TIP3   OH242187   2.339   2.569   4.865  0.1183 -0.3285  0.1468
 6899TIP3    H142188   2.298   2.552   4.949  1.2593 -1.2112  0.5311
 6899TIP3    H242189   2.361   2.662   4.868 -2.1726  0.2563 -0.2268
 6900TIP3   OH242190   2.028   0.434   6.530 -0.1209 -0.3219  0.0613
 6900TIP3    H142191   1.938   0.463   6.518 -0.5367 -1.9765 -0.9026
 6900TIP3    H242192   2.022   0.357   6.587  0.7643  0.0394  0.6687
 6901TIP3   OH242193   5.439   1.839  13.130  0.3389  0.4990  0.1269
 6901TIP3    H142194   5.467   1.856  13.041  1.5263 -0.6968  0.2632
 6901TIP3    H242195   5.518   1.809  13.176 -0.5417 -0.2166  1.2236
 6902TIP3   OH242196   1.937   3.664  13.317  0.4598  0.7170 -0.0338
 6902TIP3    H142197   2.015   3.667  13.372  1.5919 -0.1734 -1.5755
 6902TIP3    H242198   1.938   3.577  13.277 -0.5181  1.2259 -1.2115
 6903TIP3   OH242199   3.206   2.272  16.212 -0.6518 -0.0549  0.0079
 6903TIP3    H142200   3.187   2.261  16.119 -0.4932  0.7413 -0.1263
 6903TIP3    H242201   3.215   2.367  16.223  2.1532 -0.3080  0.2455
 6904TIP3   OH242202   3.013   0.938   1.967 -0.6564 -0.2088 -0.5606
 6904TIP3    H142203   3.006   0.854   1.920  0.3367 -0.1291 -0.8616
 6904TIP3    H242204   3.034   1.002   1.899  3.4193 -0.5151  0.2815
 6905TIP3   OH242205   5.059   2.976   4.517  0.0441 -0.1732  0.0454
 6905TIP3    H142206   5.064   2.889   4.557  1.2058  0.7414  1.9630
 6905TIP3    H242207   5.006   3.028   4.578  1.0887  1.0039 -0.0327
 6906TIP3   OH242208   4.676   2.489   2.134 -0.6071  0.2188  0.5361
 6906TIP3    H142209   4.761   2.499   2.091 -0.5299 -2.1623  0.0692
 6906TIP3    H242210   4.625   2.565   2.106  0.5359  0.3685 -1.1674
 6907TIP3   OH242211   3.742   5.970   5.469 -0.9469 -0.0828 -0.0364
 6907TIP3    H142212   3.725   5.879   5.492  1.2390 -0.1222  1.5826
 6907TIP3    H242213   3.835   5.983   5.490 -1.7321  3.1149  1.7495
 6908TIP3   OH242214   0.900   5.453   3.598 -0.4400 -0.0468  0.8843
 6908TIP3    H142215   0.929   5.401   3.523 -1.5642  0.3172  0.1802
 6908TIP3    H242216   0.805   5.459   3.587 -0.5657  0.3326  2.1365
 6909TIP3   OH242217   4.005   1.614   5.152  0.4205  0.1391  0.2590
 6909TIP3    H142218   4.070   1.685   5.145  0.7205 -0.3881 -4.0754
 6909TIP3    H242219   4.057   1.534   5.146 -0.1571 -0.4519  2.6880
 6910TIP3   OH242220   1.322   0.462   6.739 -0.1947  0.0411  0.0856
 6910TIP3    H142221   1.263   0.388   6.726  0.0543 -0.2691  0.6742
 6910TIP3    H242222   1.364   0.444   6.824  0.0966  0.6951  0.0829
 6911TIP3   OH242223   4.355   3.860   5.555  0.2826 -0.2074  0.1033
 6911TIP3    H142224   4.332   3.798   5.624 -0.1187  0.3190  0.4490
 6911TIP3    H242225   4.434   3.903   5.586  0.5567 -0.5422 -0.1331
 6912TIP3   OH242226   2.251   5.956  12.343 -0.2401  0.3279  0.3091
 6912TIP3    H142227   2.259   5.912  12.259 -1.1213  3.3489 -1.4152
 6912TIP3    H242228   2.340   5.957  12.378  0.7371  1.8470 -2.0952
 6913TIP3   OH242229   2.905   5.757  16.503 -0.3684 -0.5864 -0.0171
 6913TIP3    H142230   2.883   5.708  16.424 -0.4802 -0.5206 -0.0260
 6913TIP3    H242231   2.999   5.772  16.496 -0.5685  0.4071 -0.6872
 6914TIP3   OH242232   2.865   0.793   5.664 -0.1163  0.3253 -0.0861
 6914TIP3    H142233   2.900   0.815   5.577 -1.0774  0.1051 -0.5365
 6914TIP3    H242234   2.772   0.779   5.649 -0.5502  1.7072  1.2488
 6915TIP3   OH242235   1.755   4.370   2.030 -0.0328  0.6010  0.0645
 6915TIP3    H142236   1.796   4.285   2.040 -0.6344  0.4829  1.7742
 6915TIP3    H242237   1.827   4.431   2.017  0.4346 -0.0764 -0.5461
 6916TIP3   OH242238   2.931   5.316   0.801 -0.8391  0.0876  0.0549
 6916TIP3    H142239   2.864   5.279   0.857 -0.1554 -1.4676 -0.1273
 6916TIP3    H242240   2.925   5.410   0.815 -1.5624 -0.1897  1.7229
 6917TIP3   OH242241   2.191   3.279  15.550 -0.0377  0.3072  0.2445
 6917TIP3    H142242   2.156   3.271  15.462  1.2277 -0.1356 -0.2278
 6917TIP3    H242243   2.124   3.328  15.598 -1.2069 -0.3609 -0.6768
 6918TIP3   OH242244   6.444   3.889  15.174  0.0232  0.1557  0.1366
 6918TIP3    H142245   6.445   3.794  15.160  1.2221  0.0776  0.6860
 6918TIP3    H242246   6.442   3.926  15.086 -0.0416 -0.3749 -0.0911
 6919TIP3   OH242247   1.172   3.832  12.272 -0.1818 -0.0642 -0.5174
 6919TIP3    H142248   1.266   3.816  12.271 -0.2547 -0.8177  2.2049
 6919TIP3    H242249   1.155   3.880  12.191  2.6020  0.4550 -0.8295
 6920TIP3   OH242250   5.692   5.879  17.017  0.6820  0.1572  0.3302
 6920TIP3    H142251   5.639   5.839  17.086 -0.3820  3.0625  1.2799
 6920TIP3    H242252   5.631   5.936  16.970  1.5617 -1.2047 -2.6060
 6921TIP3   OH242253   5.270   0.077   0.301  0.4255 -0.3446  0.1813
 6921TIP3    H142254   5.327   0.096   0.376 -0.1279  0.8102  0.3133
 6921TIP3    H242255   5.194   0.033   0.340  0.7800 -1.0177  0.1207
 6922TIP3   OH242256   4.909   6.592  14.208 -0.1687  0.8732  0.5583
 6922TIP3    H142257   4.944   6.633  14.288  0.4912  2.6583 -0.6109
 6922TIP3    H242258   4.987   6.572  14.156 -0.6636  0.9493 -0.2124
 6923TIP3   OH242259   3.852   3.908  16.133 -0.7029 -0.1041  0.1351
 6923TIP3    H142260   3.882   3.968  16.201  1.7104 -2.3161  1.0757
 6923TIP3    H242261   3.830   3.965  16.059 -1.2967  2.1507  1.9994
 6924TIP3   OH242262   1.529   0.227   2.358  0.2318 -0.7912 -0.0369
 6924TIP3    H142263   1.490   0.186   2.436 -0.6168  0.2995  0.1265
 6924TIP3    H242264   1.592   0.289   2.394 -0.5674  0.1205 -0.1968
 6925TIP3   OH242265   3.418   6.359  15.845 -0.2187 -0.1384 -0.1269
 6925TIP3    H142266   3.425   6.274  15.802  0.1284 -0.8364  1.2916
 6925TIP3    H242267   3.334   6.356  15.892  0.2248 -0.0632  0.6823
 6926TIP3   OH242268   6.373   1.893   2.722 -0.3178  0.2668 -0.0120
 6926TIP3    H142269   6.464   1.881   2.747 -0.5134  1.0113  1.0822
 6926TIP3    H242270   6.375   1.904   2.627  0.8046  0.8999  0.0792
 6927TIP3   OH242271   5.692   4.454  16.325 -0.1892  0.5168 -0.5255
 6927TIP3    H142272   5.680   4.533  16.378 -0.1078  0.6764 -0.7493
 6927TIP3    H242273   5.762   4.476  16.264  0.2210  0.0843 -0.2189
 6928TIP3   OH242274   5.519   0.346   2.336 -0.4396 -0.4883  0.0629
 6928TIP3    H142275   5.531   0.431   2.376 -0.1152 -1.4085  1.9603
 6928TIP3    H242276   5.448   0.305   2.386 -1.1243 -1.0397 -1.3194
 6929TIP3   OH242277   1.053   0.798   2.717  0.4469  0.4531  0.1976
 6929TIP3    H142278   0.994   0.863   2.756  2.2061  1.4163  1.3141
 6929TIP3    H242279   0.994   0.733   2.678 -1.3493  2.1325  0.0259
 6930TIP3   OH242280   0.950   6.732   5.220 -0.1144  0.0288 -0.2171
 6930TIP3    H142281   1.031   6.734   5.168  0.8796 -0.4139  1.2998
 6930TIP3    H242282   0.918   6.643   5.210  0.3522 -0.2044  0.3353
 6931TIP3   OH242283   3.054   0.751  14.727  0.2510  0.0191 -0.1172
 6931TIP3    H142284   3.013   0.809  14.791  1.0131  1.0171 -0.5273
 6931TIP3    H242285   2.991   0.746  14.655 -0.1283 -0.2363  0.2317
 6932TIP3   OH242286   6.173   3.083   3.493 -0.0274  0.1076  0.5268
 6932TIP3    H142287   6.117   3.038   3.556 -0.1693 -0.3034  0.1065
 6932TIP3    H242288   6.262   3.057   3.516 -0.1458 -0.8225 -0.0614
 6933TIP3   OH242289   5.941   0.375  14.492  0.2628  0.8217  0.2486
 6933TIP3    H142290   6.011   0.349  14.553 -0.2174 -0.4730  0.2492
 6933TIP3    H242291   5.936   0.303  14.429  1.6932  2.7710 -2.1892
 6934TIP3   OH242292   3.439   2.031   4.404 -0.3974 -1.0241  0.2820
 6934TIP3    H142293   3.414   1.938   4.404  0.6072 -1.2951  0.9316
 6934TIP3    H242294   3.476   2.046   4.491 -3.2003  0.7185  1.2711
 6935TIP3   OH242295   2.495   0.339  12.203  0.0349 -0.1104  0.6286
 6935TIP3    H142296   2.523   0.430  12.209 -1.4587  0.4177 -0.1182
 6935TIP3    H242297   2.499   0.319  12.109  2.4631 -1.5159  0.9991
 6936TIP3   OH242298   1.487   5.109   1.090  0.3690 -0.1812  0.3314
 6936TIP3    H142299   1.422   5.141   1.153  0.4408 -0.0035  0.3162
 6936TIP3    H242300   1.486   5.014   1.100 -0.8593 -0.2721 -0.6065
 6937TIP3   OH242301   1.681   4.153  11.614  0.9605 -0.3328 -0.2195
 6937TIP3    H142302   1.621   4.083  11.589 -0.1016 -0.1934  1.8850
 6937TIP3    H242303   1.745   4.111  11.672  0.2377  0.4458  1.1590
 6938TIP3   OH242304   6.787   0.876   3.501 -0.2837 -0.5708  0.2512
 6938TIP3    H142305   6.818   0.963   3.474  1.3239 -1.7757 -1.9277
 6938TIP3    H242306   6.708   0.862   3.448 -0.2512 -0.6462  0.2228
 6939TIP3   OH242307   2.978   3.748  13.449 -0.0146 -0.1443  0.1196
 6939TIP3    H142308   3.023   3.810  13.505  0.3933  0.4210 -0.8183
 6939TIP3    H242309   2.891   3.785  13.436  0.2881  0.3324 -0.5870
 6940TIP3   OH242310   5.192   4.626  14.775 -0.8441  0.5598  0.5258
 6940TIP3    H142311   5.197   4.585  14.861 -0.0398  0.3938  0.4045
 6940TIP3    H242312   5.156   4.713  14.793  0.5765  1.0176  1.1967
 6941TIP3   OH242313   0.255   6.268   4.624  0.1886 -0.2415 -0.1787
 6941TIP3    H142314   0.205   6.223   4.556  0.9039 -1.5458  0.1345
 6941TIP3    H242315   0.264   6.203   4.694  0.5318  0.6737  0.6387
 6942TIP3   OH242316   0.453   3.693   3.245 -0.0937 -0.1416 -0.7735
 6942TIP3    H142317   0.469   3.606   3.282  1.5231  0.1835 -0.6572
 6942TIP3    H242318   0.513   3.750   3.292 -0.5752  0.9005 -1.4127
 6943TIP3   OH242319   2.235   3.369  14.565  0.0193  0.0653  0.5568
 6943TIP3    H142320   2.156   3.422  14.572 -0.3196 -0.3173 -0.3443
 6943TIP3    H242321   2.306   3.432  14.562 -0.2257  0.4082  1.6083
 6944TIP3   OH242322   1.312   4.222  13.852 -0.0572 -0.2754 -0.3082
 6944TIP3    H142323   1.249   4.174  13.799 -1.5603  2.0563 -0.7082
 6944TIP3    H242324   1.265   4.244  13.933  1.8203 -2.7161  1.5122
 6945TIP3   OH242325   3.697   4.291   1.395  0.2307 -0.4967  0.1387
 6945TIP3    H142326   3.777   4.284   1.344  0.5046 -1.4523  0.6952
 6945TIP3    H242327   3.712   4.366   1.452  0.5810 -0.4499 -0.0114
 6946TIP3   OH242328   2.307   4.604   5.011  0.0585 -0.5110  0.4053
 6946TIP3    H142329   2.264   4.529   4.970  0.2130  0.3691 -1.4162
 6946TIP3    H242330   2.359   4.643   4.941  0.4972  0.9205  1.5005
 6947TIP3   OH242331   0.749   4.967   4.832 -0.5551 -0.0109 -0.4855
 6947TIP3    H142332   0.840   4.963   4.803 -0.4863 -0.4731 -0.2233
 6947TIP3    H242333   0.722   4.875   4.837 -1.1733  0.1383 -0.9920
 6948TIP3   OH242334   6.069   2.813  10.923 -0.0830 -0.0905 -0.2152
 6948TIP3    H142335   5.991   2.860  10.952  0.3805  0.7210 -0.2632
 6948TIP3    H242336   6.133   2.882  10.905  0.4534 -0.7168 -0.7429
 6949TIP3   OH242337   2.757   0.059  16.037  0.3320  0.1447  0.0835
 6949TIP3    H142338   2.751   0.146  15.997 -1.0893 -0.5001 -1.1504
 6949TIP3    H242339   2.739  -0.001  15.965 -0.5375 -1.1013  1.3343
 6950TIP3   OH242340   3.074   6.597   6.537 -0.4769 -0.4032 -0.2043
 6950TIP3    H142341   3.135   6.529   6.566 -0.2511 -0.6485 -1.2530
 6950TIP3    H242342   2.992   6.551   6.523 -0.5472 -0.3101 -0.0997
 6951TIP3   OH242343   3.807   4.974  11.124 -0.7651  0.0887 -0.0962
 6951TIP3    H142344   3.728   4.987  11.071 -0.6526  1.8297  0.1195
 6951TIP3    H242345   3.844   5.062  11.133  0.2564 -0.4635  1.2581
 6952TIP3   OH242346   0.657   4.744   0.613 -0.5766 -0.0611 -0.0512
 6952TIP3    H142347   0.626   4.811   0.673 -2.8199 -0.6354 -0.5205
 6952TIP3    H242348   0.702   4.792   0.543  0.6810  0.7062  1.2709
 6953TIP3   OH242349   5.753   0.583  12.523 -0.0234 -0.4431  0.6536
 6953TIP3    H142350   5.751   0.602  12.617 -0.2508  1.5076  0.2801
 6953TIP3    H242351   5.839   0.614  12.495 -1.2921  2.2926 -0.4042
 6954TIP3   OH242352   3.083   0.584   2.220 -0.3108  0.1963 -1.0637
 6954TIP3    H142353   3.175   0.600   2.195 -0.0855  0.4532 -0.0807
 6954TIP3    H242354   3.032   0.627   2.151  0.3090  1.0648 -0.9962
 6955TIP3   OH242355   2.101   4.256  15.729 -0.1891 -0.0861  0.6814
 6955TIP3    H142356   2.068   4.292  15.647  0.7685 -1.6794 -0.4443
 6955TIP3    H242357   2.025   4.256  15.788 -0.6076  2.0932  0.1772
 6956TIP3   OH242358   2.566   3.991  15.622  0.3425 -0.9093  0.2216
 6956TIP3    H142359   2.629   4.062  15.635 -0.5384  0.3028 -1.9543
 6956TIP3    H242360   2.515   3.990  15.703  1.3604 -0.1219  0.8961
 6957TIP3   OH242361   5.074   0.420   3.196 -0.7111 -0.4906  0.4331
 6957TIP3    H142362   5.073   0.475   3.274 -1.3866 -0.6208  0.5232
 6957TIP3    H242363   4.984   0.387   3.189 -0.6675 -0.4608 -0.4086
 6958TIP3   OH242364   4.503   1.382  15.079  0.1108 -0.1200  0.0447
 6958TIP3    H142365   4.555   1.307  15.051  0.5149  0.3383 -0.4613
 6958TIP3    H242366   4.545   1.457  15.036 -0.0904  0.4320  0.7943
 6959TIP3   OH242367   0.774   1.072  10.708 -0.1205 -0.1152 -0.2587
 6959TIP3    H142368   0.813   1.019  10.777  0.5307  1.0785  0.3148
 6959TIP3    H242369   0.844   1.131  10.681 -1.1075  1.1276 -0.1735
 6960TIP3   OH242370   2.059   3.903   1.008  0.1001  0.9956 -0.0468
 6960TIP3    H142371   2.055   3.999   1.010 -0.2113  0.9649  2.2223
 6960TIP3    H242372   2.152   3.883   1.022 -0.1281  0.9540  1.4813
 6961TIP3   OH242373   5.641   2.555  14.503  0.1346  0.3010  0.3781
 6961TIP3    H142374   5.636   2.493  14.430 -0.5948  1.8870 -0.9431
 6961TIP3    H242375   5.565   2.534  14.557  1.6329 -2.0342  1.6472
 6962TIP3   OH242376   6.067   2.947   3.721  0.1978 -0.9362 -0.5075
 6962TIP3    H142377   6.099   2.858   3.739 -0.4442 -1.2376 -0.8223
 6962TIP3    H242378   6.001   2.935   3.652  0.1157 -0.2110 -0.5606
 6963TIP3   OH242379   0.226   5.712  11.409 -0.3304  0.2154 -0.0372
 6963TIP3    H142380   0.239   5.755  11.325 -1.7656 -1.1487 -0.9742
 6963TIP3    H242381   0.142   5.744  11.440  0.5899  1.3857  1.3119
 6964TIP3   OH242382   6.653   6.529   4.086 -0.0482  0.1189 -0.8547
 6964TIP3    H142383   6.687   6.554   4.172 -1.7939  0.2340 -0.1757
 6964TIP3    H242384   6.688   6.595   4.026  0.3320  0.6566 -0.0499
 6965TIP3   OH242385   4.027   0.675  12.491 -0.7321 -0.3303  0.3871
 6965TIP3    H142386   4.082   0.746  12.459 -0.4299 -1.2851 -1.2814
 6965TIP3    H242387   3.942   0.716  12.508 -0.4907  0.4882 -0.3588
 6966TIP3   OH242388   6.356   4.665   0.329  0.0272 -0.2988 -0.3137
 6966TIP3    H142389   6.376   4.654   0.422 -0.9876  3.5667  0.4830
 6966TIP3    H242390   6.321   4.754   0.323 -2.2606 -1.3316 -4.0321
 6967TIP3   OH242391   0.081   4.131   6.049  0.0769 -0.6336  0.4412
 6967TIP3    H142392   0.148   4.192   6.081 -0.5566  0.4383 -0.2512
 6967TIP3    H242393   0.006   4.147   6.106  0.3142 -1.6299  1.0310
 6968TIP3   OH242394   2.769   2.792  12.643  0.4249  0.0370  0.4610
 6968TIP3    H142395   2.845   2.850  12.645  0.3482  0.1153  1.1495
 6968TIP3    H242396   2.754   2.768  12.734  1.3082 -2.1772  0.0477
 6969TIP3   OH242397   1.411   2.316   0.646  0.4499  0.2443  0.6759
 6969TIP3    H142398   1.449   2.250   0.704  0.6130  0.4552  0.8077
 6969TIP3    H242399   1.323   2.283   0.627  0.9389 -0.5895 -0.1820
 6970TIP3   OH242400   2.965   5.090   4.376  0.2622 -0.3388 -0.1815
 6970TIP3    H142401   3.007   5.131   4.300 -1.1155 -0.5417 -1.0630
 6970TIP3    H242402   2.981   5.151   4.448  1.3275  0.0009 -0.6962
 6971TIP3   OH242403   4.638   2.018   2.676  0.4019  0.5202 -0.2603
 6971TIP3    H142404   4.730   2.027   2.651  1.0177 -1.5107  1.0800
 6971TIP3    H242405   4.628   1.925   2.696 -1.5076  1.0065  1.2482
 6972TIP3   OH242406   1.179   6.187  12.808  0.4714  0.3303  0.7818
 6972TIP3    H142407   1.225   6.103  12.808 -1.0829 -0.5582 -0.5187
 6972TIP3    H242408   1.200   6.226  12.893  1.8516 -1.0026  1.0829
 6973TIP3   OH242409   1.397   6.369   5.381 -0.4629 -0.3551  0.3214
 6973TIP3    H142410   1.328   6.436   5.376  0.1383  0.2824  0.5328
 6973TIP3    H242411   1.422   6.355   5.290 -0.5597 -0.2591  0.2787
 6974TIP3   OH242412   3.704   2.054  15.965  0.1837 -0.1046  0.0537
 6974TIP3    H142413   3.679   2.145  15.948 -0.5081  0.1606  2.2988
 6974TIP3    H242414   3.643   2.002  15.914 -0.8213  0.6713  0.4423
 6975TIP3   OH242415   3.082   0.306  15.469 -0.0707  0.3387 -0.0236
 6975TIP3    H142416   3.043   0.286  15.384 -1.1619  1.2671  0.2540
 6975TIP3    H242417   3.044   0.390  15.494  2.1725  1.3172  0.2316
 6976TIP3   OH242418   1.391   5.844  15.683 -0.3133 -0.7881 -0.1942
 6976TIP3    H142419   1.418   5.887  15.764  0.7904 -0.0861 -0.9180
 6976TIP3    H242420   1.301   5.814  15.701 -1.0787  1.6909  0.4145
 6977TIP3   OH242421   4.322   3.221  13.730 -0.2293 -0.3681 -0.0344
 6977TIP3    H142422   4.227   3.215  13.728 -0.3037  0.6985  0.1398
 6977TIP3    H242423   4.346   3.245  13.641 -0.2651  1.3190  0.4042
 6978TIP3   OH242424   5.956   5.841   4.753  0.4932 -0.0629  0.0408
 6978TIP3    H142425   5.876   5.827   4.702  1.4408 -1.1791 -1.1655
 6978TIP3    H242426   5.963   5.936   4.762 -0.6091  0.0681 -0.3994
 6979TIP3   OH242427   3.606   4.305   0.334  0.2166 -0.2530 -0.1616
 6979TIP3    H142428   3.674   4.318   0.401 -1.6946 -0.5935  1.8945
 6979TIP3    H242429   3.649   4.255   0.265  2.2217  0.0458  0.8407
 6980TIP3   OH242430   6.296   5.570   0.242  0.8372 -0.2032  0.3693
 6980TIP3    H142431   6.380   5.533   0.269  1.1847 -0.2568 -0.7297
 6980TIP3    H242432   6.285   5.648   0.297  1.6032 -0.2028  0.5301
 6981TIP3   OH242433   2.921   3.348   2.931  0.4902 -0.5391  0.1935
 6981TIP3    H142434   2.832   3.380   2.916  0.8446 -0.2621 -1.3463
 6981TIP3    H242435   2.972   3.428   2.948  0.2450 -0.7796  2.2815
 6982TIP3   OH242436   0.938   0.820  13.745 -0.1543  0.7420  0.2865
 6982TIP3    H142437   0.846   0.796  13.759 -0.2452 -0.0846 -1.6758
 6982TIP3    H242438   0.970   0.842  13.833 -1.0848 -2.9676  1.6496
 6983TIP3   OH242439   0.606   0.894   2.145 -0.2825  0.1555  0.6371
 6983TIP3    H142440   0.571   0.978   2.116 -1.3341 -0.3846  0.2919
 6983TIP3    H242441   0.549   0.868   2.218 -0.8243 -0.8922 -0.1462
 6984TIP3   OH242442   6.257   2.361  15.713 -0.1502 -0.3330 -0.2749
 6984TIP3    H142443   6.176   2.404  15.739 -0.1079 -0.8675  0.7804
 6984TIP3    H242444   6.325   2.427  15.725 -0.4292  0.1292 -1.2058
 6985TIP3   OH242445   2.344   0.181  14.441  0.2392  0.4424 -0.4184
 6985TIP3    H142446   2.346   0.120  14.515 -0.9475  0.1670 -0.6039
 6985TIP3    H242447   2.432   0.177  14.404  0.7692  0.3690  0.8037
 6986TIP3   OH242448   2.405   5.482   6.178  0.1516  0.2897  0.2327
 6986TIP3    H142449   2.349   5.521   6.245  1.3653  0.4703  1.1446
 6986TIP3    H242450   2.428   5.395   6.212  1.8557  0.9009  0.6648
 6987TIP3   OH242451   6.437   1.260  12.037 -0.3061  0.2139  0.3887
 6987TIP3    H142452   6.459   1.346  12.002 -0.5026  0.3086  0.4948
 6987TIP3    H242453   6.341   1.257  12.034 -0.2622 -0.3970 -0.5586
 6988TIP3   OH242454   2.640   6.489  12.849  0.3616 -0.8392  0.3941
 6988TIP3    H142455   2.720   6.517  12.892  0.6038 -1.7246  0.5244
 6988TIP3    H242456   2.622   6.402  12.884 -1.7274  0.1331  1.8339
 6989TIP3   OH242457   4.185   0.198  16.941 -0.0740  0.2871 -0.4341
 6989TIP3    H142458   4.092   0.219  16.947 -0.3355 -1.3055  2.4496
 6989TIP3    H242459   4.229   0.269  16.989 -0.2431 -1.1878  2.0144
 6990TIP3   OH242460   0.818   1.823  16.122 -0.6616 -0.2288  0.8308
 6990TIP3    H142461   0.765   1.768  16.179 -2.8061 -2.5251 -3.1780
 6990TIP3    H242462   0.755   1.866  16.064  1.4857  1.0524 -0.6169
 6991TIP3   OH242463   4.470   6.634  13.403 -0.3119 -0.5823 -0.4286
 6991TIP3    H142464   4.464   6.710  13.345 -0.6248 -1.8583 -2.0923
 6991TIP3    H242465   4.509   6.669  13.483 -1.2753  1.5087 -0.8337
 6992TIP3   OH242466   4.237   5.070   2.452  0.4750 -0.2253  0.5610
 6992TIP3    H142467   4.227   5.165   2.440  2.8262 -0.1439 -1.2000
 6992TIP3    H242468   4.324   5.051   2.417 -0.0844 -3.0875  0.6169
 6993TIP3   OH242469   0.888   4.406   2.939 -0.6247  0.5449 -0.0476
 6993TIP3    H142470   0.897   4.449   3.024  1.1795  2.4872 -1.1547
 6993TIP3    H242471   0.943   4.328   2.945  2.0230  2.3060 -0.3968
 6994TIP3   OH242472   1.744   1.361   4.190  0.2363 -0.5728 -0.5621
 6994TIP3    H142473   1.710   1.450   4.183  0.8091 -0.3169 -0.1253
 6994TIP3    H242474   1.675   1.313   4.237 -0.2467 -0.4590 -1.1582
 6995TIP3   OH242475   0.209   6.435  14.907 -0.4115  0.1444 -0.5255
 6995TIP3    H142476   0.216   6.474  14.820  0.2636  1.1095 -0.0547
 6995TIP3    H242477   0.193   6.342  14.891 -2.1249  0.6168 -1.6734
 6996TIP3   OH242478   6.686   5.470  14.317  0.2625  0.1550  0.0907
 6996TIP3    H142479   6.641   5.549  14.284  0.3115 -0.1699 -0.7731
 6996TIP3    H242480   6.741   5.502  14.388 -0.2111  0.8029  0.1737
 6997TIP3   OH242481   6.228   4.012   5.971 -0.3402 -0.3444 -0.1082
 6997TIP3    H142482   6.315   3.979   5.952 -1.5887 -3.8850 -0.1209
 6997TIP3    H242483   6.172   3.976   5.902 -1.9963  0.9619  0.5008
 6998TIP3   OH242484   2.804   3.421   0.823 -0.3325 -0.1431  0.2080
 6998TIP3    H142485   2.886   3.460   0.852 -0.4957  0.8804 -0.7040
 6998TIP3    H242486   2.755   3.406   0.904  0.8977 -1.1157  0.7883
 6999TIP3   OH242487   3.613   3.290  11.880 -0.5719  0.1748 -0.5486
 6999TIP3    H142488   3.624   3.331  11.966 -1.5033 -1.2612  0.2822
 6999TIP3    H242489   3.529   3.322  11.848 -1.1587 -0.8231 -0.0328
 7000TIP3   OH242490   1.611   0.615  12.178 -0.3662  0.1810  0.2095
 7000TIP3    H142491   1.618   0.653  12.265 -0.6408 -0.8594  0.6981
 7000TIP3    H242492   1.552   0.540  12.189 -0.6148  0.1934 -0.9218
 7001TIP3   OH242493   6.450   6.281   2.737  0.1300  0.4527  0.2795
 7001TIP3    H142494   6.379   6.235   2.692 -0.4789  0.6503  1.0075
 7001TIP3    H242495   6.525   6.222   2.732 -0.7569 -0.8161  1.5605
 7002TIP3   OH242496   0.765   2.343  11.076  0.0851 -0.1753  0.0386
 7002TIP3    H142497   0.828   2.272  11.062 -0.3768  0.1330 -4.6105
 7002TIP3    H242498   0.808   2.421  11.042 -0.9149  1.0442  1.5014
 7003TIP3   OH242499   6.660   1.146   4.532 -0.2386  0.0111 -0.1243
 7003TIP3    H142500   6.675   1.052   4.532  0.5067  0.1126 -1.7899
 7003TIP3    H242501   6.747   1.185   4.526 -0.6290  0.7692 -1.1486
 7004TIP3   OH242502   2.548   2.849  12.220 -0.0811 -0.7252  0.1081
 7004TIP3    H142503   2.554   2.771  12.275 -1.3184 -0.3486  0.8179
 7004TIP3    H242504   2.584   2.920  12.274 -1.0605 -0.4017  0.3545
 7005TIP3   OH242505   1.621   3.737   2.943 -0.7217 -0.3050  0.1900
 7005TIP3    H142506   1.626   3.739   2.848  2.6219  1.3326  0.3359
 7005TIP3    H242507   1.656   3.651   2.967  3.2091  1.1663  0.0692
 7006TIP3   OH242508   0.681   3.972   4.933 -0.0648 -0.2995  0.2442
 7006TIP3    H142509   0.611   4.009   4.879 -0.0729  1.6512  1.5465
 7006TIP3    H242510   0.755   3.961   4.872 -0.9996 -0.9312 -0.7876
 7007TIP3   OH242511   0.227   3.206   3.712 -0.1064  0.0935 -0.1418
 7007TIP3    H142512   0.134   3.220   3.730  0.0463  0.7564  0.1380
 7007TIP3    H242513   0.271   3.227   3.795  0.2184 -1.0762 -0.0017
 7008TIP3   OH242514   1.899   6.684   1.367  0.4790  0.7069  0.1156
 7008TIP3    H142515   1.805   6.686   1.351  0.5908 -0.1134 -0.6656
 7008TIP3    H242516   1.909   6.627   1.443  0.5090 -0.9436 -1.1016
 7009TIP3   OH242517   0.333   5.071   2.753 -0.0222 -0.0605 -0.3572
 7009TIP3    H142518   0.306   5.162   2.737  0.4013 -0.1062 -1.4019
 7009TIP3    H242519   0.416   5.063   2.706 -0.5202 -1.2594 -1.0406
 7010TIP3   OH242520   2.281   1.046   0.044  0.1843 -0.0744  0.1077
 7010TIP3    H142521   2.268   1.035  -0.050  4.2782 -1.4852 -0.3745
 7010TIP3    H242522   2.358   1.103   0.051 -1.8591  2.5130  2.6715
 7011TIP3   OH242523   4.672   2.452  14.867 -0.0142 -0.0209 -0.0209
 7011TIP3    H142524   4.739   2.489  14.925  0.5319 -1.9929  0.6559
 7011TIP3    H242525   4.603   2.424  14.927  0.3402 -1.6329 -0.3626
 7012TIP3   OH242526   5.336   3.267  13.829 -0.3512  0.5287 -0.5864
 7012TIP3    H142527   5.409   3.295  13.884 -0.7752 -0.2233  0.3842
 7012TIP3    H242528   5.269   3.334  13.843 -0.6207  0.1075  0.1642
 7013TIP3   OH242529   0.085   5.114  14.419  0.1413  0.5660 -0.4824
 7013TIP3    H142530   0.134   5.067  14.352 -0.8160  1.2857 -1.7155
 7013TIP3    H242531   0.065   5.199  14.378  0.0334  1.2234  0.9189
 7014TIP3   OH242532   1.452   6.271  17.163  0.0354  0.0395  0.9268
 7014TIP3    H142533   1.361   6.253  17.141 -0.4443  1.0568  2.0043
 7014TIP3    H242534   1.491   6.185  17.177  0.0931 -0.6143 -2.6731
 7015TIP3   OH242535   6.663   6.325  17.202 -0.4552  0.1235  0.1761
 7015TIP3    H142536   6.714   6.383  17.259 -2.1697 -0.4603  2.3950
 7015TIP3    H242537   6.727   6.260  17.172  0.8682  1.4932 -0.0328
 7016TIP3   OH242538   0.392   2.919  13.125  0.1397  0.2607 -0.2384
 7016TIP3    H142539   0.474   2.876  13.103 -0.2389 -0.4143 -0.3569
 7016TIP3    H242540   0.331   2.891  13.057 -0.0876  1.0603 -0.3635
 7017TIP3   OH242541   2.958   5.339  11.856  0.0225  0.5705 -0.1331
 7017TIP3    H142542   3.030   5.369  11.800 -0.3319  0.6438 -0.5570
 7017TIP3    H242543   2.884   5.395  11.831 -0.3027  0.1924 -0.0204
 7018TIP3   OH242544   2.824   6.547   0.481  0.3856  0.0347 -0.0031
 7018TIP3    H142545   2.893   6.491   0.445  1.0666  0.4760  0.6113
 7018TIP3    H242546   2.824   6.625   0.426  0.3076 -0.0144 -0.0712
 7019TIP3   OH242547   3.661   1.156   0.689 -0.0879  0.2866  0.2114
 7019TIP3    H142548   3.602   1.161   0.614  0.7040  0.9891 -0.3785
 7019TIP3    H242549   3.683   1.247   0.709  1.5406  0.0047 -0.1951
 7020TIP3   OH242550   4.560   3.455   2.547 -0.1149  0.0910 -0.1292
 7020TIP3    H142551   4.468   3.469   2.572 -0.2565  0.1605 -0.6803
 7020TIP3    H242552   4.578   3.524   2.483  0.3363  0.1034  0.0127
 7021TIP3   OH242553   5.916   4.025   2.364  0.1113 -0.6129  0.0946
 7021TIP3    H142554   5.932   4.019   2.459  0.4089  1.3990  0.1832
 7021TIP3    H242555   5.900   4.118   2.348 -0.1327 -0.9678 -1.8180
 7022TIP3   OH242556   3.209   2.646  12.837  0.0214  0.2093  0.5856
 7022TIP3    H142557   3.191   2.740  12.842  1.4213  0.4961  0.4177
 7022TIP3    H242558   3.165   2.609  12.914 -1.2983  0.8636  0.1615
 7023TIP3   OH242559   3.969   2.525   1.908  0.5916  0.2413 -0.2483
 7023TIP3    H142560   3.982   2.495   1.997  0.2329  1.4219  0.2111
 7023TIP3    H242561   4.046   2.579   1.889  0.5414  0.2077 -0.5544
 7024TIP3   OH242562   5.659   5.739  12.187  0.2261 -0.0573  0.0331
 7024TIP3    H142563   5.691   5.817  12.233 -0.8892  0.7904 -0.6013
 7024TIP3    H242564   5.646   5.675  12.257  1.3913  0.2354  0.5370
 7025TIP3   OH242565   0.358   5.250  15.575 -0.2074  0.2866 -0.0263
 7025TIP3    H142566   0.303   5.297  15.513 -2.4226 -0.5420  1.2404
 7025TIP3    H242567   0.360   5.306  15.653  0.5611  0.1937  0.0293
 7026TIP3   OH242568   0.495   6.684  15.248 -0.0638  0.0331  0.0078
 7026TIP3    H142569   0.467   6.765  15.292  0.4941  0.5878 -0.6456
 7026TIP3    H242570   0.588   6.698  15.230 -0.8143  0.7963 -3.4790
 7027TIP3   OH242571   5.847   5.264   5.125  0.1022  0.1372 -0.0567
 7027TIP3    H142572   5.850   5.235   5.034  1.8073  0.7430 -0.2193
 7027TIP3    H242573   5.859   5.359   5.121  0.4841  0.1333  0.7973
 7028TIP3   OH242574   5.303   2.804   4.398  0.3500  0.3088  0.1387
 7028TIP3    H142575   5.361   2.748   4.347  1.5174  1.5789  0.0297
 7028TIP3    H242576   5.245   2.844   4.334  0.1803 -0.0091  0.0960
 7029TIP3   OH242577   3.562   6.651   1.735  0.2120 -0.0921 -0.5008
 7029TIP3    H142578   3.581   6.700   1.814  1.7424  2.0614 -2.1318
 7029TIP3    H242579   3.495   6.703   1.690  2.1299  0.7850 -2.4328
 7030TIP3   OH242580   3.657   3.984   4.309  0.0239 -0.3496 -0.5812
 7030TIP3    H142581   3.577   3.934   4.290 -1.8531  2.2268  0.2126
 7030TIP3    H242582   3.667   3.979   4.404 -0.5171  1.2004 -0.4199
 7031TIP3   OH242583   3.789   4.662   5.841  0.5281  0.3337  0.5386
 7031TIP3    H142584   3.795   4.717   5.919  0.1444  0.6044  0.3801
 7031TIP3    H242585   3.710   4.609   5.855 -1.2546  2.4771 -0.9787
 7032TIP3   OH242586   0.443   0.059  15.459 -0.0682 -0.3099  0.4075
 7032TIP3    H142587   0.448   0.005  15.538  0.3392 -1.2192 -0.2353
 7032TIP3    H242588   0.488   0.140  15.483 -1.1775 -0.0217  1.5568
 7033TIP3   OH242589   3.024   2.772   5.177 -0.1468 -0.1671 -0.0184
 7033TIP3    H142590   3.106   2.737   5.143 -0.6910 -1.1947 -0.2866
 7033TIP3    H242591   3.045   2.801   5.266  0.8126  0.7579 -0.5279
 7034TIP3   OH242592   2.262   1.404   4.598 -0.3360 -0.0550 -0.1104
 7034TIP3    H142593   2.295   1.397   4.688  1.3149 -0.0905 -0.7068
 7034TIP3    H242594   2.223   1.318   4.580 -1.3060  0.1779  0.7992
 7035TIP3   OH242595   6.198   3.075   2.526 -0.9477 -0.4011 -0.3831
 7035TIP3    H142596   6.197   3.035   2.612 -1.9574  0.2676 -0.0716
 7035TIP3    H242597   6.273   3.036   2.482 -0.9477 -1.4034  0.4833
 7036TIP3   OH242598   0.867   3.249   5.200 -0.3763  0.3184 -0.2014
 7036TIP3    H142599   0.785   3.233   5.152 -0.9131  1.5320  0.2989
 7036TIP3    H242600   0.931   3.269   5.132 -0.1258 -2.0183 -0.7166
 7037TIP3   OH242601   5.343   2.395  10.554  0.1433 -0.0618  0.3069
 7037TIP3    H142602   5.412   2.461  10.551  0.6263 -0.5663  0.1252
 7037TIP3    H242603   5.368   2.332  10.487 -0.4780 -0.2662  0.2716
 7038TIP3   OH242604   6.252   6.265  16.920  0.2737 -0.2490 -0.2596
 7038TIP3    H142605   6.292   6.281  17.006  0.6450 -0.2354 -0.4336
 7038TIP3    H242606   6.277   6.341  16.868  1.9621 -1.3104 -1.0613
 7039TIP3   OH242607   1.245   4.292  11.584  0.1196  0.1084  0.2491
 7039TIP3    H142608   1.151   4.304  11.594  0.3885  0.7343  2.1041
 7039TIP3    H242609   1.283   4.375  11.613  1.2208  0.0707 -1.0483
 7040TIP3   OH242610   1.109   5.123   3.394 -0.3352 -0.2227 -0.7430
 7040TIP3    H142611   1.195   5.090   3.419 -0.7615 -0.0961  0.9283
 7040TIP3    H242612   1.119   5.147   3.302  0.8223 -2.1833 -1.1765
 7041TIP3   OH242613   4.687   6.556  16.250  0.6512 -0.2840 -0.0476
 7041TIP3    H142614   4.618   6.556  16.184  1.2255  1.5968 -0.6488
 7041TIP3    H242615   4.735   6.474  16.235 -0.1506 -0.5811 -0.9752
 7042TIP3   OH242616   5.884   1.610  17.264 -0.2592  0.1225  0.0995
 7042TIP3    H142617   5.801   1.629  17.220 -0.8612 -0.6188  0.8942
 7042TIP3    H242618   5.869   1.525  17.307  1.1920 -0.4436 -0.4746
 7043TIP3   OH242619   4.477   2.994   5.352 -0.3888 -0.4398 -0.3990
 7043TIP3    H142620   4.536   2.953   5.415 -0.4423  0.1315  0.0288
 7043TIP3    H242621   4.477   3.087   5.377 -2.4771 -0.6397  0.4215
 7044TIP3   OH242622   2.062   1.323   6.113  0.0408  0.2324  0.0067
 7044TIP3    H142623   2.110   1.404   6.128 -0.7748  0.3852  1.9983
 7044TIP3    H242624   2.075   1.272   6.193 -1.2145 -0.6878 -0.3567
 7045TIP3   OH242625   0.945   0.836  14.223 -0.4741 -0.1595  0.1573
 7045TIP3    H142626   1.024   0.798  14.262  0.1332  0.4563 -0.4773
 7045TIP3    H242627   0.881   0.837  14.295  0.4383  0.3717  0.9626
 7046TIP3   OH242628   5.302   0.905   3.959  0.5706  0.0726 -0.0590
 7046TIP3    H142629   5.356   0.933   4.032  0.7240 -1.7020  0.5361
 7046TIP3    H242630   5.282   0.813   3.977 -2.1999  0.5212 -0.5436
 7047TIP3   OH242631   1.511   6.292  14.472 -0.3259  0.3803  0.3275
 7047TIP3    H142632   1.454   6.225  14.435  0.4443  0.0492 -0.2624
 7047TIP3    H242633   1.453   6.345  14.527 -1.2838  0.3009 -0.5942
 7048TIP3   OH242634   1.338   5.241   4.790  0.5310 -0.3865  0.4202
 7048TIP3    H142635   1.333   5.336   4.794  0.0699 -0.4498  1.7613
 7048TIP3    H242636   1.431   5.222   4.774  0.2722  0.3203 -2.0704
 7049TIP3   OH242637   0.537   2.199  17.134  0.2499  0.5806 -0.3013
 7049TIP3    H142638   0.526   2.270  17.197 -0.0793 -0.4353  0.7991
 7049TIP3    H242639   0.613   2.151  17.166 -1.6293 -1.6366  0.9896
 7050TIP3   OH242640   5.743   3.555   2.312 -0.1813 -0.3948  0.0910
 7050TIP3    H142641   5.745   3.650   2.299 -2.5691 -0.5952 -2.4767
 7050TIP3    H242642   5.721   3.544   2.404  0.6474  1.5442  0.5529
 7051TIP3   OH242643   6.223   0.126   4.596  0.4375  0.1583  0.4666
 7051TIP3    H142644   6.245   0.108   4.505  0.8756 -1.4214  0.8728
 7051TIP3    H242645   6.301   0.101   4.645 -1.0396 -2.3670  1.6138
 7052TIP3   OH242646   6.623   1.791   1.272  0.4959 -0.0081  0.3278
 7052TIP3    H142647   6.586   1.785   1.360 -0.4955  3.4246  0.1875
 7052TIP3    H242648   6.717   1.799   1.286  0.4363 -0.4483  1.0224
 7053TIP3   OH242649   5.894   3.008  16.599 -0.1010 -0.2393  0.1773
 7053TIP3    H142650   5.950   3.023  16.675 -1.0169  0.1324  0.7883
 7053TIP3    H242651   5.917   2.921  16.568 -0.1175 -0.6179  1.2234
 7054TIP3   OH242652   1.998   5.443   4.440  0.0274 -0.4096  0.4760
 7054TIP3    H142653   2.046   5.377   4.389 -0.2029 -1.7416  1.9363
 7054TIP3    H242654   1.907   5.430   4.415 -0.1347 -1.3514  1.5185
 7055TIP3   OH242655   3.925   3.985  16.436 -0.5539 -0.1554 -0.7541
 7055TIP3    H142656   3.846   4.002  16.487  0.7287 -0.7257  1.4816
 7055TIP3    H242657   3.972   4.069  16.437  0.6372 -0.8184  1.1248
 7056TIP3   OH242658   0.438   4.033  16.155  0.1858 -0.2812 -0.1914
 7056TIP3    H142659   0.526   4.069  16.142 -0.4068  0.7052 -1.5648
 7056TIP3    H242660   0.404   4.017  16.067 -1.1111 -0.4010  0.3112
 7057TIP3   OH242661   0.882   0.769   0.817 -0.2185  0.7117  0.0830
 7057TIP3    H142662   0.814   0.718   0.862  0.9386  0.5195  1.6556
 7057TIP3    H242663   0.930   0.704   0.765  0.5663  0.3478  1.2334
 7058TIP3   OH242664   2.060   2.649   1.932  0.2117 -0.3148 -0.1361
 7058TIP3    H142665   1.998   2.720   1.950  0.7717 -0.0663  0.7971
 7058TIP3    H242666   2.143   2.693   1.913 -0.0267 -0.6214 -1.9710
 7059TIP3   OH242667   4.740   1.597  11.481  0.3333  0.2606  0.2719
 7059TIP3    H142668   4.723   1.672  11.538 -0.8646  1.0954 -1.1797
 7059TIP3    H242669   4.655   1.555  11.469  0.1399  1.4668 -2.8290
 7060TIP3   OH242670   1.882   1.944   1.372 -0.4761 -0.2354 -0.2248
 7060TIP3    H142671   1.821   1.871   1.359 -1.3100  0.0637  1.7916
 7060TIP3    H242672   1.937   1.916   1.445 -0.4104  0.8928  0.1649
 7061TIP3   OH242673   3.941   3.065   3.538 -0.4393 -0.3577 -0.4475
 7061TIP3    H142674   3.920   3.156   3.516  1.3001  0.1080 -0.2678
 7061TIP3    H242675   4.027   3.070   3.580 -0.8423 -1.9642  0.6121
 7062TIP3   OH242676   1.879   3.819   4.977  0.3448 -0.3613 -0.1917
 7062TIP3    H142677   1.829   3.826   5.058  1.5381  0.9337  0.4644
 7062TIP3    H242678   1.916   3.730   4.978  0.8189 -0.1603  0.9786
 7063TIP3   OH242679   5.259   6.016   4.750 -0.1886  0.3428  0.1029
 7063TIP3    H142680   5.210   5.991   4.671 -0.6189  0.6293  0.2727
 7063TIP3    H242681   5.191   6.045   4.811  0.1379  0.0357  0.6091
 7064TIP3   OH242682   6.189   2.444  13.632 -0.4412 -0.6371  0.0101
 7064TIP3    H142683   6.124   2.482  13.692 -1.7189 -0.3224 -1.5342
 7064TIP3    H242684   6.180   2.496  13.552  1.7940 -0.5480 -0.1902
 7065TIP3   OH242685   2.941   1.309   0.068  0.0649  0.3862 -0.1454
 7065TIP3    H142686   2.888   1.383   0.096  0.5501  0.6693  0.0335
 7065TIP3    H242687   2.904   1.233   0.114 -0.0086  0.6257  0.1867
 7066TIP3   OH242688   4.856   4.926  13.062  0.3059  0.3177 -0.4269
 7066TIP3    H142689   4.829   4.917  13.153  0.7898 -0.6038 -0.3662
 7066TIP3    H242690   4.939   4.972  13.066 -0.8495  2.4715 -0.5676
 7067TIP3   OH242691   0.681   4.676   3.906 -0.4681 -0.2048  0.0701
 7067TIP3    H142692   0.631   4.685   3.987 -0.7316 -2.2202  0.1747
 7067TIP3    H242693   0.704   4.765   3.881 -1.2583  0.5095  1.8189
 7068TIP3   OH242694   3.690   6.406  11.416 -0.7906 -0.6054  0.0584
 7068TIP3    H142695   3.714   6.459  11.492 -0.0883 -0.8204 -0.0024
 7068TIP3    H242696   3.609   6.445  11.383 -1.0872 -0.5002  0.9059
 7069TIP3   OH242697   6.739   0.391  10.822 -0.0287  0.2127 -0.3316
 7069TIP3    H142698   6.699   0.363  10.904 -0.2121 -1.5873 -1.0159
 7069TIP3    H242699   6.700   0.477  10.804 -0.1450  0.5237  1.3394
 7070TIP3   OH242700   5.524   5.834   5.426  0.5488  0.5049 -0.7721
 7070TIP3    H142701   5.451   5.796   5.475  2.4928 -0.4427  1.4407
 7070TIP3    H242702   5.487   5.851   5.339 -2.4412  0.5159  0.4320
 7071TIP3   OH242703   3.246   2.467  13.611 -0.2693 -0.9452 -0.6312
 7071TIP3    H142704   3.172   2.479  13.670 -0.9551 -1.1409 -1.4395
 7071TIP3    H242705   3.316   2.434  13.667  0.0045  1.6054  0.6271
 7072TIP3   OH242706   4.156   3.269   0.804 -0.7091 -0.2517 -0.1233
 7072TIP3    H142707   4.158   3.295   0.711  0.8279 -0.3026 -0.1147
 7072TIP3    H242708   4.188   3.346   0.850  0.5889 -0.9744  0.1894
 7073TIP3   OH242709   6.472   4.792   2.376  0.2400 -0.3637  0.2154
 7073TIP3    H142710   6.443   4.832   2.458  1.3396 -1.2797  1.0749
 7073TIP3    H242711   6.441   4.702   2.381  0.5492 -0.4960 -0.2441
 7074TIP3   OH242712   6.205   0.546  14.729 -0.3820 -0.2650  0.4010
 7074TIP3    H142713   6.202   0.625  14.784 -1.1175  0.8199 -1.1621
 7074TIP3    H242714   6.195   0.579  14.640 -0.4872 -2.1226 -0.2898
 7075TIP3   OH242715   4.995   5.000   5.419 -0.2380 -0.2318  1.0343
 7075TIP3    H142716   4.947   4.919   5.405  1.3221 -1.3060  1.7763
 7075TIP3    H242717   5.043   4.986   5.501  0.4576  1.2288  0.8948
 7076TIP3   OH242718   3.266   4.826  10.593  0.5050 -0.0011  0.1897
 7076TIP3    H142719   3.344   4.864  10.553  0.7582 -0.0857  0.6119
 7076TIP3    H242720   3.204   4.819  10.520  0.6399  0.7282 -0.0025
 7077TIP3   OH242721   2.284   1.997  16.350  0.2034 -1.3767  0.3439
 7077TIP3    H142722   2.307   2.048  16.273  0.2652 -0.0874  1.1924
 7077TIP3    H242723   2.363   1.947  16.370  1.1608  0.4693  1.2545
 7078TIP3   OH242724   2.402   6.135   0.841  0.3175  0.3756  0.2813
 7078TIP3    H142725   2.496   6.120   0.851  0.0426 -0.7162  1.2700
 7078TIP3    H242726   2.364   6.109   0.925 -1.0509 -0.6692 -0.6487
 7079TIP3   OH242727   6.114   3.268  13.006  0.5397  0.0477  0.2584
 7079TIP3    H142728   6.144   3.181  12.978  0.9151 -0.2303  1.4793
 7079TIP3    H242729   6.114   3.321  12.926  1.0894 -0.8580 -0.3473
 7080TIP3   OH242730   4.042   5.962   4.167  0.4229 -0.5321 -0.2079
 7080TIP3    H142731   4.131   5.996   4.177  0.1321  0.4401 -0.8393
 7080TIP3    H242732   3.993   6.006   4.236 -0.5995  2.6892 -2.8342
 7081TIP3   OH242733   0.646   3.173   2.954 -0.5193  0.0779  0.6238
 7081TIP3    H142734   0.671   3.228   2.880  0.7431  0.1119  1.0744
 7081TIP3    H242735   0.550   3.183   2.960 -0.6118  0.1696 -0.9121
 7082TIP3   OH242736   4.972   6.773   3.473 -0.9884  0.2678 -0.0087
 7082TIP3    H142737   4.941   6.717   3.402 -0.8820  1.9731 -1.4389
 7082TIP3    H242738   5.052   6.730   3.504 -2.1406 -1.5937  0.5055
 7083TIP3   OH242739   0.078   4.635  16.513  0.0428 -0.1712 -0.1067
 7083TIP3    H142740   0.172   4.645  16.520  0.2362 -1.4942 -0.6343
 7083TIP3    H242741   0.062   4.542  16.532 -1.3683  0.4704  2.0535
 7084TIP3   OH242742   3.698   1.315  15.784 -0.3731 -0.4155  0.3077
 7084TIP3    H142743   3.634   1.379  15.813  1.8814  1.5425  1.1768
 7084TIP3    H242744   3.782   1.361  15.790  1.1854 -3.0788 -0.1831
 7085TIP3   OH242745   3.858   2.973  16.753 -0.0801  0.3567 -0.3497
 7085TIP3    H142746   3.855   3.060  16.793 -0.0551  0.0588  0.3103
 7085TIP3    H242747   3.951   2.951  16.750 -0.0577  0.5149 -0.8807
 7086TIP3   OH242748   4.896   5.423  14.061  0.0172  0.8445 -0.0415
 7086TIP3    H142749   4.807   5.389  14.057  1.3403 -2.7794 -0.0558
 7086TIP3    H242750   4.909   5.444  14.154 -0.5108  0.3730  0.1436
 7087TIP3   OH242751   1.620   2.183  14.383  0.0598 -0.0157 -0.2698
 7087TIP3    H142752   1.700   2.150  14.424 -0.1866  2.6035  2.4633
 7087TIP3    H242753   1.634   2.277  14.374 -2.7006  0.5049  0.2706
 7088TIP3   OH242754   3.767   4.275   5.384  0.4139 -0.0736  0.3778
 7088TIP3    H142755   3.696   4.303   5.326  0.9403  0.0220 -0.2248
 7088TIP3    H242756   3.794   4.189   5.349  0.0026 -0.5189  1.1412
 7089TIP3   OH242757   3.091   1.499  15.998 -0.0902 -0.0701  0.0001
 7089TIP3    H142758   3.123   1.517  16.086  0.2170  0.0281 -0.1330
 7089TIP3    H242759   3.028   1.428  16.010 -0.0656 -0.0428  0.3002
 7090TIP3   OH242760   0.164   0.204   0.446 -0.3011  0.4196  0.1898
 7090TIP3    H142761   0.194   0.286   0.406  2.4861  0.2214  1.7555
 7090TIP3    H242762   0.153   0.226   0.538 -0.8795 -0.6274  0.3674
 7091TIP3   OH242763   2.365   0.048  15.722  0.4141  0.2171  0.4497
 7091TIP3    H142764   2.383   0.139  15.743  4.7924 -0.0681 -1.5062
 7091TIP3    H242765   2.438   0.021  15.666 -1.1657 -4.2683  0.3176
 7092TIP3   OH242766   6.021   4.027  11.648  0.2473  0.1455 -0.1527
 7092TIP3    H142767   6.039   3.988  11.563  0.8462  0.3460 -0.1171
 7092TIP3    H242768   6.105   4.027  11.693 -0.1813 -0.4747  0.6522
 7093TIP3   OH242769   3.920   2.596   4.142 -0.0771  0.0206 -0.2747
 7093TIP3    H142770   3.884   2.682   4.163  0.8783  0.1019  1.1066
 7093TIP3    H242771   3.896   2.542   4.217  0.8084 -0.4735 -0.3466
 7094TIP3   OH242772   2.547   0.487  13.013 -0.5404  0.4181  0.6263
 7094TIP3    H142773   2.619   0.424  13.007  0.0308  1.2410 -1.5916
 7094TIP3    H242774   2.543   0.509  13.106  0.9919 -0.8839  1.0266
 7095TIP3   OH242775   1.497   4.363  11.847 -0.1946  0.1684 -0.5505
 7095TIP3    H142776   1.473   4.299  11.914  1.7266  0.7547  0.7466
 7095TIP3    H242777   1.587   4.339  11.822  0.2472  1.8386 -0.6230
 7096TIP3   OH242778   5.300   1.218   6.288  0.3792 -0.0074  0.5832
 7096TIP3    H142779   5.328   1.176   6.369 -0.8504 -0.5730  0.7165
 7096TIP3    H242780   5.240   1.287   6.316  0.2570  0.0558  0.1716
 7097TIP3   OH242781   6.192   5.488   6.055  0.5813 -0.3850 -0.0357
 7097TIP3    H142782   6.194   5.452   6.143 -1.2769  1.1073  0.6389
 7097TIP3    H242783   6.103   5.523   6.045  1.8138  2.5528 -1.2289
 7098TIP3   OH242784   5.605   1.087   1.471  0.2369 -0.5172  0.4437
 7098TIP3    H142785   5.557   1.062   1.550  0.9435 -0.2416  0.9544
 7098TIP3    H242786   5.580   1.020   1.407 -2.7621  0.9462 -0.0390
 7099TIP3   OH242787   0.551   1.349  13.131  0.7745 -0.1203 -0.6709
 7099TIP3    H142788   0.621   1.303  13.177  1.1075  0.6288 -0.4254
 7099TIP3    H242789   0.506   1.398  13.200  1.0181  0.6827 -1.0736
 7100TIP3   OH242790   3.823   4.939  13.897 -0.0565  0.0290 -0.3112
 7100TIP3    H142791   3.849   4.996  13.969 -1.7001 -0.9333  1.1100
 7100TIP3    H242792   3.858   4.980  13.818 -1.6417  3.2559  0.6109
 7101TIP3   OH242793   4.763   1.905   0.296  0.2366 -0.4169  0.0494
 7101TIP3    H142794   4.760   1.982   0.353 -0.2171  0.2941 -0.9264
 7101TIP3    H242795   4.704   1.842   0.338  0.6302 -0.2445  0.8686
 7102TIP3   OH242796   1.341   1.586  15.258  0.0210 -0.1529  0.2459
 7102TIP3    H142797   1.287   1.657  15.222 -1.1332 -0.4099  1.4602
 7102TIP3    H242798   1.316   1.509  15.207  0.8989  0.1770 -0.7185
 7103TIP3   OH242799   6.675   4.924  17.263 -0.6642 -0.1088 -0.0374
 7103TIP3    H142800   6.626   4.843  17.254 -1.0103  0.0479  0.4519
 7103TIP3    H242801   6.745   4.917  17.198 -0.4801 -0.9436  0.2500
 7104TIP3   OH242802   3.272   0.870   4.420  0.6254  0.2098  0.0607
 7104TIP3    H142803   3.342   0.805   4.425 -0.7679 -1.2349  1.5025
 7104TIP3    H242804   3.269   0.910   4.506 -1.3119 -0.8372  0.5030
 7105TIP3   OH242805   2.263   2.447  14.796  0.7651 -0.2627  0.5194
 7105TIP3    H142806   2.242   2.354  14.794 -0.1326 -0.0540 -0.2174
 7105TIP3    H242807   2.214   2.482  14.870 -2.1234  0.3387 -1.5539
 7106TIP3   OH242808   3.319   6.662  11.491 -0.4172  0.1818 -0.4395
 7106TIP3    H142809   3.387   6.729  11.493 -0.2800  0.0152  1.1921
 7106TIP3    H242810   3.337   6.607  11.566 -2.3439  0.1269  0.0221
 7107TIP3   OH242811   4.002   5.207  12.876 -0.4459 -0.0897  0.5501
 7107TIP3    H142812   4.027   5.299  12.884  0.1258 -0.1922 -0.0076
 7107TIP3    H242813   4.003   5.190  12.781 -0.8555 -0.5816  0.6344
 7108TIP3   OH242814   4.429   6.117  16.583 -0.7773 -0.5188  0.1793
 7108TIP3    H142815   4.392   6.126  16.671  0.5863 -0.1648  0.7230
 7108TIP3    H242816   4.423   6.205  16.546  1.3725  0.0007  1.0207
 7109TIP3   OH242817   6.694   3.022   5.072  0.1291 -0.2071 -0.4058
 7109TIP3    H142818   6.724   2.961   5.005  1.4875 -0.4471  0.3973
 7109TIP3    H242819   6.731   3.107   5.046 -0.5692 -0.0019 -0.7469
 7110TIP3   OH242820   2.857   3.346   4.430 -0.7125  0.4128  0.5243
 7110TIP3    H142821   2.874   3.436   4.458 -1.6004  0.2153  1.7077
 7110TIP3    H242822   2.769   3.349   4.393 -1.2964 -0.2335  1.8184
 7111TIP3   OH242823   2.985   3.094  14.952  0.0306  0.3519 -0.1304
 7111TIP3    H142824   2.945   3.093  15.039  0.2188  1.9085 -0.0189
 7111TIP3    H242825   2.912   3.084  14.891 -0.1603 -0.1701  0.1849
 7112TIP3   OH242826   6.521   4.583   4.088  0.0957  0.0502 -0.1776
 7112TIP3    H142827   6.456   4.543   4.146  0.7812  0.8664  1.1670
 7112TIP3    H242828   6.605   4.553   4.121  0.5339  1.1870 -0.2459
 7113TIP3   OH242829   6.165   2.784  15.623  0.7080  0.3704  0.5020
 7113TIP3    H142830   6.225   2.797  15.697  1.9584  1.4502 -0.6643
 7113TIP3    H242831   6.208   2.827  15.549 -0.8700 -0.0416 -0.6971
 7114TIP3   OH242832   0.343   6.448  11.618  0.3774 -0.0124  0.0433
 7114TIP3    H142833   0.404   6.412  11.684  1.2745  1.4519  0.0223
 7114TIP3    H242834   0.351   6.387  11.544  1.8768  0.1887  0.0141
 7115TIP3   OH242835   6.216   1.846   5.729 -0.0068  0.3731 -0.3116
 7115TIP3    H142836   6.135   1.892   5.750  1.1447  2.3356 -0.1209
 7115TIP3    H242837   6.283   1.914   5.726  1.5245 -1.1278 -1.1746
 7116TIP3   OH242838   4.423   0.974   2.995  0.0852  0.5311 -0.2696
 7116TIP3    H142839   4.374   1.011   2.921 -0.9986 -0.5510 -0.1055
 7116TIP3    H242840   4.367   0.988   3.071 -0.0517 -0.8553 -0.1026
 7117TIP3   OH242841   6.665   2.153   0.299 -0.1511  0.4457 -0.4091
 7117TIP3    H142842   6.571   2.137   0.308  0.3203 -2.2756  0.0562
 7117TIP3    H242843   6.672   2.217   0.228 -2.2572 -0.8399 -1.8135
 7118TIP3   OH242844   2.370   5.462   6.954  0.0037 -0.3313  0.2370
 7118TIP3    H142845   2.284   5.478   6.994  0.4203 -0.6506  1.2890
 7118TIP3    H242846   2.368   5.370   6.930  0.7450 -0.8501  2.0463
 7119TIP3   OH242847   1.917   5.835  12.387 -0.2515  0.7630  0.1468
 7119TIP3    H142848   1.829   5.802  12.405 -0.4036  1.8265  1.5240
 7119TIP3    H242849   1.935   5.810  12.297 -1.7511  0.0528  0.0326
 7120TIP3   OH242850   0.281   4.297  13.726  0.7575 -0.5045 -0.3579
 7120TIP3    H142851   0.255   4.369  13.783  0.0845 -0.0251 -1.2490
 7120TIP3    H242852   0.215   4.230  13.739  0.8519 -0.5727 -0.2357
 7121TIP3   OH242853   0.160   1.622   3.180  0.2949 -0.1084  0.5067
 7121TIP3    H142854   0.213   1.628   3.100  0.8071  0.4608  0.8809
 7121TIP3    H242855   0.187   1.698   3.232 -0.0798 -0.4421  1.1914
 7122TIP3   OH242856   3.487   6.750   4.165 -0.1705 -0.2405 -0.1038
 7122TIP3    H142857   3.467   6.689   4.094 -2.8871  2.1644 -1.5134
 7122TIP3    H242858   3.582   6.762   4.160 -0.0695 -1.5604 -2.0862
 7123TIP3   OH242859   1.674   4.206   5.434  0.3537 -0.4166  0.6037
 7123TIP3    H142860   1.691   4.143   5.364 -1.5359  1.6056 -1.7200
 7123TIP3    H242861   1.735   4.278   5.417  0.9096 -0.5446  1.9405
 7124TIP3   OH242862   0.842   4.811  12.932 -0.2193 -0.3473  0.4860
 7124TIP3    H142863   0.874   4.740  12.988  1.3742 -0.1190 -0.0888
 7124TIP3    H242864   0.915   4.827  12.871 -1.1028  0.8443 -0.2668
 7125TIP3   OH242865   1.114   4.797  13.292  0.9265  0.3457  0.3895
 7125TIP3    H142866   1.187   4.793  13.354  2.1267 -1.7299 -1.0580
 7125TIP3    H242867   1.156   4.812  13.207 -0.5616  1.6107 -0.1517
 7126TIP3   OH242868   6.127   1.153  12.283 -0.9815 -0.3467  0.2294
 7126TIP3    H142869   6.180   1.215  12.333 -0.1089 -1.0839  0.2362
 7126TIP3    H242870   6.087   1.207  12.214 -0.5063  0.2821  0.4354
 7127TIP3   OH242871   4.326   4.345   2.821  0.4632  0.2186 -0.0642
 7127TIP3    H142872   4.285   4.390   2.894  1.3842  1.0453 -0.0494
 7127TIP3    H242873   4.365   4.266   2.860  1.8094  1.1591  0.5280
 7128TIP3   OH242874   3.902   3.261   6.174 -0.3265 -0.2624  0.6356
 7128TIP3    H142875   3.971   3.317   6.138 -0.8429 -0.3385 -0.5145
 7128TIP3    H242876   3.929   3.172   6.150 -1.0605 -0.2555 -0.2597
 7129TIP3   OH242877   0.739   0.392   1.743 -0.9053  0.6761  0.4659
 7129TIP3    H142878   0.820   0.353   1.710  0.2830  2.7957  0.8092
 7129TIP3    H242879   0.705   0.442   1.669 -0.7764  1.5090  0.9662
 7130TIP3   OH242880   4.731   0.322  12.622 -0.3073 -0.1578 -0.1987
 7130TIP3    H142881   4.733   0.240  12.574  0.9543  0.2330 -0.8362
 7130TIP3    H242882   4.749   0.297  12.713  0.1275 -0.5939 -0.4009
 7131TIP3   OH242883   2.238   4.512  13.826  0.2670  0.2291 -0.2903
 7131TIP3    H142884   2.235   4.442  13.891 -0.0724  0.8375  0.3661
 7131TIP3    H242885   2.321   4.556  13.841 -0.7381  1.6801  1.1478
 7132TIP3   OH242886   2.276   3.558   0.519 -0.4979  0.6633 -0.5273
 7132TIP3    H142887   2.334   3.633   0.529 -0.3181  0.5772 -0.9447
 7132TIP3    H242888   2.334   3.483   0.508 -0.6770  0.4568 -0.0991
 7133TIP3   OH242889   0.767   6.374   5.767  0.2833 -0.1469 -0.5500
 7133TIP3    H142890   0.772   6.454   5.714  0.5873  0.3702  0.2440
 7133TIP3    H242891   0.828   6.314   5.724  0.9832  0.4749 -0.4368
 7134TIP3   OH242892   3.257   1.030   0.466 -0.2546 -0.0047 -0.3189
 7134TIP3    H142893   3.199   1.105   0.452 -0.0967  0.2097  0.1431
 7134TIP3    H242894   3.208   0.955   0.435 -0.9646  0.1143  0.4965
 7135TIP3   OH242895   2.025   6.272   4.522 -0.4210 -0.2182 -0.1048
 7135TIP3    H142896   1.990   6.310   4.602  1.0331  2.3207 -0.6420
 7135TIP3    H242897   2.118   6.291   4.524  0.1648 -2.7167 -1.0072
 7136TIP3   OH242898   0.038   3.681  14.521  0.6207  0.2825  0.1363
 7136TIP3    H142899  -0.055   3.683  14.498  0.3347  0.2661  1.2862
 7136TIP3    H242900   0.075   3.754  14.472 -0.1062  0.6681  0.1463
 7137TIP3   OH242901   4.298   5.130  16.868  0.4984 -0.7477 -0.6198
 7137TIP3    H142902   4.388   5.155  16.848  0.1290 -0.7477 -2.3592
 7137TIP3    H242903   4.276   5.063  16.803 -0.8739 -0.4698 -0.4648
 7138TIP3   OH242904   1.967   5.891   0.278  0.1623  0.3196  0.1394
 7138TIP3    H142905   2.036   5.955   0.298  2.1853 -1.4353 -0.9716
 7138TIP3    H242906   1.901   5.942   0.232  1.5587  1.6967 -0.4243
 7139TIP3   OH242907   2.150   6.501   5.505  0.1829  0.1696  0.1864
 7139TIP3    H142908   2.190   6.582   5.476  1.0069 -0.5772 -0.7696
 7139TIP3    H242909   2.056   6.517   5.498  0.3376  1.1776  0.3976
 7140TIP3   OH242910   1.042   2.515  14.186  0.2776  0.0771 -0.0911
 7140TIP3    H142911   1.104   2.464  14.134 -0.3827  0.5340 -1.3471
 7140TIP3    H242912   0.985   2.556  14.121  0.7042  2.2923  0.9123
 7141TIP3   OH242913   1.125   2.727   2.351  0.2084 -0.3828  0.2993
 7141TIP3    H142914   1.041   2.714   2.306 -0.5785 -1.7009  2.0772
 7141TIP3    H242915   1.108   2.797   2.414  0.4394 -0.5981  0.6059
 7142TIP3   OH242916   1.124   4.615   1.936 -0.1325 -0.2144 -0.4085
 7142TIP3    H142917   1.069   4.611   2.015  0.0221 -0.6315 -0.3225
 7142TIP3    H242918   1.213   4.615   1.970 -0.0687 -0.2158 -0.5792
 7143TIP3   OH242919   1.156   5.343  13.121 -0.2249  0.3356 -0.3909
 7143TIP3    H142920   1.250   5.330  13.118 -0.2931 -0.4595  0.6422
 7143TIP3    H242921   1.123   5.269  13.172 -1.4079  0.5819 -0.7818
 7144TIP3   OH242922   3.889   5.694  13.187 -0.7231  0.3087 -0.0684
 7144TIP3    H142923   3.953   5.622  13.191 -1.3806 -0.3670 -1.2512
 7144TIP3    H242924   3.918   5.747  13.112 -0.0550  1.4668  0.9979
 7145TIP3   OH242925   5.394   5.621   2.315 -0.3264 -0.1953 -0.5188
 7145TIP3    H142926   5.468   5.683   2.315 -0.0033 -0.5814 -0.3101
 7145TIP3    H242927   5.322   5.671   2.354  0.6229 -0.7605  2.0655
 7146TIP3   OH242928   0.700   6.318   2.555 -0.3027  0.4353 -0.7994
 7146TIP3    H142929   0.650   6.241   2.527  1.7623 -0.8978 -0.9442
 7146TIP3    H242930   0.673   6.332   2.645  0.3564 -1.3741 -0.2978
 7147TIP3   OH242931   2.724   4.519   0.367  0.1079 -1.0390 -0.1486
 7147TIP3    H142932   2.684   4.600   0.336 -0.9625 -2.1520 -1.8110
 7147TIP3    H242933   2.710   4.519   0.462  0.6601  0.9854 -0.0567
 7148TIP3   OH242934   0.958   5.955  17.036 -0.0003 -0.3895 -0.1099
 7148TIP3    H142935   0.956   6.011  17.114  0.9709 -1.9239  1.0372
 7148TIP3    H242936   0.943   5.867  17.070 -1.2623 -0.8848 -1.8756
 7149TIP3   OH242937   6.118   4.034  16.250  0.4058 -0.2859  0.4203
 7149TIP3    H142938   6.073   3.950  16.242  0.8735 -0.4767 -0.2498
 7149TIP3    H242939   6.209   4.015  16.229  0.2546  0.6527 -1.1343
 7150TIP3   OH242940   1.907   5.908  13.562 -0.4279  0.1495  0.2663
 7150TIP3    H142941   1.999   5.932  13.548 -0.5819  1.5485  1.5090
 7150TIP3    H242942   1.858   5.987  13.538 -1.1601  0.1022  1.5833
 7151TIP3   OH242943   6.170   6.353   4.651 -0.2366  0.3034 -0.5177
 7151TIP3    H142944   6.158   6.410   4.727 -0.7465  0.1111 -0.4525
 7151TIP3    H242945   6.264   6.343   4.643 -0.2251 -1.1656  1.2153
 7152TIP3   OH242946   5.959   2.430  11.412  0.7550 -0.6096  0.1648
 7152TIP3    H142947   5.963   2.511  11.462  0.1577 -0.8498  0.6062
 7152TIP3    H242948   6.042   2.426  11.365  0.2149  0.9757 -0.9685
 7153TIP3   OH242949   4.857   2.986  16.807 -0.0254 -0.0653  0.3874
 7153TIP3    H142950   4.912   2.927  16.756  1.0664  0.6627  0.7018
 7153TIP3    H242951   4.838   3.059  16.748  0.1038  0.1168  0.5665
 7154TIP3   OH242952   5.146   2.561  13.966 -0.5903 -0.1312  0.1695
 7154TIP3    H142953   5.224   2.510  13.944 -1.5612 -1.0322 -1.3034
 7154TIP3    H242954   5.170   2.651  13.948  1.2374  0.0383  3.0385
 7155TIP3   OH242955   2.851   6.751  13.936  0.4452  0.2650  0.1683
 7155TIP3    H142956   2.894   6.717  13.857  0.3409  0.1050  0.1810
 7155TIP3    H242957   2.914   6.814  13.971  0.6122  0.1330  0.1102
 7156TIP3   OH242958   3.031   2.945   2.522  0.0908 -0.1962  0.7690
 7156TIP3    H142959   3.108   2.989   2.560  0.0138 -0.3536  1.1046
 7156TIP3    H242960   2.980   3.017   2.484 -0.3060  0.0667  1.8004
 7157TIP3   OH242961   4.795   6.221   1.369 -0.2391 -0.8236 -0.6830
 7157TIP3    H142962   4.876   6.193   1.411  0.3044  0.3061 -0.9580
 7157TIP3    H242963   4.737   6.245   1.441  0.3829  0.2681 -0.5358
 7158TIP3   OH242964   5.068   2.842   0.298 -0.1311 -0.0962  0.0335
 7158TIP3    H142965   5.085   2.752   0.325  0.5020  0.8312  2.9266
 7158TIP3    H242966   4.988   2.836   0.245 -0.6593 -2.2466  0.9992
 7159TIP3   OH242967   2.554   6.631  14.741  0.4126 -0.2998 -0.1740
 7159TIP3    H142968   2.619   6.627  14.671  1.0900 -0.7370  0.4593
 7159TIP3    H242969   2.603   6.605  14.820 -0.1526  0.8791  0.5872
 7160TIP3   OH242970   1.682   2.423  15.527  0.6830  0.7051  0.0795
 7160TIP3    H142971   1.677   2.382  15.613  2.5944  0.0877 -0.0701
 7160TIP3    H242972   1.620   2.373  15.473  0.3313  0.3492  0.8123
 7161TIP3   OH242973   1.304   1.813  11.164 -0.2937  0.2846  0.4569
 7161TIP3    H142974   1.259   1.815  11.079  1.3218  1.9986 -0.3757
 7161TIP3    H242975   1.300   1.903  11.196  1.0770  0.1156  1.1397
 7162TIP3   OH242976   0.993   0.093   0.065 -0.0066 -0.3813  0.5776
 7162TIP3    H142977   0.978   0.030  -0.006 -0.8949  0.2175  0.2273
 7162TIP3    H242978   1.008   0.176   0.020  1.0932 -0.3181  1.0458
 7163TIP3   OH242979   5.904   4.874  15.342  0.2597 -0.1461 -0.2799
 7163TIP3    H142980   5.824   4.856  15.391  0.2756 -2.7962 -1.1468
 7163TIP3    H242981   5.882   4.948  15.286 -1.8658 -1.4195 -1.1449
 7164TIP3   OH242982   6.009   2.945   5.138 -0.3652  0.1594  0.7651
 7164TIP3    H142983   5.925   2.932   5.183 -1.1833 -1.0679 -1.0665
 7164TIP3    H242984   6.042   2.857   5.122  1.4855  0.6350  1.8019
 7165TIP3   OH242985   0.162   2.475  16.265  0.0861  0.3108  0.0036
 7165TIP3    H142986   0.098   2.453  16.197  0.2360  1.7377 -0.6224
 7165TIP3    H242987   0.244   2.486  16.218  0.1124  1.6705  0.3509
 7166TIP3   OH242988   0.350   3.265  12.640  0.8295  0.3018 -0.0754
 7166TIP3    H142989   0.386   3.312  12.715  1.1437 -0.0973  0.0264
 7166TIP3    H242990   0.333   3.334  12.575 -2.2044  1.0418  1.4112
 7167TIP3   OH242991   3.774   3.967  14.250  0.3706 -0.5077  0.1037
 7167TIP3    H142992   3.741   3.971  14.339  1.6227 -1.0079  0.5948
 7167TIP3    H242993   3.763   3.875  14.224  0.9317 -0.5761  0.1000
 7168TIP3   OH242994   6.209   5.492  15.442  0.1643  0.1063  0.3672
 7168TIP3    H142995   6.231   5.579  15.476  0.2610  0.2524 -0.0617
 7168TIP3    H242996   6.278   5.473  15.379  1.3419 -1.2185  2.0203
 7169TIP3   OH242997   1.344   5.821   1.016 -0.2316  0.5118  0.5288
 7169TIP3    H142998   1.367   5.740   0.970 -1.1823 -0.0654  1.0524
 7169TIP3    H242999   1.322   5.883   0.946  2.4394  0.9633  0.0215
 7170TIP3   OH243000   1.277   4.871  16.181 -0.6812  0.2408 -0.3209
 7170TIP3    H143001   1.358   4.886  16.230 -1.2521  0.1125  0.6673
 7170TIP3    H243002   1.234   4.799  16.228 -0.9744 -0.2506 -1.3296
 7171TIP3   OH243003   0.188   1.621   5.512  0.6553 -0.0606  0.2996
 7171TIP3    H143004   0.177   1.716   5.510 -1.6099 -0.2769  0.9438
 7171TIP3    H243005   0.183   1.594   5.421 -0.4305  0.2561  0.2653
 7172TIP3   OH243006   0.593   4.420  15.340  0.1003  0.4737  0.1711
 7172TIP3    H143007   0.535   4.469  15.282 -0.7466 -0.1850  0.4448
 7172TIP3    H243008   0.592   4.469  15.422  2.2426  2.0641 -0.7285
 7173TIP3   OH243009   6.291   4.232   2.231  0.3546 -0.2178  0.3719
 7173TIP3    H143010   6.248   4.303   2.279 -0.8404 -1.7262  1.5899
 7173TIP3    H243011   6.340   4.184   2.297 -1.2063 -2.2429  0.0996
 7174TIP3   OH243012   5.002   5.715  12.193 -0.3170 -0.1872 -0.2819
 7174TIP3    H143013   4.909   5.697  12.202 -0.6561  0.4932 -2.2998
 7174TIP3    H243014   5.037   5.703  12.281 -2.1439 -1.3453  0.3113
 7175TIP3   OH243015   5.403   4.884   4.684  0.1743 -0.4787 -0.3486
 7175TIP3    H143016   5.460   4.957   4.660 -0.9486 -0.0463 -1.7407
 7175TIP3    H243017   5.449   4.807   4.651 -0.3856 -0.0641 -2.1202
 7176TIP3   OH243018   3.801   4.256  14.244  0.1631  0.1594 -0.1162
 7176TIP3    H143019   3.779   4.167  14.219  1.1745  0.3000 -1.5361
 7176TIP3    H243020   3.767   4.311  14.173  1.4010  0.7140 -0.2989
 7177TIP3   OH243021   1.648   4.879   6.615 -0.3525 -0.2457  0.0414
 7177TIP3    H143022   1.644   4.855   6.523  0.2560  0.7075 -0.2437
 7177TIP3    H243023   1.739   4.864   6.640  0.1204  1.9500 -0.2253
 7178TIP3   OH243024   3.813   6.503   4.950 -0.2651  0.0379 -0.0758
 7178TIP3    H143025   3.860   6.559   4.889  0.1884 -0.6785 -0.3818
 7178TIP3    H243026   3.723   6.537   4.948 -0.2961 -0.0926 -1.2620
 7179TIP3   OH243027   3.847   1.298   5.678 -0.1409  0.0761  0.4915
 7179TIP3    H143028   3.790   1.245   5.733  1.1274 -0.1060  1.6526
 7179TIP3    H243029   3.935   1.286   5.715  0.4933  1.2026 -0.6001
 7180TIP3   OH243030   5.075   4.818  12.273  0.3175  0.1534 -0.1578
 7180TIP3    H143031   4.992   4.857  12.300  1.6522  0.9924  3.0405
 7180TIP3    H243032   5.056   4.724  12.263 -1.5203  0.6756 -1.8762
 7181TIP3   OH243033   6.456   3.971  12.409 -0.3934 -0.1489 -0.0896
 7181TIP3    H143034   6.523   3.994  12.473 -0.4162  1.4260 -0.6170
 7181TIP3    H243035   6.388   4.037  12.420 -1.1359 -0.8028 -0.6488
 7182TIP3   OH243036   3.870   1.561   4.322  0.4442 -0.1805 -0.1415
 7182TIP3    H143037   3.801   1.610   4.277  0.8268  1.1125  0.6187
 7182TIP3    H243038   3.951   1.599   4.290  0.7859 -1.1813 -0.4711
 7183TIP3   OH243039   5.676   3.581  14.609 -0.5992 -0.1150  0.1823
 7183TIP3    H143040   5.713   3.536  14.533  1.7852 -1.1250  1.8879
 7183TIP3    H243041   5.594   3.534  14.627 -1.2598  0.2362 -1.8290
 7184TIP3   OH243042   1.883   5.879  16.426 -0.0225  0.0406 -0.6176
 7184TIP3    H143043   1.942   5.804  16.420  0.5504  0.3238  1.2652
 7184TIP3    H243044   1.933   5.945  16.474 -1.1579  1.0015 -0.7424
 7185TIP3   OH243045   3.449   3.704  14.741  0.0805 -0.4760  0.1286
 7185TIP3    H143046   3.461   3.799  14.741  0.8308 -0.5629 -0.2541
 7185TIP3    H243047   3.355   3.691  14.754 -0.4223  0.3641 -2.4106
 7186TIP3   OH243048   5.960   0.571   5.413  0.2112 -0.3824  0.2826
 7186TIP3    H143049   5.897   0.640   5.431 -0.5920 -1.3008  0.9936
 7186TIP3    H243050   5.973   0.527   5.497  0.9574 -0.9004 -0.0970
 7187TIP3   OH243051   6.352   0.134   5.535  0.2450 -0.1127  0.0556
 7187TIP3    H143052   6.341   0.096   5.448 -0.6646 -0.1821  0.1938
 7187TIP3    H243053   6.296   0.211   5.535 -1.9837 -1.6560  1.4859
 7188TIP3   OH243054   1.972   4.487  17.164  0.3509 -0.2836 -0.4842
 7188TIP3    H143055   1.955   4.422  17.232 -0.3658  1.0458  0.6275
 7188TIP3    H243056   2.065   4.478  17.145  0.4540 -0.9841  0.3538
 7189TIP3   OH243057   5.766   3.117  14.287 -0.1386  0.3050 -0.3230
 7189TIP3    H143058   5.714   3.096  14.209 -2.1624 -1.3772  1.4014
 7189TIP3    H243059   5.777   3.033  14.331  1.0305  1.2340  1.1935
 7190TIP3   OH243060   5.842   1.827  15.383 -0.2859  0.3113  0.3399
 7190TIP3    H143061   5.754   1.790  15.388  0.1372 -0.9108 -1.0283
 7190TIP3    H243062   5.888   1.792  15.460 -0.6587  0.0733  0.4528
 7191TIP3   OH243063   3.326   4.529  12.761  0.1198  0.4952  0.2980
 7191TIP3    H143064   3.235   4.560  12.756  0.4962  1.4172 -1.2295
 7191TIP3    H243065   3.379   4.608  12.748  1.1198 -0.3528 -0.8863
 7192TIP3   OH243066   0.711   3.678  14.018  0.3056  0.1991 -0.4101
 7192TIP3    H143067   0.633   3.732  14.032  1.1059  0.8106  1.8361
 7192TIP3    H243068   0.781   3.741  13.999  0.5860 -0.2466 -0.8704
 7193TIP3   OH243069   4.578   5.225  16.880 -0.3136 -0.0686  0.3872
 7193TIP3    H143070   4.655   5.196  16.929  0.6156  1.0303 -0.4016
 7193TIP3    H243071   4.610   5.239  16.791 -1.6296 -0.4638 -0.1554
 7194TIP3   OH243072   6.089   0.327  13.635 -0.2771 -0.1920  0.0678
 7194TIP3    H143073   6.045   0.389  13.576 -1.2585 -0.4295  0.5336
 7194TIP3    H243074   6.048   0.243  13.615  0.3870 -0.5278  0.1037
 7195TIP3   OH243075   3.790   1.849   1.274  0.1390  0.2176  0.0389
 7195TIP3    H143076   3.812   1.905   1.348  0.4209 -0.5049  0.5174
 7195TIP3    H243077   3.704   1.878   1.246 -0.3371 -0.0298  1.1844
 7196TIP3   OH243078   6.550   0.255   4.651  0.6740 -0.0706 -0.4190
 7196TIP3    H143079   6.480   0.244   4.715  1.1498  0.1310  0.1354
 7196TIP3    H243080   6.594   0.169   4.649  1.1338  0.1520  0.0842
 7197TIP3   OH243081   6.112   0.941   0.133 -0.0159 -0.7660 -0.1377
 7197TIP3    H143082   6.020   0.962   0.148 -0.1025 -0.5670 -0.9089
 7197TIP3    H243083   6.116   0.846   0.138  0.0603 -0.6877  1.6419
 7198TIP3   OH243084   2.022   5.638  11.909 -0.3379 -0.5696 -0.5149
 7198TIP3    H143085   2.032   5.546  11.886 -1.1939 -0.6789 -0.4480
 7198TIP3    H243086   1.948   5.669  11.857 -0.5520 -0.1232  0.0462
 7199TIP3   OH243087   4.994   3.295   1.360 -0.0566  0.2839  0.2603
 7199TIP3    H143088   4.908   3.310   1.320  0.0002 -0.8375 -0.3060
 7199TIP3    H243089   5.052   3.276   1.286  0.2076 -1.0600  0.7884
 7200TIP3   OH243090   5.339   0.302  11.626  0.1084 -0.4386  0.0084
 7200TIP3    H143091   5.284   0.329  11.700  1.4046 -1.7777  1.5192
 7200TIP3    H243092   5.395   0.377  11.609 -2.2927  1.0155 -1.6800
 7201TIP3   OH243093   6.322   1.472   4.194 -0.0495  0.0382 -0.1411
 7201TIP3    H143094   6.415   1.452   4.205 -0.2639 -0.9567 -0.1322
 7201TIP3    H243095   6.278   1.418   4.258 -0.7232 -0.2765 -0.8677
 7202TIP3   OH243096   3.030   3.604  11.248  0.2359  0.3789  0.1670
 7202TIP3    H143097   3.052   3.693  11.221  0.1187  0.3905  0.1116
 7202TIP3    H243098   3.056   3.549  11.174 -0.6672  0.4743 -0.2207
 7203TIP3   OH243099   0.664   4.786  12.076  0.2132 -0.0259 -0.3728
 7203TIP3    H143100   0.618   4.723  12.132 -0.2362  0.3951 -0.2579
 7203TIP3    H243101   0.606   4.863  12.075  0.5805  0.2448 -0.8077
 7204TIP3   OH243102   2.797   1.891  16.886  0.4399 -0.2738 -0.0081
 7204TIP3    H143103   2.807   1.923  16.796  0.9228 -1.3524 -0.3419
 7204TIP3    H243104   2.758   1.804  16.876  1.2540 -0.7291  0.7910
 7205TIP3   OH243105   2.570   0.985   3.425 -0.0139 -0.3717  0.1918
 7205TIP3    H143106   2.591   0.981   3.518 -0.8867 -1.5302  0.3417
 7205TIP3    H243107   2.650   0.955   3.381  0.9475  1.6469  0.4729
 7206TIP3   OH243108   2.363   4.695   5.253  0.0169 -0.2797 -0.0116
 7206TIP3    H143109   2.339   4.658   5.168 -0.2922  0.3343 -0.1887
 7206TIP3    H243110   2.406   4.778   5.233 -0.0237 -0.1484  0.4331
 7207TIP3   OH243111   0.878   6.636   5.650 -0.0664  0.7913  0.1210
 7207TIP3    H143112   0.959   6.664   5.608 -0.7007  0.1740 -1.5838
 7207TIP3    H243113   0.809   6.678   5.598 -0.8699 -0.0082  0.5363
 7208TIP3   OH243114   0.256   0.727  12.457  0.2474 -0.0967  0.1859
 7208TIP3    H143115   0.243   0.819  12.433  0.0474 -0.1688  0.0176
 7208TIP3    H243116   0.262   0.728  12.553 -0.2035  0.0357  0.2128
 7209TIP3   OH243117   2.110   2.060  14.164 -0.1722  0.0469 -0.0220
 7209TIP3    H143118   2.074   2.095  14.082  0.4008  0.5036 -0.0828
 7209TIP3    H243119   2.150   2.136  14.207  1.3283 -0.5822 -0.2794
 7210TIP3   OH243120   3.355   2.654   5.930  0.5478 -0.3735 -0.0891
 7210TIP3    H143121   3.275   2.604   5.945 -0.8301  1.8741  0.2353
 7210TIP3    H243122   3.409   2.637   6.007 -0.6211 -0.0189  0.8167
 7211TIP3   OH243123   3.950   4.234   1.215 -0.5526  0.1194  0.9656
 7211TIP3    H143124   3.925   4.215   1.125 -0.6256  0.1848  0.9723
 7211TIP3    H243125   4.046   4.228   1.215 -0.4986  0.9505  0.6989
 7212TIP3   OH243126   1.576   5.369   4.610  0.2048  0.7244  0.5832
 7212TIP3    H143127   1.649   5.423   4.639  0.4038  0.0316  1.3964
 7212TIP3    H243128   1.498   5.424   4.625  0.5652  1.5619 -0.5324
 7213TIP3   OH243129   4.540   6.231   1.960  0.8314 -0.3426  0.3632
 7213TIP3    H143130   4.489   6.158   1.994  0.1770 -0.0522  0.0334
 7213TIP3    H243131   4.616   6.237   2.017  0.9257 -1.3324  0.3363
 7214TIP3   OH243132   3.816   3.210  16.088 -0.5226  0.3971  0.1352
 7214TIP3    H143133   3.866   3.289  16.068 -2.1341  1.5493  0.5569
 7214TIP3    H243134   3.881   3.139  16.086  0.5317  1.3388 -2.7886
 7215TIP3   OH243135   4.877   1.442   2.682  0.0667  0.4970 -0.0379
 7215TIP3    H143136   4.908   1.358   2.717 -0.0160 -0.3602 -1.9535
 7215TIP3    H243137   4.783   1.442   2.700 -0.0998 -0.2587 -0.8697
 7216TIP3   OH243138   2.462   3.410   0.084 -0.4575  0.2794  0.9937
 7216TIP3    H143139   2.434   3.464   0.158  1.6775  0.9681  1.3203
 7216TIP3    H243140   2.542   3.367   0.115  0.3529  0.4356 -0.8303
 7217TIP3   OH243141   4.105   1.429  15.424 -0.3034 -0.0505 -0.8202
 7217TIP3    H143142   4.160   1.506  15.410  1.7032 -1.1020  1.0904
 7217TIP3    H243143   4.034   1.461  15.479  1.4088  0.1183  1.3575
 7218TIP3   OH243144   3.782   5.388   0.731 -1.0118  0.1526 -0.4733
 7218TIP3    H143145   3.709   5.417   0.786  0.0564  0.7769  0.6350
 7218TIP3    H243146   3.776   5.293   0.731 -2.1203  0.2045 -0.8182
 7219TIP3   OH243147   2.224   0.535  13.117 -0.4337  0.1153 -0.3107
 7219TIP3    H143148   2.215   0.495  13.030  1.1166  0.4472 -0.6268
 7219TIP3    H243149   2.263   0.620  13.101 -0.1515  0.1900  0.7228
 7220TIP3   OH243150   4.811   2.334  14.188  0.5935 -0.3392 -0.0996
 7220TIP3    H143151   4.864   2.262  14.220  1.0179 -1.1558 -2.5157
 7220TIP3    H243152   4.775   2.303  14.105 -0.8665  1.4741 -0.1946
 7221TIP3   OH243153   2.955   6.501  16.750  0.1517 -0.2663 -0.1212
 7221TIP3    H143154   2.868   6.486  16.786  0.0965  0.0250 -0.1319
 7221TIP3    H243155   2.956   6.456  16.666  0.3655 -1.1774  0.3645
 7222TIP3   OH243156   5.331   5.892   4.264 -0.4822  0.1320 -0.0518
 7222TIP3    H143157   5.252   5.841   4.243  0.8875 -1.5368 -1.3292
 7222TIP3    H243158   5.361   5.925   4.180  1.7288 -1.5926  0.0146
 7223TIP3   OH243159   4.346   5.432   2.695 -0.4355  0.1326 -0.1293
 7223TIP3    H143160   4.331   5.520   2.731 -0.4774  0.7376 -1.5832
 7223TIP3    H243161   4.384   5.383   2.767  1.6863  1.9834  0.0762
 7224TIP3   OH243162   3.800   3.980   4.097 -0.1302 -0.0880  0.2343
 7224TIP3    H143163   3.736   3.933   4.044 -0.1276  0.2636 -0.0747
 7224TIP3    H243164   3.754   3.997   4.180 -0.5183  0.3812 -0.0755
 7225TIP3   OH243165   6.010   1.448  15.541 -0.4680  0.0886  0.3286
 7225TIP3    H143166   5.973   1.528  15.578  0.9551  1.5825 -1.3775
 7225TIP3    H243167   5.962   1.377  15.584 -1.0597  1.8175  2.6076
 7226TIP3   OH243168   3.001   6.498   1.243  0.0320 -0.0586 -0.5141
 7226TIP3    H143169   2.974   6.558   1.174 -2.1176  1.7082  1.8135
 7226TIP3    H243170   2.924   6.445   1.260  0.2778  0.1065  1.1467
 7227TIP3   OH243171   2.980   5.958  12.322 -0.2953  0.1482  0.1300
 7227TIP3    H143172   2.983   5.867  12.291 -2.5855  0.0644  0.0313
 7227TIP3    H243173   2.911   5.957  12.389 -1.5363  2.1512 -1.0799
 7228TIP3   OH243174   1.329   3.254  13.143 -0.2107 -0.7591  0.7063
 7228TIP3    H143175   1.254   3.220  13.093  0.1436  0.4930 -0.7306
 7228TIP3    H243176   1.293   3.328  13.192  0.4311  1.0562 -1.4546
 7229TIP3   OH243177   5.678   2.130   2.999 -0.3014 -0.3874 -0.7088
 7229TIP3    H143178   5.609   2.090   3.051 -0.9595 -0.9605 -2.0029
 7229TIP3    H243179   5.753   2.071   3.009 -0.6114 -0.8167 -0.9005
 7230TIP3   OH243180   1.330   2.563  14.934  0.2692  0.2983  0.4970
 7230TIP3    H143181   1.403   2.516  14.893  0.2758  1.0253 -0.3377
 7230TIP3    H243182   1.369   2.610  15.007  0.5946  0.5014  0.1920
 7231TIP3   OH243183   6.301   3.868   1.115 -0.0093 -0.5875  0.0948
 7231TIP3    H143184   6.249   3.919   1.052  0.6901  0.5344  0.4072
 7231TIP3    H243185   6.315   3.784   1.072 -1.3315 -0.5914 -0.3664
 7232TIP3   OH243186   6.813   4.645   4.072  0.5678  0.5557 -0.0837
 7232TIP3    H143187   6.776   4.684   3.993 -0.3362  0.2657  0.1917
 7232TIP3    H243188   6.898   4.688   4.082  1.0153  0.0579 -1.6185
 7233TIP3   OH243189   4.447   6.088  16.249 -0.6798  0.2467  0.0145
 7233TIP3    H143190   4.515   6.111  16.186 -0.5494 -1.9832 -0.7244
 7233TIP3    H243191   4.461   6.146  16.323  1.4155  0.4885 -0.5398
 7234TIP3   OH243192   0.616   6.167   1.924  0.6298  0.1216  0.1419
 7234TIP3    H143193   0.637   6.078   1.894 -0.4962 -0.3711  0.7689
 7234TIP3    H243194   0.701   6.207   1.942  1.1419 -0.9093  0.0611
 7235TIP3   OH243195   3.261   3.352  15.152 -0.6267 -0.1162  0.1936
 7235TIP3    H143196   3.324   3.410  15.108 -0.7230 -0.4535 -0.3988
 7235TIP3    H243197   3.238   3.398  15.232 -1.6260  1.2324 -0.8513
 7236TIP3   OH243198   1.748   2.887   2.236 -0.0703  0.1041 -0.7310
 7236TIP3    H143199   1.801   2.808   2.235  2.1008  1.4984 -0.4911
 7236TIP3    H243200   1.746   2.916   2.144  1.1478  1.0221 -0.4875
 7237TIP3   OH243201   6.472   3.691   1.762  0.2426 -0.6404 -0.3064
 7237TIP3    H143202   6.525   3.625   1.807  0.8657 -0.6121 -0.9828
 7237TIP3    H243203   6.536   3.744   1.715 -0.4015 -0.7970 -1.3883
 7238TIP3   OH243204   6.528   4.764  12.858 -0.0062  0.1316  0.2830
 7238TIP3    H143205   6.571   4.773  12.944 -1.1744  1.9066  0.6908
 7238TIP3    H243206   6.503   4.671  12.854 -0.4429  0.1509  2.1116
 7239TIP3   OH243207   4.193   4.336  16.254  0.1938 -0.2866  0.2628
 7239TIP3    H143208   4.149   4.421  16.249 -0.6784 -0.7337  0.2060
 7239TIP3    H243209   4.246   4.331  16.175  0.6293  0.4152  0.5059
 7240TIP3   OH243210   4.774   3.947  11.977 -0.7845 -0.1636 -0.5028
 7240TIP3    H143211   4.812   3.967  12.063 -2.6570 -0.1426  0.3384
 7240TIP3    H243212   4.814   3.864  11.952 -0.7195 -0.5019  0.6967
 7241TIP3   OH243213   4.577   0.919   4.561 -0.3011  0.0399 -0.4749
 7241TIP3    H143214   4.499   0.869   4.534 -0.5198 -0.2704  0.7028
 7241TIP3    H243215   4.589   0.983   4.491 -3.0567  1.6869  0.4491
 7242TIP3   OH243216   5.733   4.371   3.512  0.0444 -0.1234  0.1632
 7242TIP3    H143217   5.791   4.420   3.571 -1.0996  0.6322  0.6908
 7242TIP3    H243218   5.707   4.436   3.446 -0.2264 -0.4415 -0.0409
 7243TIP3   OH243219   1.260   2.740   5.922  0.0279 -0.2454  0.2277
 7243TIP3    H143220   1.206   2.698   5.989  0.8366 -0.2507  0.8994
 7243TIP3    H243221   1.241   2.692   5.841 -1.4067  0.1476  0.3243
 7244TIP3   OH243222   2.630   6.803   5.865  0.0699 -0.0624  0.7653
 7244TIP3    H143223   2.690   6.845   5.804 -0.5668 -0.9075 -0.4742
 7244TIP3    H243224   2.572   6.874   5.894 -0.4244  0.1048 -0.5976
 7245TIP3   OH243225   5.110   5.281  12.237 -0.1973 -0.4763 -0.0559
 7245TIP3    H143226   5.095   5.216  12.168  2.8789 -1.7377  0.3608
 7245TIP3    H243227   5.096   5.232  12.319  0.2587 -0.1368  0.2320
 7246TIP3   OH243228   5.252   0.565   2.319  0.2267 -0.6771  0.4250
 7246TIP3    H143229   5.165   0.583   2.354 -0.0852  0.4798 -0.8909
 7246TIP3    H243230   5.307   0.552   2.397 -1.1366 -1.5929  1.2588
 7247TIP3   OH243231   6.025   6.128   1.936 -0.5210 -0.2323  0.7434
 7247TIP3    H143232   5.935   6.097   1.926 -0.3208 -0.3403 -0.7644
 7247TIP3    H243233   6.057   6.139   1.846  1.0647 -0.4645  1.2706
 7248TIP3   OH243234   1.810   3.850  14.547 -0.0601  0.5853  0.1839
 7248TIP3    H143235   1.770   3.764  14.536  0.4487  0.4283 -0.4261
 7248TIP3    H243236   1.883   3.835  14.607 -1.0295  0.9135  1.4842
 7249TIP3   OH243237   1.995   3.178   2.475 -0.7366  0.3528 -0.1702
 7249TIP3    H143238   1.919   3.237   2.473 -1.8287 -0.9969  0.6519
 7249TIP3    H243239   1.985   3.124   2.397 -0.2815  0.5814 -0.3853
 7250TIP3   OH243240   5.127   2.070   2.831  0.1155  0.6267  0.8248
 7250TIP3    H143241   5.146   1.976   2.831 -1.0106  0.3885 -0.0781
 7250TIP3    H243242   5.153   2.100   2.744 -1.2010  0.8000  0.4858
 7251TIP3   OH243243   3.387   2.784   2.511 -0.2897  0.2809 -0.0688
 7251TIP3    H143244   3.433   2.807   2.592  1.4296 -0.2355 -0.8641
 7251TIP3    H243245   3.408   2.691   2.497 -1.8200 -0.0385 -0.3122
 7252TIP3   OH243246   4.055   1.941   1.902 -0.1586 -0.2791 -0.3463
 7252TIP3    H143247   4.006   2.010   1.859  1.3211  0.6977 -0.5096
 7252TIP3    H243248   4.108   1.986   1.968  1.5186 -1.1244 -1.0736
 7253TIP3   OH243249   0.574   5.702  12.305  0.4524 -0.0043  0.3375
 7253TIP3    H143250   0.632   5.708  12.382  2.7763 -2.0930 -1.1603
 7253TIP3    H243251   0.486   5.700  12.341  1.4705 -0.2380  2.9085
 7254TIP3   OH243252   6.358   2.780  12.392  0.2574  0.0510  0.1927
 7254TIP3    H143253   6.423   2.713  12.371 -0.4795 -0.6800  0.2200
 7254TIP3    H243254   6.390   2.859  12.348  1.1786 -0.2901  0.2364
 7255TIP3   OH243255   0.579   0.555  12.375  0.1532  0.0924  0.2104
 7255TIP3    H143256   0.484   0.547  12.373  0.1717 -0.0117 -0.4312
 7255TIP3    H243257   0.611   0.466  12.356  0.3907 -0.3829  2.6561
 7256TIP3   OH243258   0.058   1.217  14.379  0.1003 -0.1670 -0.6401
 7256TIP3    H143259   0.021   1.288  14.328  1.5914 -0.1969 -1.8148
 7256TIP3    H243260   0.034   1.138  14.331 -1.1084 -0.4334  0.3802
 7257TIP3   OH243261   3.605   4.955  16.257 -0.4169  0.1448  0.0403
 7257TIP3    H143262   3.582   4.891  16.324 -0.5905  0.1024 -0.0571
 7257TIP3    H243263   3.532   5.016  16.256  0.2648  0.9847  0.9277
 7258TIP3   OH243264   3.855   1.405   4.929 -0.3626  0.4675 -0.2030
 7258TIP3    H143265   3.887   1.327   4.975 -1.6165  1.5025  2.5267
 7258TIP3    H243266   3.930   1.464   4.928 -0.0910  0.1278 -0.2194
 7259TIP3   OH243267   2.068   1.038   0.242  0.1066  0.2897 -0.0061
 7259TIP3    H143268   2.146   1.039   0.187  2.2669 -0.2554  2.9183
 7259TIP3    H243269   2.080   1.111   0.302 -0.0607 -1.7084  2.5321
 7260TIP3   OH243270   2.396   1.273   2.008  0.1062 -0.9807 -0.0771
 7260TIP3    H143271   2.485   1.266   1.973 -1.3202 -2.2953 -3.7374
 7260TIP3    H243272   2.341   1.285   1.930 -2.8230  0.9317  2.1944
 7261TIP3   OH243273   3.256   4.041   2.642  0.2750  0.2470  0.3538
 7261TIP3    H143274   3.261   4.081   2.729  1.4679  1.9498 -0.4825
 7261TIP3    H243275   3.343   4.004   2.627 -0.0191 -0.3071 -0.0015
 7262TIP3   OH243276   1.756   5.843   1.179  0.5112 -0.1929 -0.2233
 7262TIP3    H143277   1.743   5.933   1.149  0.1194  0.6866  2.4229
 7262TIP3    H243278   1.835   5.814   1.133 -0.2320  0.9379 -2.2824
 7263TIP3   OH243279   5.696   6.494   2.035 -0.1311 -0.1960 -0.0833
 7263TIP3    H143280   5.789   6.473   2.027 -0.2999 -0.8954 -0.2005
 7263TIP3    H243281   5.694   6.589   2.041  0.4731 -0.0315 -1.9332
 7264TIP3   OH243282   0.839   0.336  16.508 -0.3378 -0.1527 -0.1908
 7264TIP3    H143283   0.755   0.298  16.533  0.5948 -2.0937  0.0515
 7264TIP3    H243284   0.900   0.262  16.505  1.3741  1.2153 -0.3617
 7265TIP3   OH243285   2.026   1.782  13.064 -0.1649  0.1575  0.2590
 7265TIP3    H143286   1.995   1.869  13.039 -1.7403 -0.4411  0.0658
 7265TIP3    H243287   2.020   1.731  12.983  2.2869  0.2634 -0.0298
 7266TIP3   OH243288   6.474   6.785   1.219 -0.5412  0.6177  0.1056
 7266TIP3    H143289   6.469   6.752   1.309 -2.1275 -0.2134 -0.2571
 7266TIP3    H243290   6.409   6.854   1.216 -1.3998 -0.2084 -0.7290
 7267TIP3   OH243291   1.646   5.395   3.789  0.4162 -0.6546  0.2730
 7267TIP3    H143292   1.714   5.427   3.848 -0.9225  1.5840  0.6583
 7267TIP3    H243293   1.658   5.446   3.709  0.6267 -1.8722 -0.4772
 7268TIP3   OH243294   3.038   1.127   4.158  0.3202  0.2580  0.5145
 7268TIP3    H143295   3.125   1.090   4.146  0.4653  0.9618 -0.7280
 7268TIP3    H243296   2.984   1.053   4.186  1.1186 -0.3743  0.4039
 7269TIP3   OH243297   1.845   0.342   2.750  0.8367  0.1088 -0.4256
 7269TIP3    H143298   1.801   0.324   2.667  0.6481 -0.3238 -0.2364
 7269TIP3    H243299   1.921   0.395   2.727  0.6069  0.2570 -0.8373
 7270TIP3   OH243300   0.399   5.431  15.036 -0.2940 -0.0739  0.5579
 7270TIP3    H143301   0.367   5.516  15.066 -1.0534 -0.5130  1.0125
 7270TIP3    H243302   0.437   5.449  14.950  1.5347  1.1269  1.5742
 7271TIP3   OH243303   2.816   0.338  14.305 -0.1621  0.7501  0.2931
 7271TIP3    H143304   2.903   0.376  14.308 -0.7623  2.4711 -2.2998
 7271TIP3    H243305   2.779   0.369  14.222 -2.9576 -0.5333  0.9935
 7272TIP3   OH243306   2.536   3.315   3.085  0.3213  0.8029 -0.2393
 7272TIP3    H143307   2.610   3.365   3.118  0.8366 -0.3733  0.4094
 7272TIP3    H243308   2.498   3.273   3.162  1.2769 -1.6102 -1.0288
 7273TIP3   OH243309   3.683   0.695   1.006  0.2517 -0.6541 -0.0565
 7273TIP3    H143310   3.598   0.654   0.986 -0.9823  0.6060  2.3989
 7273TIP3    H243311   3.727   0.632   1.063 -0.0918 -0.2523  0.6694
 7274TIP3   OH243312   0.124   2.730   2.042 -0.0410  0.2271  0.4698
 7274TIP3    H143313   0.057   2.738   1.974 -0.6559 -0.6966  0.9568
 7274TIP3    H243314   0.207   2.736   1.994 -0.4690  0.1236 -0.2970
 7275TIP3   OH243315   3.944   5.072  16.675  0.6167 -0.2640 -0.4240
 7275TIP3    H143316   4.025   5.022  16.671 -0.2245 -1.5606 -1.9581
 7275TIP3    H243317   3.890   5.036  16.604 -1.2177  0.6990  0.4472
 7276TIP3   OH243318   0.290   5.411   4.455 -0.1482 -0.3246  0.1931
 7276TIP3    H143319   0.341   5.416   4.536 -0.4888 -0.3294  0.4145
 7276TIP3    H243320   0.301   5.321   4.424 -0.2398 -0.4044  0.3880
 7277TIP3   OH243321   6.741   0.318  13.774 -0.3273  0.2015 -0.4684
 7277TIP3    H143322   6.787   0.278  13.699  2.3919  0.6172  0.8990
 7277TIP3    H243323   6.686   0.248  13.808 -0.5338 -0.4160 -2.0257
 7278TIP3   OH243324   3.730   4.363  15.775 -0.0298 -0.5379 -0.1396
 7278TIP3    H143325   3.725   4.407  15.689 -1.4804  0.9570  0.6789
 7278TIP3    H243326   3.670   4.413  15.830  3.2881  0.5615  2.6405
 7279TIP3   OH243327   3.430   3.025   2.345 -0.1353 -0.0197 -0.2144
 7279TIP3    H143328   3.417   2.941   2.389 -1.0089  0.5370  0.6292
 7279TIP3    H243329   3.416   3.006   2.252  0.1102 -0.8929 -0.0778
 7280TIP3   OH243330   6.033   6.122   5.303  0.0060 -0.6484  0.0323
 7280TIP3    H143331   6.106   6.069   5.268 -1.0588 -2.1485  0.0379
 7280TIP3    H243332   6.013   6.082   5.387  0.3669  0.9085  0.8657
 7281TIP3   OH243333   5.098   2.609   0.751 -0.1473  0.5903  0.0811
 7281TIP3    H143334   5.146   2.569   0.677  0.4675 -0.0522  0.8127
 7281TIP3    H243335   5.167   2.645   0.807 -0.5450  0.0833  0.9072
 7282TIP3   OH243336   5.947   1.978   6.548 -0.5588 -0.2634 -0.1611
 7282TIP3    H143337   5.947   2.060   6.598 -0.8602 -0.1230 -0.3915
 7282TIP3    H243338   5.887   1.920   6.596  1.0747 -0.9994  1.0550
 7283TIP3   OH243339   4.479   5.035  17.182  0.0737 -0.1755 -0.0384
 7283TIP3    H143340   4.473   4.958  17.238 -0.8936 -0.6551 -0.7889
 7283TIP3    H243341   4.399   5.084  17.200 -0.3925 -0.4864 -1.2058
 7284TIP3   OH243342   3.680   5.549   1.507  0.1758 -0.1219 -0.2960
 7284TIP3    H143343   3.617   5.504   1.451 -0.7639  1.5363 -0.6161
 7284TIP3    H243344   3.634   5.563   1.589  0.1816  0.9556 -0.4727
 7285TIP3   OH243345   5.546   2.082  12.874 -0.2397  0.9624 -0.5103
 7285TIP3    H143346   5.642   2.081  12.874 -0.2198  0.2433 -2.8011
 7285TIP3    H243347   5.521   1.990  12.868 -1.0886  1.1063  0.7995
 7286TIP3   OH243348   6.544   2.419  10.814  0.3592 -0.4255  0.2572
 7286TIP3    H143349   6.623   2.371  10.838  0.8904  0.4789  0.3382
 7286TIP3    H243350   6.575   2.506  10.790 -0.4936 -0.4107 -0.8206
 7287TIP3   OH243351   2.345   3.087   5.339  0.2552 -0.2197  0.8432
 7287TIP3    H143352   2.370   3.179   5.352 -0.2364 -0.2350  2.0353
 7287TIP3    H243353   2.349   3.074   5.245 -0.6676  1.3229  0.5739
 7288TIP3   OH243354   1.401   6.232  15.869  0.3031 -0.0208 -0.2068
 7288TIP3    H143355   1.419   6.278  15.787 -2.1256 -0.0504 -0.8145
 7288TIP3    H243356   1.315   6.192  15.855 -0.5992  0.7760  2.7094
 7289TIP3   OH243357   3.611   6.319   4.082 -0.7326  0.2467 -0.3160
 7289TIP3    H143358   3.590   6.255   4.151 -1.9313  0.1759 -0.7286
 7289TIP3    H243359   3.529   6.367   4.069  0.0446  1.6008 -0.3024
 7290TIP3   OH243360   1.533   3.677   4.009  0.1546 -0.1997 -0.5220
 7290TIP3    H143361   1.480   3.757   4.010  0.7175  0.1636  0.0821
 7290TIP3    H243362   1.622   3.708   3.994  0.3390 -0.7364 -0.5288
 7291TIP3   OH243363   0.473   0.319  16.622 -0.2681  0.1027  0.2326
 7291TIP3    H143364   0.395   0.301  16.675 -0.8073 -1.7838 -1.1822
 7291TIP3    H243365   0.464   0.264  16.545  2.6743 -0.4455  0.2174
 7292TIP3   OH243366   4.694   3.466   1.557 -0.1450 -0.1521  0.7135
 7292TIP3    H143367   4.663   3.556   1.558  2.7655  0.9119  3.6138
 7292TIP3    H243368   4.751   3.460   1.481 -0.6379  0.3124  0.3034
 7293TIP3   OH243369   0.396   3.000  12.538 -0.8589  0.0332  0.7899
 7293TIP3    H143370   0.345   3.029  12.614 -0.6182  2.4652  0.0698
 7293TIP3    H243371   0.411   3.080  12.487  1.0844 -1.1483 -0.5664
 7294TIP3   OH243372   2.409   0.924   0.292 -0.5578  0.0174  0.6935
 7294TIP3    H143373   2.370   0.947   0.207  0.2077  1.0598  0.6122
 7294TIP3    H243374   2.459   1.002   0.317  0.8943 -1.0473  1.1407
 7295TIP3   OH243375   2.714   5.792  16.979 -0.3037 -0.0168 -0.1966
 7295TIP3    H143376   2.713   5.885  16.954 -2.5539 -0.0531 -0.3212
 7295TIP3    H243377   2.769   5.750  16.913 -1.2858  0.8541 -1.6036
 7296TIP3   OH243378   1.460   2.861   2.534  0.8229  0.5238  1.1139
 7296TIP3    H143379   1.516   2.833   2.606  1.3056 -2.4694 -0.3660
 7296TIP3    H243380   1.396   2.791   2.524 -0.6493  1.9734  0.0837
 7297TIP3   OH243381   4.634   6.525   1.852  0.2709  0.6980  0.7320
 7297TIP3    H143382   4.575   6.548   1.924  0.4441  0.7313  0.8638
 7297TIP3    H243383   4.719   6.510   1.894  0.2967  0.3915  0.5740
 7298TIP3   OH243384   6.316   3.849  17.137  0.0213 -0.0147 -0.0815
 7298TIP3    H143385   6.268   3.932  17.135  2.2764  1.3876  1.1781
 7298TIP3    H243386   6.339   3.832  17.046 -1.5218  0.0959 -0.4983
 7299TIP3   OH243387   3.933   2.501  15.174  0.7774 -0.1796  0.6386
 7299TIP3    H143388   3.901   2.590  15.160  3.8152  0.8873  0.2019
 7299TIP3    H243389   3.860   2.445  15.146 -1.4281  2.1255  1.5297
 7300TIP3   OH243390   6.506   2.652  12.877 -0.7632  0.3389  0.5984
 7300TIP3    H143391   6.535   2.561  12.879 -2.6930 -0.2992  0.4930
 7300TIP3    H243392   6.478   2.666  12.787 -0.5535  1.0095  0.6402
 7301TIP3   OH243393   1.249   1.286   0.796  0.1293  0.1204 -0.6756
 7301TIP3    H143394   1.224   1.229   0.724 -2.2096 -0.2411  0.3446
 7301TIP3    H243395   1.192   1.363   0.786 -0.5133 -0.1184  0.9764
 7302TIP3   OH243396   3.442   1.573  14.354 -0.2301  0.4367  0.0728
 7302TIP3    H143397   3.500   1.618  14.293  1.2072  0.4370  1.4028
 7302TIP3    H243398   3.355   1.604  14.331  0.5642  2.6686 -0.1286
 7303TIP3   OH243399   2.068   6.559   1.103  0.0312  0.0686  0.4022
 7303TIP3    H143400   2.092   6.585   1.192 -1.5001 -1.3336  1.2479
 7303TIP3    H243401   2.009   6.484   1.115 -0.6652  0.2452 -1.7778
 7304TIP3   OH243402   1.894   2.016  13.002 -0.3874 -0.5648  0.8722
 7304TIP3    H143403   1.950   2.054  12.934 -0.7759 -0.9472  0.3254
 7304TIP3    H243404   1.882   2.086  13.066  2.0210 -0.9730  1.8168
 7305TIP3   OH243405   5.922   5.104  16.751  0.2354 -0.7187 -0.0949
 7305TIP3    H143406   5.868   5.108  16.830  1.0321  0.3170  0.4046
 7305TIP3    H243407   5.885   5.032  16.701 -2.5494  0.9037 -0.4616
 7306TIP3   OH243408   0.626   2.833   2.768 -0.0489 -0.6813  0.8733
 7306TIP3    H143409   0.704   2.854   2.820  0.2718 -0.2854  0.2443
 7306TIP3    H243410   0.661   2.794   2.688 -0.5913 -2.2913  1.4116
 7307TIP3   OH243411   4.720   2.231   4.576 -0.0199  0.0750 -0.3721
 7307TIP3    H143412   4.692   2.204   4.489  1.3384 -1.8261 -0.2568
 7307TIP3    H243413   4.759   2.152   4.614 -1.4263  0.5962  2.3007
 7308TIP3   OH243414   3.426   3.132  13.407 -0.7569  0.1884 -0.3133
 7308TIP3    H143415   3.505   3.133  13.353 -1.0993  1.2893 -0.7910
 7308TIP3    H243416   3.445   3.066  13.474 -0.6774 -1.8717 -2.2948
 7309TIP3   OH243417   4.093   4.426   5.798  0.2206 -0.1133  0.2165
 7309TIP3    H143418   4.167   4.379   5.761 -0.0930 -0.6855  0.3073
 7309TIP3    H243419   4.117   4.443   5.888  0.0287 -0.7636  0.3946
 7310TIP3   OH243420   2.822   1.346   1.575  0.0394 -0.4204  0.1296
 7310TIP3    H143421   2.773   1.346   1.492 -1.1473  0.9186  0.8108
 7310TIP3    H243422   2.795   1.265   1.618 -1.0686 -0.0275  0.1973
 7311TIP3   OH243423   4.888   2.382  16.149  0.0523 -0.1489 -0.9283
 7311TIP3    H143424   4.954   2.394  16.217 -1.3803  0.1872  0.4334
 7311TIP3    H243425   4.910   2.447  16.083  1.5091 -0.5235 -0.8423
 7312TIP3   OH243426   3.314   0.758   0.288 -0.1098  0.3353 -0.4489
 7312TIP3    H143427   3.287   0.744   0.197  1.0346 -0.7835 -0.6320
 7312TIP3    H243428   3.233   0.776   0.335 -0.7694  0.4028 -1.5987
 7313TIP3   OH243429   0.431   1.556  12.013 -0.3896  0.2672  0.8143
 7313TIP3    H143430   0.366   1.527  12.078 -0.8890 -0.7945 -0.1459
 7313TIP3    H243431   0.379   1.581  11.937  0.3857 -1.6711 -0.3682
 7314TIP3   OH243432   3.176   6.585   2.429  0.1543  0.1237  0.5317
 7314TIP3    H143433   3.114   6.655   2.410 -0.3377 -0.7469 -1.1685
 7314TIP3    H243434   3.261   6.620   2.405  0.0373  0.5026  0.6708
 7315TIP3   OH243435   4.206   2.792  10.749 -0.1632 -0.2102  0.4568
 7315TIP3    H143436   4.204   2.820  10.657 -0.9991 -1.9915 -0.0942
 7315TIP3    H243437   4.123   2.823  10.785 -0.2726 -0.3680  0.3428
 7316TIP3   OH243438   1.976   3.713   4.628 -0.1293 -0.0099 -0.0229
 7316TIP3    H143439   2.040   3.778   4.658 -0.9878  0.1744  1.4203
 7316TIP3    H243440   1.900   3.765   4.603  0.3506 -0.2025 -2.0441
 7317TIP3   OH243441   1.662   1.820   1.929 -0.0563 -0.2064 -0.4371
 7317TIP3    H143442   1.720   1.870   1.986  1.4078 -0.6885 -1.4869
 7317TIP3    H243443   1.625   1.885   1.869 -2.3495  0.4659  1.6115
 7318TIP3   OH243444   4.222   0.193   4.318 -0.5206  0.1731 -0.8842
 7318TIP3    H143445   4.269   0.218   4.397  1.7451 -0.2142 -2.0480
 7318TIP3    H243446   4.216   0.274   4.267 -1.2010  0.2429 -0.6874
 7319TIP3   OH243447   4.668   1.796  12.685  0.3457  0.4625 -0.1854
 7319TIP3    H143448   4.648   1.875  12.635  0.6218 -0.3142 -1.5729
 7319TIP3    H243449   4.627   1.725  12.634  0.7196 -0.3622  0.6500
 7320TIP3   OH243450   6.075   3.349   3.238  0.2735 -0.2713  0.1033
 7320TIP3    H143451   5.997   3.295   3.253  0.8858 -0.9980  0.6936
 7320TIP3    H243452   6.053   3.402   3.162 -0.5349 -0.9808 -0.1685
 7321TIP3   OH243453   5.198   0.373  11.898  0.3816 -0.0515 -0.6874
 7321TIP3    H143454   5.195   0.436  11.970  3.0447  0.2226 -0.7567
 7321TIP3    H243455   5.107   0.358  11.875 -0.3771  2.2924  0.6286
 7322TIP3   OH243456   3.965   2.470   1.608 -0.2150  0.0217  0.6277
 7322TIP3    H143457   3.959   2.479   1.703  0.3316 -0.8045  0.7487
 7322TIP3    H243458   3.945   2.557   1.574 -1.9627 -0.0463  1.4261
 7323TIP3   OH243459   3.175   3.371   2.443  0.7528 -0.0258  0.3870
 7323TIP3    H143460   3.183   3.318   2.522  0.5288 -0.7524 -0.0768
 7323TIP3    H243461   3.257   3.356   2.396  0.3963 -0.4971 -0.0778
 7324TIP3   OH243462   3.643   4.014  12.258 -0.3719 -0.9549 -0.0098
 7324TIP3    H143463   3.690   4.074  12.200 -1.6829 -1.5068 -1.7071
 7324TIP3    H243464   3.615   4.068  12.331 -0.6854  0.2991 -1.0276
 7325TIP3   OH243465   5.773   2.415   0.484 -0.0558 -0.0215 -0.1582
 7325TIP3    H143466   5.860   2.439   0.516 -0.3806 -0.1032  0.8273
 7325TIP3    H243467   5.777   2.321   0.471  0.0842  0.0137 -0.3675
 7326TIP3   OH243468   5.108   1.847  11.484 -0.8848 -0.5703  0.3979
 7326TIP3    H143469   5.162   1.780  11.442 -0.4207 -1.6202  2.5861
 7326TIP3    H243470   5.087   1.810  11.570 -1.5265  1.6509  1.2285
 7327TIP3   OH243471   5.158   3.658  12.079  0.5912 -0.2570 -0.7058
 7327TIP3    H143472   5.104   3.716  12.133 -0.8965 -0.6118 -1.7536
 7327TIP3    H243473   5.218   3.617  12.140 -0.2730  0.2385  0.5016
 7328TIP3   OH243474   6.310   4.063   2.990 -0.3746  0.1937 -0.5285
 7328TIP3    H143475   6.341   3.981   2.951 -2.5428 -1.2256  0.6105
 7328TIP3    H243476   6.380   4.089   3.050 -0.1205 -1.4137 -0.1024
 7329TIP3   OH243477   5.789   2.509   0.191 -0.0095 -0.1218  0.1778
 7329TIP3    H143478   5.784   2.459   0.273 -0.3432  0.3947  0.4794
 7329TIP3    H243479   5.792   2.443   0.122 -0.1716 -0.5547  0.5841
 7330TIP3   OH243480   0.257   0.396  11.376 -0.0728  0.5184  0.1079
 7330TIP3    H143481   0.246   0.302  11.391  0.1760  0.4239 -0.3013
 7330TIP3    H243482   0.169   0.432  11.383 -0.1177  0.3132  0.6610
 7331TIP3   OH243483   4.313   3.319  16.792  0.0885  0.6317  0.2133
 7331TIP3    H143484   4.353   3.272  16.865  0.8901  0.6149 -0.2345
 7331TIP3    H243485   4.232   3.270  16.775  0.6448 -0.2712  0.1102
 7332TIP3   OH243486   3.413   4.418  15.109 -0.4070  0.3300 -0.4643
 7332TIP3    H143487   3.467   4.341  15.092 -1.9512 -1.1769  1.3109
 7332TIP3    H243488   3.475   4.485  15.137  0.7148 -0.8858 -0.0022
 7333TIP3   OH243489   0.779   6.768  14.945 -0.1131  0.2106 -0.6244
 7333TIP3    H143490   0.741   6.690  14.905 -3.0847  1.1434  0.2990
 7333TIP3    H243491   0.782   6.832  14.874 -0.6707  0.2759 -0.5878
 7334TIP3   OH243492   5.451   4.320   1.636  0.1198  0.0044  0.0591
 7334TIP3    H143493   5.394   4.272   1.696  0.8717  0.2182  0.9543
 7334TIP3    H243494   5.540   4.294   1.660  0.4043 -0.7427 -1.6852
 7335TIP3   OH243495   2.441   0.310  15.787 -0.3998  0.3119  0.0210
 7335TIP3    H143496   2.365   0.363  15.807 -0.5384 -0.0374  0.4341
 7335TIP3    H243497   2.457   0.324  15.694 -0.4532  1.0482  0.1254
 7336TIP3   OH243498   5.656   0.970   4.845  0.9231 -0.0613 -0.2444
 7336TIP3    H143499   5.643   0.887   4.798  2.0732 -0.6735  0.4958
 7336TIP3    H243500   5.686   0.943   4.933  1.4648  1.1434 -0.0559
 7337TIP3   OH243501   5.978   5.376  12.811  0.3624  0.2154  0.1935
 7337TIP3    H143502   6.014   5.344  12.893  0.1735  2.0261  1.0040
 7337TIP3    H243503   6.054   5.399  12.758  0.4854 -1.0550 -0.1801
 7338TIP3   OH243504   0.466   3.495  14.019  0.1524  0.1873 -0.7742
 7338TIP3    H143505   0.545   3.537  14.053 -0.7351  0.7403  0.6591
 7338TIP3    H243506   0.425   3.455  14.096 -1.7243  1.1535 -1.2397
 7339TIP3   OH243507   4.615   6.030  13.685  0.0605  0.1016  0.2783
 7339TIP3    H143508   4.686   6.028  13.622 -0.9459  0.0705 -0.8605
 7339TIP3    H243509   4.601   6.123  13.702 -0.8086  0.1783 -0.8404
 7340TIP3   OH243510   6.790   5.197   5.016  0.3239  0.3036 -0.3022
 7340TIP3    H143511   6.778   5.120   4.961  0.9328 -0.1029  0.1287
 7340TIP3    H243512   6.715   5.253   4.995  0.2647 -0.0771 -1.1495
 7341TIP3   OH243513   0.269   4.518   6.337 -0.1130  0.5172  0.2083
 7341TIP3    H143514   0.174   4.504   6.338 -0.2897  1.0612 -2.9598
 7341TIP3    H243515   0.278   4.611   6.315  1.1475  0.4782  0.5582
 7342TIP3   OH243516   3.402   6.454  14.884 -0.1048  0.0557 -0.7096
 7342TIP3    H143517   3.315   6.438  14.921  0.5909 -0.7435  0.6385
 7342TIP3    H243518   3.439   6.522  14.940 -0.0166  0.7197 -1.5611
 7343TIP3   OH243519   4.316   0.723   3.993  0.0063  0.0132  0.7839
 7343TIP3    H143520   4.400   0.755   4.027 -0.0260  0.9388  0.0257
 7343TIP3    H243521   4.338   0.642   3.947  0.4854  0.2348  0.6126
 7344TIP3   OH243522   4.795   2.668   1.916  0.2721  0.4802  0.2552
 7344TIP3    H143523   4.728   2.670   1.848  1.3055 -0.4731 -0.8340
 7344TIP3    H243524   4.790   2.754   1.958  1.0685  1.9370 -2.4900
 7345TIP3   OH243525   3.753   2.630   3.739 -0.3723 -0.4281 -0.9429
 7345TIP3    H143526   3.741   2.725   3.738 -2.6055 -0.6913 -1.7694
 7345TIP3    H243527   3.803   2.611   3.660  0.8255  0.1336 -0.3338
 7346TIP3   OH243528   1.893   4.386   5.388 -0.3354  0.0742 -0.5303
 7346TIP3    H143529   1.976   4.355   5.350 -0.4134 -1.0729  0.1974
 7346TIP3    H243530   1.847   4.427   5.315  2.1379  3.4206 -0.3054
 7347TIP3   OH243531   0.987   6.703  15.500  0.2833 -0.5999 -0.3459
 7347TIP3    H143532   1.035   6.659  15.430  0.8269  0.1884 -0.4710
 7347TIP3    H243533   0.934   6.634  15.540  0.6565 -1.2367 -0.9478
 7348TIP3   OH243534   1.967   0.482  12.849 -0.2014  0.1757 -0.4447
 7348TIP3    H143535   1.950   0.569  12.884 -0.8787  0.2127 -0.8601
 7348TIP3    H243536   1.972   0.495  12.754 -0.4840 -0.2646 -0.5190
 7349TIP3   OH243537   2.302   2.389  12.582 -0.7165 -0.7388  0.1156
 7349TIP3    H143538   2.215   2.347  12.583 -0.6549 -0.8578  0.9489
 7349TIP3    H243539   2.306   2.433  12.497 -1.3137 -1.3254 -0.2242
 7350TIP3   OH243540   6.386   4.024   4.943  0.1440  0.3997  0.0006
 7350TIP3    H143541   6.337   4.067   4.873 -0.9719 -1.5030 -0.4255
 7350TIP3    H243542   6.364   3.931   4.935  1.1802 -0.0556  1.9421
 7351TIP3   OH243543   6.212   4.323  13.144  0.5668  0.2133  0.0112
 7351TIP3    H143544   6.164   4.362  13.216  1.9565 -0.4085  1.3139
 7351TIP3    H243545   6.147   4.272  13.095 -0.5382  1.2795  0.3675
 7352TIP3   OH243546   3.343   2.062   5.938  0.2329 -0.3155  0.4559
 7352TIP3    H143547   3.297   2.146   5.942  0.0263 -0.3443 -1.3115
 7352TIP3    H243548   3.431   2.082   5.970  0.2418  0.6152 -0.1317
 7353TIP3   OH243549   3.192   5.021  16.371 -0.3794  0.2586 -0.0057
 7353TIP3    H143550   3.157   4.932  16.379  0.5060 -0.1020 -0.0980
 7353TIP3    H243551   3.127   5.068  16.318 -0.2026 -0.6874 -1.0610
 7354TIP3   OH243552   2.347   6.155   2.369 -0.1132 -0.3542  0.7515
 7354TIP3    H143553   2.355   6.190   2.458 -2.5864 -0.1681  0.9202
 7354TIP3    H243554   2.332   6.232   2.314 -0.5944 -0.6684  0.4441
 7355TIP3   OH243555   1.748   4.450  13.111 -0.2017 -0.1897  0.0202
 7355TIP3    H143556   1.733   4.544  13.123 -1.0987 -0.3985  0.5306
 7355TIP3    H243557   1.822   4.431  13.169  0.1132  0.2399 -0.2390
 7356TIP3   OH243558   1.993   0.191  15.224 -0.3810  0.1602 -0.2928
 7356TIP3    H143559   1.957   0.103  15.225 -0.5966  0.2351 -0.8876
 7356TIP3    H243560   2.086   0.179  15.244 -0.6512 -0.0725  0.8438
 7357TIP3   OH243561   2.927   4.048  11.661 -0.7959  0.1625  0.5275
 7357TIP3    H143562   2.914   4.116  11.594 -1.4910  0.1692  0.6683
 7357TIP3    H243563   2.985   3.985  11.619 -2.4701 -0.6303 -0.6729
 7358TIP3   OH243564   5.307   5.870  13.616 -0.1986 -0.2703  0.3222
 7358TIP3    H143565   5.376   5.803  13.615 -0.8524 -1.0319  2.9236
 7358TIP3    H243566   5.230   5.825  13.581 -0.7711 -1.0534  2.5508
 7359TIP3   OH243567   6.819   4.774  14.664 -0.3654 -0.2704 -0.1606
 7359TIP3    H143568   6.785   4.750  14.750 -0.8231  1.7849  0.2704
 7359TIP3    H243569   6.749   4.826  14.624  0.9954  1.3567 -0.5267
 7360TIP3   OH243570   5.054   4.942   3.961 -0.1655  0.0001 -0.1328
 7360TIP3    H143571   5.055   4.877   3.890 -1.2738  0.0804 -0.2385
 7360TIP3    H243572   4.986   5.004   3.934  1.2393  1.4802 -0.2815
 7361TIP3   OH243573   0.706   6.265   5.375 -0.4965  0.0477 -0.0250
 7361TIP3    H143574   0.674   6.223   5.295 -0.4854  0.0778 -0.0451
 7361TIP3    H243575   0.783   6.314   5.347 -0.2829 -0.2278  0.0696
 7362TIP3   OH243576   2.401   1.603   5.176 -0.4228  0.5064  0.2129
 7362TIP3    H143577   2.332   1.566   5.121 -0.0475 -2.2554  1.5296
 7362TIP3    H243578   2.376   1.581   5.265  0.1992  2.8837  1.0216
 7363TIP3   OH243579   6.283   0.687   2.472 -0.2040 -0.0065  0.1348
 7363TIP3    H143580   6.316   0.765   2.519 -2.0786 -0.1777  1.8145
 7363TIP3    H243581   6.247   0.722   2.391 -1.8309  1.0494  1.2677
 7364TIP3   OH243582   5.862   5.125   0.811 -0.1416  0.2995  0.2196
 7364TIP3    H143583   5.783   5.103   0.860 -0.5276  0.4090 -0.3390
 7364TIP3    H243584   5.829   5.172   0.734  0.3128 -1.3579 -1.0193
 7365TIP3   OH243585   2.480   2.886  15.654  0.2986 -0.0508  0.2926
 7365TIP3    H143586   2.447   2.817  15.596 -0.2996 -2.1107  2.9335
 7365TIP3    H243587   2.539   2.840  15.713 -0.1908  1.6893  2.1875
 7366TIP3   OH243588   4.402   1.853   3.580 -0.6309  0.0174 -0.3443
 7366TIP3    H143589   4.405   1.921   3.512 -0.9601  0.8839  0.5042
 7366TIP3    H243590   4.338   1.884   3.643 -1.5344 -1.5857 -0.4549
 7367TIP3   OH243591   4.746   1.976  12.344 -0.5942  0.7659 -0.5367
 7367TIP3    H143592   4.668   1.967  12.399 -0.7020  2.6840 -0.3434
 7367TIP3    H243593   4.752   2.070  12.326  2.3751  0.7943  0.4532
 7368TIP3   OH243594   1.460   6.415  13.171 -0.1007  0.9762 -0.2436
 7368TIP3    H143595   1.450   6.506  13.143  1.9240  1.3258  0.1304
 7368TIP3    H243596   1.534   6.382  13.121 -0.7316 -0.4326 -0.2618
 7369TIP3   OH243597   0.627   2.922  12.151 -0.0013 -0.2325 -0.0759
 7369TIP3    H143598   0.707   2.880  12.183 -0.0523 -0.4677 -0.2535
 7369TIP3    H243599   0.654   3.011  12.128  0.2713 -0.3979 -0.4005
 7370TIP3   OH243600   5.877   2.746  15.414 -0.4341  0.1671 -0.3476
 7370TIP3    H143601   5.952   2.687  15.408 -0.2486  0.4290 -0.5938
 7370TIP3    H243602   5.907   2.828  15.375 -0.9660  0.1612 -0.7669
 7371TIP3   OH243603   0.117   0.613   6.315  0.6609 -0.0228  0.3368
 7371TIP3    H143604   0.128   0.519   6.327  3.9440  0.4523  1.5630
 7371TIP3    H243605   0.193   0.639   6.262 -0.1113  1.9844  0.1724
 7372TIP3   OH243606   6.118   5.376   3.917 -0.0384 -0.2838  0.1251
 7372TIP3    H143607   6.193   5.317   3.925 -0.0748 -0.2578  0.6873
 7372TIP3    H243608   6.043   5.322   3.943  0.1086  0.4237  2.0654
 7373TIP3   OH243609   4.667   5.283  13.951 -0.0423  0.7507  0.1200
 7373TIP3    H143610   4.627   5.323  13.873  0.6408  0.6157 -0.3037
 7373TIP3    H243611   4.644   5.190  13.945 -0.3136  0.8051  0.2850
 7374TIP3   OH243612   1.259   4.807   5.173  0.3984  0.0899 -0.4265
 7374TIP3    H143613   1.228   4.874   5.234 -1.4586 -0.5470 -0.6663
 7374TIP3    H243614   1.300   4.857   5.102 -0.2269  0.9466 -0.1903
 7375TIP3   OH243615   4.933   0.850  14.976 -0.0026 -0.0856 -0.0164
 7375TIP3    H143616   4.992   0.826  14.905 -0.0670 -3.4460  0.9657
 7375TIP3    H243617   4.984   0.911  15.030  1.8759 -1.3950 -0.2641
 7376TIP3   OH243618   4.993   3.179   3.070 -0.2598  0.2940 -0.3910
 7376TIP3    H143619   5.073   3.153   3.115 -0.9407 -2.1978 -0.5937
 7376TIP3    H243620   4.945   3.098   3.055 -2.4085  1.6332 -1.1099
 7377TIP3   OH243621   6.801   6.726   2.671  0.5777  0.4079  0.4800
 7377TIP3    H143622   6.714   6.688   2.656  0.2045  1.6386 -0.5436
 7377TIP3    H243623   6.857   6.686   2.605  0.6658  0.0338  0.7805
 7378TIP3   OH243624   5.962   0.909  15.612  0.1757 -0.7257  0.1008
 7378TIP3    H143625   6.035   0.967  15.591  1.8635 -2.4820  0.9019
 7378TIP3    H243626   5.896   0.928  15.545  0.4096  2.4958  0.6945
 7379TIP3   OH243627   6.425   5.822   4.536 -0.2738 -0.3188 -0.2775
 7379TIP3    H143628   6.370   5.751   4.567 -1.0356 -0.3738 -1.7212
 7379TIP3    H243629   6.367   5.898   4.532  0.2866  0.1400  0.2884
 7380TIP3   OH243630   3.995   1.331  13.679 -0.0396 -0.0486 -0.6156
 7380TIP3    H143631   4.024   1.420  13.657  0.4753 -0.4548 -1.6358
 7380TIP3    H243632   3.928   1.311  13.613  0.2421 -0.6176 -0.7305
 7381TIP3   OH243633   1.761   4.790  16.526  0.3361  0.5038 -0.2214
 7381TIP3    H143634   1.839   4.743  16.555 -0.0804 -0.4202 -0.5672
 7381TIP3    H243635   1.778   4.882  16.548  1.9387  0.4480 -1.2123
 7382TIP3   OH243636   2.636   1.199   3.012  0.1711 -0.4881  0.5847
 7382TIP3    H143637   2.717   1.240   3.042  0.9455 -2.0264  0.6188
 7382TIP3    H243638   2.665   1.129   2.953 -1.2268  0.6684 -1.5116
 7383TIP3   OH243639   6.242   0.170  14.278  0.0055 -0.5466  0.1805
 7383TIP3    H143640   6.254   0.159  14.184 -0.0225  3.6662 -0.4213
 7383TIP3    H243641   6.150   0.192  14.288  0.1032 -0.5631  1.1742
 7384TIP3   OH243642   6.095   2.306  14.004  0.0584  0.7486 -0.4156
 7384TIP3    H143643   6.000   2.304  14.014  0.1089 -3.3434  0.1392
 7384TIP3    H243644   6.110   2.270  13.916  1.1271 -0.4607  0.2475
 7385TIP3   OH243645   5.843   6.153   1.489 -0.1523  0.0994 -0.3327
 7385TIP3    H143646   5.895   6.074   1.479 -0.2946 -0.0568  0.1707
 7385TIP3    H243647   5.887   6.218   1.433 -0.2235 -0.4197 -0.9964
 7386TIP3   OH243648   2.972   1.824  14.126  0.7098  0.4253 -0.3488
 7386TIP3    H143649   3.000   1.899  14.179  0.1210 -0.0846  0.7093
 7386TIP3    H243650   2.915   1.774  14.185 -1.0041  0.5210 -1.8924
 7387TIP3   OH243651   1.050   2.533   3.674  0.4766  0.4997  0.6136
 7387TIP3    H143652   0.981   2.524   3.608  0.6034  0.6218  0.4633
 7387TIP3    H243653   1.106   2.457   3.660 -0.1949 -0.1507  1.4086
 7388TIP3   OH243654   3.021   0.455  15.776  0.0898 -0.1932 -0.5807
 7388TIP3    H143655   2.960   0.383  15.790 -0.4580  0.4423  0.3295
 7388TIP3    H243656   2.968   0.524  15.736 -0.0185  0.7074  1.0854
 7389TIP3   OH243657   4.579   4.486   3.256  0.0957 -0.2467  0.5137
 7389TIP3    H143658   4.533   4.553   3.206 -1.5208 -2.7798 -1.5631
 7389TIP3    H243659   4.565   4.510   3.348 -1.7157  1.4255 -0.1675
 7390TIP3   OH243660   0.176   5.879  13.788  0.0192  0.2217  0.3284
 7390TIP3    H143661   0.213   5.821  13.721 -1.5803 -0.1290 -0.2738
 7390TIP3    H243662   0.221   5.855  13.868  1.9015  0.5698 -0.5913
 7391TIP3   OH243663   5.379   2.556   2.831  0.0605  0.1280 -0.1221
 7391TIP3    H143664   5.396   2.464   2.813 -0.7863 -0.1293  0.3303
 7391TIP3    H243665   5.285   2.560   2.851  0.1551  1.0303  0.2064
 7392TIP3   OH243666   5.868   1.643  14.642  0.1588 -0.3382  0.1665
 7392TIP3    H143667   5.949   1.637  14.692 -1.6541  0.8196  3.3648
 7392TIP3    H243668   5.838   1.552  14.634  1.1639 -0.6604 -0.0102
 7393TIP3   OH243669   0.435   6.411   3.273  0.2075  0.0018 -0.1091
 7393TIP3    H143670   0.382   6.336   3.302 -0.4560 -0.5187 -2.5611
 7393TIP3    H243671   0.525   6.383   3.289  0.0934 -2.3293 -3.1726
 7394TIP3   OH243672   4.060   5.656  13.955  0.2884 -1.1621  0.6145
 7394TIP3    H143673   4.062   5.560  13.960  0.2567 -1.2334 -0.5458
 7394TIP3    H243674   4.021   5.684  14.038  1.3497 -2.1016  1.4506
 7395TIP3   OH243675   6.211   6.228  12.679  0.5084 -0.5342 -0.5690
 7395TIP3    H143676   6.306   6.235  12.691  0.1599  2.8253  0.8417
 7395TIP3    H243677   6.194   6.273  12.597 -0.0870  1.1320  0.4412
 7396TIP3   OH243678   2.739   5.658  15.427  0.0827  0.0609  0.3731
 7396TIP3    H143679   2.829   5.638  15.453 -1.1048 -3.5508  2.0797
 7396TIP3    H243680   2.748   5.709  15.347  3.6711  1.7438  1.7366
 7397TIP3   OH243681   4.834   3.586   5.235 -0.1242  0.2257 -0.6665
 7397TIP3    H143682   4.911   3.597   5.178  0.0321  0.7816 -0.3490
 7397TIP3    H243683   4.864   3.524   5.302 -0.4961 -0.8970 -1.5244
 7398TIP3   OH243684   1.101   6.095  15.943  0.3917 -0.5639  0.4883
 7398TIP3    H143685   1.077   6.181  15.979  0.1397  0.9621 -3.0753
 7398TIP3    H243686   1.017   6.053  15.923  0.5240 -0.0559 -1.2155
 7399TIP3   OH243687   0.561   4.984  11.651 -0.5598 -0.2952 -0.3276
 7399TIP3    H143688   0.524   5.045  11.587 -1.2329 -0.7868 -0.3993
 7399TIP3    H243689   0.579   5.039  11.728 -0.9964  0.0284 -0.4548
 7400TIP3   OH243690   6.222   3.370  14.517  0.0843 -0.4746 -0.7049
 7400TIP3    H143691   6.308   3.364  14.560 -1.0459 -1.5796  1.4491
 7400TIP3    H243692   6.214   3.463  14.494  1.0052  0.0480  0.9358
 7401TIP3   OH243693   2.151   2.617  14.564 -0.1397 -0.1314 -0.1163
 7401TIP3    H143694   2.103   2.538  14.537  1.5504 -1.2136 -0.0061
 7401TIP3    H243695   2.217   2.585  14.625  1.0585  1.2843 -0.6586
 7402TIP3   OH243696   5.409   4.985  15.442 -0.5803 -0.0238 -0.8424
 7402TIP3    H143697   5.419   5.061  15.500  0.4574 -0.0896 -0.9180
 7402TIP3    H243698   5.372   4.917  15.499 -0.0835  0.0776 -0.3898
 7403TIP3   OH243699   1.963   3.189   2.841  0.2907 -0.5565  0.1302
 7403TIP3    H143700   1.918   3.203   2.758 -0.1841  2.7748  0.8701
 7403TIP3    H243701   2.029   3.123   2.822 -0.8586 -1.0037 -2.5043
 7404TIP3   OH243702   4.900   4.579   4.407 -0.4948 -0.1579  0.2701
 7404TIP3    H143703   4.830   4.589   4.342  0.0973  1.6222 -0.1415
 7404TIP3    H243704   4.975   4.549   4.356 -1.0716 -2.5318  0.7913
 7405TIP3   OH243705   2.901   5.304   4.889 -0.1931  0.6865  0.2898
 7405TIP3    H143706   2.871   5.219   4.859  0.8683  0.9242 -1.5699
 7405TIP3    H243707   2.965   5.285   4.957 -0.8329  0.0445  0.7141
 7406TIP3   OH243708   1.211   0.098  16.847  0.2672  0.5725 -0.3089
 7406TIP3    H143709   1.243   0.104  16.937 -2.0751 -0.9467  0.6636
 7406TIP3    H243710   1.247   0.016  16.814 -0.4260  0.1890 -0.1129
 7407TIP3   OH243711   2.234   0.324   2.028 -0.0813  0.2492  0.0267
 7407TIP3    H143712   2.183   0.394   2.069 -0.8563  0.6840 -1.6251
 7407TIP3    H243713   2.173   0.281   1.969  0.4335 -1.7677  0.9279
 7408TIP3   OH243714   6.134   2.195   0.057  1.4059 -0.4065 -0.7958
 7408TIP3    H143715   6.188   2.118   0.074  0.0697 -1.4446 -1.1615
 7408TIP3    H243716   6.103   2.184  -0.033  0.9946  0.4363 -0.7693
 7409TIP3   OH243717   2.312   1.576  12.971  0.2936  0.6611  0.1880
 7409TIP3    H143718   2.379   1.512  12.947 -1.5573 -2.1888  2.3313
 7409TIP3    H243719   2.348   1.621  13.048  0.1233 -0.2375  0.7931
 7410TIP3   OH243720   0.675   6.118  14.878 -0.4707 -0.3168  0.1507
 7410TIP3    H143721   0.719   6.176  14.941 -2.2324 -0.3331  1.4133
 7410TIP3    H243722   0.599   6.084  14.925 -1.1387 -1.2989 -1.5960
 7411TIP3   OH243723   0.429   5.170  15.112 -0.5835 -0.5022  0.2930
 7411TIP3    H143724   0.335   5.153  15.106 -0.8954  0.3933  2.1333
 7411TIP3    H243725   0.439   5.260  15.080 -0.3029 -0.7136 -0.2190
 7412TIP3   OH243726   2.264   3.872  15.554  0.0845 -0.8311  0.6340
 7412TIP3    H143727   2.197   3.939  15.539  1.4339  0.2745 -0.5471
 7412TIP3    H243728   2.217   3.802  15.601 -1.1546  1.2045  2.4884
 7413TIP3   OH243729   5.589   3.152   6.559 -0.1419 -0.0639 -0.8331
 7413TIP3    H143730   5.611   3.239   6.591  1.4160 -0.3483 -1.1279
 7413TIP3    H243731   5.496   3.158   6.536  0.0183  1.5721 -1.0745
 7414TIP3   OH243732   4.722   3.280  14.970 -0.4917  0.2257 -0.3502
 7414TIP3    H143733   4.652   3.242  14.917  0.5956  0.8173 -2.2439
 7414TIP3    H243734   4.714   3.375  14.957 -1.4343  0.5293  2.1264
 7415TIP3   OH243735   5.995   1.631  11.605 -0.2139  0.2475  0.3060
 7415TIP3    H143736   5.904   1.658  11.590 -0.8851 -1.9052  0.2278
 7415TIP3    H243737   6.034   1.628  11.518 -0.3728  0.1738  0.2369
 7416TIP3   OH243738   3.459   3.579  13.905 -0.0771  0.5199  0.5690
 7416TIP3    H143739   3.469   3.670  13.932 -0.4515  0.3223  1.3905
 7416TIP3    H243740   3.429   3.584  13.814  2.9336  1.1805 -0.4365
 7417TIP3   OH243741   3.645   1.981   3.324  0.1953 -0.3078 -0.3701
 7417TIP3    H143742   3.560   2.024   3.333  1.2221  1.2962  1.9618
 7417TIP3    H243743   3.705   2.051   3.296  1.0692 -1.0961 -0.5068
 7418TIP3   OH243744   2.546   1.800  14.363 -0.3014 -0.1030  0.3675
 7418TIP3    H143745   2.461   1.818  14.320  0.8127  0.7447 -1.5671
 7418TIP3    H243746   2.531   1.720  14.413 -2.3801  0.2742  0.3873
 7419TIP3   OH243747   4.327   6.229   4.902 -0.0750  0.7341  0.1245
 7419TIP3    H143748   4.422   6.216   4.893  0.3219  2.4241  1.6686
 7419TIP3    H243749   4.289   6.143   4.881  1.7413  0.2139 -1.1628
 7420TIP3   OH243750   2.027   5.226   5.806  0.2888  0.0517 -0.1737
 7420TIP3    H143751   2.021   5.137   5.841 -0.3083  0.4250  0.6934
 7420TIP3    H243752   2.107   5.227   5.755 -0.0964 -1.2077 -0.8149
 7421TIP3   OH243753   3.353   2.382  17.106 -0.2811 -0.1790 -0.4684
 7421TIP3    H143754   3.285   2.449  17.098  1.3199  1.3293 -1.9080
 7421TIP3    H243755   3.362   2.368  17.200  0.2070  2.5365 -0.0687
 7422TIP3   OH243756   4.641   5.243  11.868 -0.6589 -0.0946  0.2151
 7422TIP3    H143757   4.567   5.192  11.902 -1.3357  1.5922  1.3619
 7422TIP3    H243758   4.605   5.330  11.854  0.6527  0.2557 -1.0590
 7423TIP3   OH243759   5.259   3.541   5.314  0.1545  0.1609 -0.4156
 7423TIP3    H143760   5.336   3.577   5.358  0.5475 -1.3260  0.1331
 7423TIP3    H243761   5.185   3.581   5.359  0.5628 -0.7424  1.0736
 7424TIP3   OH243762   2.425   3.890  14.257 -0.2322  0.2541  0.6609
 7424TIP3    H143763   2.455   3.943  14.184 -1.6467  1.3818  0.8665
 7424TIP3    H243764   2.487   3.817  14.261  1.5473  1.6899  0.1547
 7425TIP3   OH243765   1.637   3.571  16.396 -0.1906  0.0871 -0.2999
 7425TIP3    H143766   1.717   3.559  16.346 -0.5608 -0.0138 -0.8709
 7425TIP3    H243767   1.659   3.638  16.461  0.7768 -0.9468  0.4788
 7426TIP3   OH243768   5.583   5.340  14.644 -0.3366 -0.1628  0.0317
 7426TIP3    H143769   5.590   5.349  14.549 -1.5730 -0.0906 -0.0729
 7426TIP3    H243770   5.567   5.247  14.659  0.3141 -0.2445  0.1965
 7427TIP3   OH243771   5.793   3.094  11.450 -0.0714 -0.0777  0.5830
 7427TIP3    H143772   5.723   3.131  11.396  1.1431  2.0489  0.3936
 7427TIP3    H243773   5.832   3.170  11.493  1.2381 -1.3830  1.7360
 7428TIP3   OH243774   2.179   4.189   1.530  0.6981 -0.2328  0.2363
 7428TIP3    H143775   2.213   4.135   1.602  0.4435 -1.4351 -0.5275
 7428TIP3    H243776   2.119   4.250   1.572  0.6665 -0.8218  1.0723
 7429TIP3   OH243777   0.920   5.135   2.369  0.1419 -0.5432 -0.1515
 7429TIP3    H143778   0.960   5.056   2.404 -0.2772 -0.7948 -0.2387
 7429TIP3    H243779   0.991   5.180   2.322  0.8931  0.1725  1.6374
 7430TIP3   OH243780   2.739   2.400  11.936  0.4069  0.4821 -0.6212
 7430TIP3    H143781   2.701   2.473  11.985 -1.1619  0.4558 -1.7565
 7430TIP3    H243782   2.666   2.365  11.885  1.4173 -1.1458 -0.9752
 7431TIP3   OH243783   4.855   2.976   5.962 -0.1570  0.0195 -0.1710
 7431TIP3    H143784   4.853   3.060   6.008  0.0593  0.0686 -0.2517
 7431TIP3    H243785   4.779   2.929   5.996  0.4146 -0.2353  0.7844
 7432TIP3   OH243786   6.687   1.137  12.968  0.0457  0.0950  0.2906
 7432TIP3    H143787   6.771   1.137  12.924 -0.0636  2.6263 -0.0030
 7432TIP3    H243788   6.647   1.220  12.943 -2.3780 -0.8909  0.7347
 7433TIP3   OH243789   4.597   6.593  14.994  0.2453 -0.2094  0.2823
 7433TIP3    H143790   4.689   6.620  14.999  0.0844  0.5762 -0.8585
 7433TIP3    H243791   4.599   6.499  15.009  1.0654  0.0318  1.8587
 7434TIP3   OH243792   2.345   6.544   0.192 -0.3427 -0.2814 -0.3213
 7434TIP3    H143793   2.317   6.633   0.217  0.3495  0.4094 -1.9605
 7434TIP3    H243794   2.420   6.526   0.248 -0.6676  0.0538  0.2294
 7435TIP3   OH243795   3.624   0.347   3.199 -0.1292 -0.0048  0.5111
 7435TIP3    H143796   3.640   0.343   3.104 -2.8021  1.8029 -0.0776
 7435TIP3    H243797   3.702   0.387   3.235  0.8668 -0.5879 -0.9440
 7436TIP3   OH243798   1.251   0.186   1.802 -0.2647 -0.0214 -0.7108
 7436TIP3    H143799   1.294   0.269   1.821  0.4889 -0.4149 -0.6874
 7436TIP3    H243800   1.160   0.199   1.828 -0.2126  0.8899 -0.9833
 7437TIP3   OH243801   1.977   4.632  11.251  0.1649 -0.2405 -0.0294
 7437TIP3    H143802   2.035   4.702  11.281 -0.3191 -0.5986  1.8119
 7437TIP3    H243803   1.933   4.668  11.175  1.6676  0.6015 -0.5154
 7438TIP3   OH243804   6.462   0.800   6.285 -0.1638  0.5136  0.2200
 7438TIP3    H143805   6.374   0.764   6.270 -0.6654  1.8541 -0.0755
 7438TIP3    H243806   6.460   0.830   6.376  0.6646 -1.3393  0.8671
 7439TIP3   OH243807   0.730   3.978  11.390 -0.3678  0.6339 -0.1147
 7439TIP3    H143808   0.642   3.951  11.414 -0.7150  0.4928 -1.5269
 7439TIP3    H243809   0.776   3.896  11.370  0.0606  0.7148  0.4997
 7440TIP3   OH243810   5.409   2.313  14.555  0.0791 -0.7806  0.2004
 7440TIP3    H143811   5.355   2.236  14.571 -0.7532 -0.2553 -0.0601
 7440TIP3    H243812   5.351   2.375  14.510  0.1940  0.6878  2.0041
 7441TIP3   OH243813   5.795   3.776   0.872  0.6015  0.2585 -0.2128
 7441TIP3    H143814   5.878   3.797   0.829  1.7031 -1.5274  0.9519
 7441TIP3    H243815   5.790   3.836   0.946  1.4100 -0.3480  0.3481
 7442TIP3   OH243816   6.491   4.628  16.219  0.6628 -0.0303 -0.2308
 7442TIP3    H143817   6.420   4.645  16.158  1.0023  1.2080 -0.3102
 7442TIP3    H243818   6.469   4.544  16.260  0.0594 -0.4990 -1.5080
 7443TIP3   OH243819   3.883   4.588   2.677 -0.4403 -0.3739 -0.5302
 7443TIP3    H143820   3.893   4.661   2.737 -1.8737 -1.9084  1.6467
 7443TIP3    H243821   3.921   4.513   2.724  0.1530 -1.2272 -2.3264
 7444TIP3   OH243822   1.672   6.180   5.067  0.3921 -0.5415 -1.3154
 7444TIP3    H143823   1.579   6.203   5.076  0.1281 -1.4582 -1.6839
 7444TIP3    H243824   1.711   6.204   5.151 -0.2963 -0.6786 -0.9564
 7445TIP3   OH243825   3.939   0.291   2.048 -0.8187 -0.0464 -0.2487
 7445TIP3    H143826   4.026   0.323   2.070 -0.5190 -0.6286 -0.5777
 7445TIP3    H243827   3.888   0.370   2.033 -0.7643  0.3561  1.4853
 7446TIP3   OH243828   5.061   0.882   3.428 -0.2405  0.2849 -0.2178
 7446TIP3    H143829   5.116   0.948   3.386  0.2765 -0.6854 -1.0906
 7446TIP3    H243830   5.096   0.875   3.517 -0.6814  1.6030  0.0740
 7447TIP3   OH243831   4.336   6.378  12.420  0.2411  0.1924  0.2627
 7447TIP3    H143832   4.249   6.345  12.399  0.4253 -0.1797  0.0864
 7447TIP3    H243833   4.391   6.300  12.425  1.0708  0.5957 -1.9778
 7448TIP3   OH243834   4.829   5.292   3.067 -0.2354 -0.5387  0.4700
 7448TIP3    H143835   4.880   5.211   3.061  2.0016  0.8639  0.0892
 7448TIP3    H243836   4.887   5.353   3.112 -1.4990  1.1884 -0.2103
 7449TIP3   OH243837   3.082   2.119   5.659 -0.6227  0.2648  0.2862
 7449TIP3    H143838   3.023   2.163   5.598 -0.7839  1.5291  1.3342
 7449TIP3    H243839   3.161   2.102   5.607 -1.4415 -0.3743 -0.7889
 7450TIP3   OH243840   0.291   3.102   2.391 -0.2533 -0.0705  0.4101
 7450TIP3    H143841   0.286   3.047   2.313 -1.0622 -0.6327  0.8502
 7450TIP3    H243842   0.275   3.042   2.464 -0.7085  0.6713  0.9322
 7451TIP3   OH243843   4.563   3.691   2.408  0.0676 -0.2831  0.4931
 7451TIP3    H143844   4.499   3.730   2.348 -0.5400 -0.8374  0.7589
 7451TIP3    H243845   4.627   3.760   2.425 -0.4633  0.2840  0.2115
 7452TIP3   OH243846   2.815   1.363  16.603 -0.1067 -0.0262  0.0922
 7452TIP3    H143847   2.853   1.278  16.627 -0.2539 -0.6501 -1.7335
 7452TIP3    H243848   2.855   1.383  16.518 -3.5577 -0.5799 -1.7591
 7453TIP3   OH243849   1.938   0.316  12.214  0.4048 -0.1177  0.3734
 7453TIP3    H143850   1.889   0.332  12.133 -2.1247 -1.1268  1.6543
 7453TIP3    H243851   2.010   0.259  12.188 -0.2558 -0.2537 -1.2148
 7454TIP3   OH243852   4.433   6.609   5.817  0.1809  0.2854  0.1212
 7454TIP3    H143853   4.471   6.649   5.895 -0.0117  0.5901  0.0623
 7454TIP3    H243854   4.338   6.615   5.831  0.1348  1.0348 -0.4813
 7455TIP3   OH243855   1.459   0.155   0.024  0.1561 -0.5412 -0.0432
 7455TIP3    H143856   1.517   0.091  -0.017 -0.1598 -0.7530 -0.1571
 7455TIP3    H243857   1.495   0.166   0.112 -0.3494 -1.6008  0.3071
 7456TIP3   OH243858   5.361   4.853  14.764  0.4787 -0.0408 -0.6486
 7456TIP3    H143859   5.403   4.912  14.701  0.1601 -0.1532 -0.9702
 7456TIP3    H243860   5.358   4.769  14.719 -1.4818  0.3164 -1.2532
 7457TIP3   OH243861   5.875   6.045  17.116  0.2957 -0.4154  0.0191
 7457TIP3    H143862   5.816   5.970  17.115 -1.9953  1.3395 -0.0792
 7457TIP3    H243863   5.847   6.097  17.191  1.4966  0.6278 -0.2305
 7458TIP3   OH243864   5.024   5.251   2.835 -0.6117  0.2775  0.1849
 7458TIP3    H143865   4.974   5.186   2.786 -1.3777  1.3705 -0.5166
 7458TIP3    H243866   5.024   5.219   2.925 -1.0461 -0.6518 -0.1415
 7459TIP3   OH243867   6.201   2.240  16.555 -0.2932  0.3415  0.3714
 7459TIP3    H143868   6.236   2.156  16.582  0.3397  0.7476  0.8117
 7459TIP3    H243869   6.274   2.285  16.511 -0.8233  0.3779 -0.4964
 7460TIP3   OH243870   6.512   1.302  13.511 -0.3276  0.1916  0.2140
 7460TIP3    H143871   6.572   1.275  13.442 -0.2846  0.1330  0.2758
 7460TIP3    H243872   6.568   1.328  13.584 -0.4018 -2.2814  1.1938
 7461TIP3   OH243873   5.517   5.333  12.507  0.5442  0.8313 -0.1511
 7461TIP3    H143874   5.475   5.347  12.422 -3.0133 -1.7410  1.0601
 7461TIP3    H243875   5.561   5.248  12.498  0.2861  0.6247  0.5612
 7462TIP3   OH243876   3.947   4.123   1.795  0.7674 -0.7201 -0.2765
 7462TIP3    H143877   3.918   4.078   1.716 -1.5170  0.8166 -0.3654
 7462TIP3    H243878   3.957   4.054   1.860  0.1741 -1.6929 -1.2054
 7463TIP3   OH243879   0.808   3.667   5.230  0.1208  0.2814  0.2390
 7463TIP3    H143880   0.796   3.762   5.232 -0.5534  0.2230 -1.2026
 7463TIP3    H243881   0.811   3.644   5.137  4.1307 -0.6202  0.4734
 7464TIP3   OH243882   1.834   4.901   5.939 -0.1638 -0.1386  0.3085
 7464TIP3    H143883   1.785   4.947   5.871 -2.2188  0.5288  2.1811
 7464TIP3    H243884   1.778   4.906   6.017  1.3289 -2.4271  1.5858
 7465TIP3   OH243885   6.771   4.819  10.816 -0.1866  0.6417  0.1196
 7465TIP3    H143886   6.808   4.904  10.788 -0.9483  0.3426 -1.8721
 7465TIP3    H243887   6.683   4.818  10.778 -0.8451 -0.2981  1.6471
 7466TIP3   OH243888   2.187   4.562   2.553  0.2969  0.6188 -0.1577
 7466TIP3    H143889   2.195   4.468   2.535  0.5224  0.9047 -1.6143
 7466TIP3    H243890   2.278   4.594   2.549  0.0372  1.2393 -1.7266
 7467TIP3   OH243891   4.430   6.663  16.350 -0.0410 -0.8911 -0.2319
 7467TIP3    H143892   4.421   6.688  16.442  2.2291  1.8680 -0.6760
 7467TIP3    H243893   4.516   6.621  16.345  0.3066 -0.0927 -1.2420
 7468TIP3   OH243894   4.558   6.462   5.628  0.0493 -0.9032  0.5047
 7468TIP3    H143895   4.616   6.514   5.572 -1.6828 -0.5741 -1.0248
 7468TIP3    H243896   4.503   6.528   5.672  0.9785 -1.1933  2.1744
 7469TIP3   OH243897   4.242   2.412   2.578  0.3387 -0.6785 -0.3468
 7469TIP3    H143898   4.156   2.455   2.577  0.5505 -0.2496 -0.2449
 7469TIP3    H243899   4.238   2.352   2.652  0.0607 -0.7918 -0.4531
 7470TIP3   OH243900   4.908   5.577  15.517  0.4662  0.4591 -0.3092
 7470TIP3    H143901   4.879   5.664  15.545  0.3476 -0.2001  1.6509
 7470TIP3    H243902   4.828   5.524  15.515  0.5101  0.4328 -1.6855
 7471TIP3   OH243903   2.284   1.220   5.947  0.0776 -0.4016  0.0523
 7471TIP3    H143904   2.231   1.286   5.992  2.6123 -0.5848  3.5449
 7471TIP3    H243905   2.355   1.269   5.906  0.4244 -0.6709  0.3219
 7472TIP3   OH243906   2.202   1.598  15.657  0.0120 -0.2340  0.4979
 7472TIP3    H143907   2.131   1.636  15.606  1.2421 -0.2401 -1.2826
 7472TIP3    H243908   2.160   1.530  15.709 -1.5286  0.7990  0.6385
 7473TIP3   OH243909   3.559   5.099  13.857 -0.0169  0.2557  0.0459
 7473TIP3    H143910   3.611   5.179  13.846 -0.0259 -0.1589 -3.5285
 7473TIP3    H243911   3.623   5.028  13.857 -0.2606  0.0267 -0.4846
 7474TIP3   OH243912   5.107   5.806   3.975  0.7380 -0.3920  0.4155
 7474TIP3    H143913   5.167   5.746   3.931  0.3077 -0.9385  0.5761
 7474TIP3    H243914   5.135   5.893   3.946  0.1149 -0.7698 -1.3741
 7475TIP3   OH243915   3.424   6.708  13.462 -0.0559  0.0445  0.9126
 7475TIP3    H143916   3.343   6.742  13.501 -1.1108  0.2287 -1.3651
 7475TIP3    H243917   3.446   6.771  13.393 -1.8956 -3.5202 -3.2167
 7476TIP3   OH243918   1.939   2.087  13.569 -0.4261  0.4128  0.0570
 7476TIP3    H143919   1.998   2.153  13.532 -1.4819  1.2591 -0.1332
 7476TIP3    H243920   1.925   2.114  13.659  0.2351 -0.3240  0.3882
 7477TIP3   OH243921   1.732   4.684   1.807  0.1040 -0.0937  0.4205
 7477TIP3    H143922   1.656   4.706   1.752  0.0076 -0.4873  0.3926
 7477TIP3    H243923   1.698   4.685   1.896  0.0784 -0.2021  0.4128
 7478TIP3   OH243924   3.599   4.607  15.614  0.1699 -0.4269 -0.6092
 7478TIP3    H143925   3.550   4.585  15.535  0.0586 -0.7818 -0.4390
 7478TIP3    H243926   3.691   4.595  15.589  0.1316 -0.6104 -0.6608
 7479TIP3   OH243927   5.144   5.713   0.529  0.2962  0.5231 -0.3517
 7479TIP3    H143928   5.083   5.691   0.459 -0.9724  2.0438  0.2497
 7479TIP3    H243929   5.161   5.630   0.572 -0.9567 -0.0053 -0.8450
 7480TIP3   OH243930   1.496   5.542  12.408  0.2527  0.4897  0.9924
 7480TIP3    H143931   1.519   5.508  12.321  1.6038  1.7772  0.8132
 7480TIP3    H243932   1.484   5.464  12.462 -1.1894 -0.3545 -0.4753
 7481TIP3   OH243933   2.540   5.532  17.267  0.1259  0.5407  0.0344
 7481TIP3    H143934   2.547   5.499  17.178 -0.6275  1.7813 -0.4954
 7481TIP3    H243935   2.518   5.455  17.319  0.8382 -0.2405 -0.7997
 7482TIP3   OH243936   0.424   3.362  12.941  0.1902  0.2805  0.5330
 7482TIP3    H143937   0.477   3.306  12.999  1.2353  1.0501  0.3460
 7482TIP3    H243938   0.487   3.397  12.878 -0.7214  0.4521 -0.2973
 7483TIP3   OH243939   2.645   0.681   2.395 -0.3291 -0.1746 -0.6783
 7483TIP3    H143940   2.675   0.592   2.408  0.4780  0.1944  0.0240
 7483TIP3    H243941   2.725   0.734   2.392 -0.7821  0.4959 -1.3580
 7484TIP3   OH243942   1.644   5.020   6.982  0.2158 -0.0230  0.1869
 7484TIP3    H143943   1.563   4.993   6.940 -0.6672  1.1955  1.0940
 7484TIP3    H243944   1.661   5.108   6.949  1.2439 -0.3155 -0.0995
 7485TIP3   OH243945   6.455   1.499  16.212  0.3574 -0.2282  0.2160
 7485TIP3    H143946   6.422   1.413  16.239  0.0220 -0.5261 -1.1514
 7485TIP3    H243947   6.522   1.520  16.278  0.0814 -1.3000  0.8484
 7486TIP3   OH243948   4.400   4.454   0.874 -0.1461  0.5675 -0.2156
 7486TIP3    H143949   4.333   4.411   0.928  1.4937 -2.0173 -0.1313
 7486TIP3    H243950   4.403   4.401   0.795  0.1524  2.0985 -1.2464
 7487TIP3   OH243951   6.426   6.403  12.248  0.2955 -0.3118 -0.4433
 7487TIP3    H143952   6.487   6.338  12.283 -2.1456 -1.4882  1.7688
 7487TIP3    H243953   6.457   6.486  12.284  1.0704 -0.7787 -0.0140
 7488TIP3   OH243954   2.771   5.043  12.971  0.1431  0.5480  0.5711
 7488TIP3    H143955   2.831   4.980  12.930  1.1555  0.9954  1.3369
 7488TIP3    H243956   2.688   4.996  12.980  0.4041 -0.1028 -0.4420
 7489TIP3   OH243957   6.139   3.313  12.609  0.6215 -0.2826 -0.1659
 7489TIP3    H143958   6.064   3.316  12.550  1.0635  0.0457 -0.7101
 7489TIP3    H243959   6.118   3.376  12.678  0.0833 -0.7054  0.0567
 7490TIP3   OH243960   3.165   0.993  15.285 -0.4867  0.2979 -0.2816
 7490TIP3    H143961   3.244   0.962  15.329 -0.5315 -0.5741 -0.8116
 7490TIP3    H243962   3.189   1.078  15.249  0.1194  0.1652 -0.1894
 7491TIP3   OH243963   5.855   4.148   4.186 -0.1368 -0.1672 -0.2804
 7491TIP3    H143964   5.843   4.068   4.238  1.2987 -0.9292 -1.0789
 7491TIP3    H243965   5.801   4.214   4.230  1.9961 -0.4495  2.9235
 7492TIP3   OH243966   5.203   4.110  13.279  0.0095  0.6642 -0.2549
 7492TIP3    H143967   5.231   4.169  13.349 -1.4739  1.4326 -0.2792
 7492TIP3    H243968   5.152   4.042  13.323  1.2411 -0.2878 -0.2932
 7493TIP3   OH243969   3.611   4.089   0.642  0.2308 -0.3038 -0.3886
 7493TIP3    H143970   3.689   4.039   0.667 -0.5139 -0.7328  1.1092
 7493TIP3    H243971   3.550   4.023   0.610 -0.2573 -0.2017  0.3295
 7494TIP3   OH243972   1.521   2.734  12.192 -0.0990 -0.3882  0.0353
 7494TIP3    H143973   1.517   2.697  12.280 -4.6822  0.8854  0.4494
 7494TIP3    H243974   1.573   2.814  12.203  1.1171 -1.2951  1.1279
 7495TIP3   OH243975   1.876   6.696   5.817 -0.4954  0.2754 -0.9691
 7495TIP3    H143976   1.798   6.656   5.855 -0.0468 -0.0448 -0.3685
 7495TIP3    H243977   1.946   6.633   5.835  0.3437  1.5912  0.5379
 7496TIP3   OH243978   1.902   0.848  14.279 -0.4778  0.0177  0.1949
 7496TIP3    H143979   1.920   0.754  14.278  0.7542  0.2511  0.4574
 7496TIP3    H243980   1.974   0.887  14.230 -1.7084  0.7122 -1.1086
 7497TIP3   OH243981   1.106   2.813   3.183  0.1560 -0.7774  0.2857
 7497TIP3    H143982   1.116   2.765   3.101 -0.6593 -1.3389  0.5115
 7497TIP3    H243983   1.092   2.904   3.155  1.2871 -0.7335 -0.1509
 7498TIP3   OH243984   5.998   6.798   3.807  0.2245  0.0264 -0.2880
 7498TIP3    H143985   5.974   6.706   3.807 -2.9364  0.7709  1.4216
 7498TIP3    H243986   5.985   6.827   3.716 -2.1951 -0.4236 -0.1085
 7499TIP3   OH243987   3.940   0.706   1.690  0.8468 -0.3926 -0.2660
 7499TIP3    H143988   3.995   0.629   1.674 -0.4469 -1.8818  2.1499
 7499TIP3    H243989   3.934   0.713   1.785 -0.0017  2.0394 -0.4595
 7500TIP3   OH243990   4.420   1.168  12.296 -0.2666 -0.1405 -0.1934
 7500TIP3    H143991   4.369   1.152  12.217  0.4912  1.4930 -1.0412
 7500TIP3    H243992   4.406   1.261  12.315  0.3533 -0.2849  1.0164
 7501TIP3   OH243993   6.650   3.351   5.709 -0.0791 -0.6250  0.5543
 7501TIP3    H143994   6.603   3.270   5.731 -0.1852 -1.5554 -2.8562
 7501TIP3    H243995   6.737   3.321   5.682 -0.3383  0.3040 -1.3981
 7502TIP3   OH243996   3.154   5.200  12.691  0.1443 -0.2027  0.4161
 7502TIP3    H143997   3.166   5.295  12.696  0.1876 -0.2317  0.9178
 7502TIP3    H243998   3.060   5.188  12.679  0.2235 -0.0746 -0.3584
 7503TIP3   OH243999   3.785   2.935  15.824 -0.8100  0.2563 -0.5712
 7503TIP3    H144000   3.880   2.947  15.830 -0.9701  1.7093 -0.8489
 7503TIP3    H244001   3.768   2.859  15.880  0.2815  1.1778  1.0586
 7504TIP3   OH244002   4.586   1.267  15.418 -0.0712 -0.3137  0.2788
 7504TIP3    H144003   4.592   1.227  15.331 -0.3176 -1.1516  0.6389
 7504TIP3    H244004   4.594   1.361  15.401  1.9401 -0.5788 -0.4504
 7505TIP3   OH244005   3.504   5.245   4.203 -0.5902 -0.2691  0.3638
 7505TIP3    H144006   3.410   5.227   4.201 -0.7938  0.8624 -0.3783
 7505TIP3    H244007   3.512   5.339   4.185  0.6456 -0.2121  1.0837
 7506TIP3   OH244008   1.116   6.129   0.523 -0.0024 -0.3049 -0.2895
 7506TIP3    H144009   1.204   6.163   0.540  0.4111 -0.8315 -1.3915
 7506TIP3    H244010   1.126   6.034   0.523 -1.0916 -0.4545  2.3652
 7507TIP3   OH244011   6.758   4.771  15.442 -0.3097  0.3611  0.3038
 7507TIP3    H144012   6.824   4.830  15.477 -0.6896  0.4423  0.8833
 7507TIP3    H244013   6.792   4.683  15.462 -0.6010  0.4073  1.0304
 7508TIP3   OH244014   2.046   0.512   2.043 -0.0622  0.2064 -0.3645
 7508TIP3    H144015   2.023   0.578   1.978 -1.0750 -0.0911 -0.3160
 7508TIP3    H244016   1.963   0.468   2.064  0.0282  1.0397  1.9364
 7509TIP3   OH244017   4.855   5.471  11.454 -0.5764  0.3378  0.0096
 7509TIP3    H144018   4.894   5.459  11.541 -0.3461  1.7742  0.1153
 7509TIP3    H244019   4.809   5.554  11.460  0.6685  1.1734 -1.6879
 7510TIP3   OH244020   2.431   6.749   4.047 -0.7439  0.1947 -0.2533
 7510TIP3    H144021   2.439   6.799   4.128 -0.4507  1.1608 -0.8743
 7510TIP3    H244022   2.345   6.774   4.012 -0.4778  0.4844 -0.7057
 7511TIP3   OH244023   3.945   1.425  15.815  0.3679  0.0353 -0.3485
 7511TIP3    H144024   4.039   1.445  15.817  0.5377 -0.6009 -1.3520
 7511TIP3    H244025   3.910   1.483  15.748 -0.0797  0.7420  0.4908
 7512TIP3   OH244026   5.029   3.881  16.321  0.0663  0.0951 -0.2489
 7512TIP3    H144027   5.007   3.930  16.401  0.1456  1.6022 -1.1202
 7512TIP3    H244028   5.061   3.797  16.352  0.9006  0.9703  1.3563
 7513TIP3   OH244029   6.686   1.555   3.391  0.0936 -0.4351  0.1864
 7513TIP3    H144030   6.614   1.495   3.412 -0.2905  0.0714  0.3074
 7513TIP3    H244031   6.644   1.639   3.376  0.7806  0.1414  1.4594
 7514TIP3   OH244032   1.313   0.346   4.261 -0.0395 -0.2726  0.9184
 7514TIP3    H144033   1.309   0.383   4.173 -0.3816 -0.9630  0.6452
 7514TIP3    H244034   1.222   0.337   4.288  0.0721  1.9236  2.1862
 7515TIP3   OH244035   4.154   2.150  10.342 -0.1829  0.3985  0.9316
 7515TIP3    H144036   4.097   2.073  10.346  0.9513 -0.3983  1.9017
 7515TIP3    H244037   4.209   2.136  10.265 -1.0963  1.0399  0.1501
 7516TIP3   OH244038   2.016   1.849   2.377  0.1813 -0.4680  0.1716
 7516TIP3    H144039   2.111   1.846   2.363 -0.1175 -1.7531 -1.6978
 7516TIP3    H244040   1.994   1.942   2.372  1.3541 -0.1575  0.7261
 7517TIP3   OH244041   6.591   0.856   3.314 -0.4605 -0.2332 -0.0654
 7517TIP3    H144042   6.502   0.890   3.325 -0.0635  0.5418  0.8800
 7517TIP3    H244043   6.581   0.761   3.314 -1.2816 -0.1537  0.1080
 7518TIP3   OH244044   1.678   0.636  14.109 -0.3408  0.3719 -0.7240
 7518TIP3    H144045   1.598   0.624  14.059 -0.5949 -2.3373  0.2801
 7518TIP3    H244046   1.649   0.673  14.193 -0.5153 -0.3569 -0.4615
 7519TIP3   OH244047   3.878   3.423   1.231  0.4642  0.3778 -0.4475
 7519TIP3    H144048   3.783   3.423   1.220  0.5151  1.3323 -0.9197
 7519TIP3    H244049   3.906   3.338   1.195 -0.2321 -0.0057 -0.0809
 7520TIP3   OH244050   5.502   6.600   1.749  0.2323  0.1763 -0.0448
 7520TIP3    H144051   5.577   6.652   1.776  0.0154  0.5142 -0.0942
 7520TIP3    H244052   5.485   6.627   1.659  1.2916 -1.3432 -0.7322
 7521TIP3   OH244053   2.691   6.444  11.838 -0.3290  0.6880 -0.1747
 7521TIP3    H144054   2.681   6.495  11.919  1.1608  0.7754 -0.0395
 7521TIP3    H244055   2.645   6.362  11.855  3.8688 -1.2647  2.5322
 7522TIP3   OH244056   0.203   0.390   2.996 -0.5141 -0.3600 -0.3027
 7522TIP3    H144057   0.231   0.465   3.047 -1.5255 -0.6337  0.6979
 7522TIP3    H244058   0.140   0.425   2.933 -0.8286 -0.3195  0.0278
 7523TIP3   OH244059   1.725   2.585  11.512 -0.4338  0.5011 -0.2645
 7523TIP3    H144060   1.704   2.654  11.449  0.3555 -0.6955 -1.8650
 7523TIP3    H244061   1.652   2.523  11.504 -0.1122  0.1285 -0.3293
 7524TIP3   OH244062   2.325   6.562  11.123 -0.7254  0.1196 -0.0568
 7524TIP3    H144063   2.377   6.482  11.114  0.9539  1.2272 -0.4436
 7524TIP3    H244064   2.304   6.587  11.033 -0.2934  0.7280  0.0116
 7525TIP3   OH244065   1.053   1.179   3.023 -0.1246 -0.4399 -0.2209
 7525TIP3    H144066   1.069   1.085   3.015  1.0009 -0.1569 -1.4606
 7525TIP3    H244067   1.079   1.216   2.939  1.6050  1.2488  0.9733
 7526TIP3   OH244068   0.471   4.357  15.869  0.2404  0.6582 -0.7641
 7526TIP3    H144069   0.432   4.415  15.934  0.6974  0.5134 -0.3589
 7526TIP3    H244070   0.564   4.381  15.868  0.5873 -0.5771 -0.0319
 7527TIP3   OH244071   4.586   6.004   4.715  0.0977  0.1359  0.5755
 7527TIP3    H144072   4.495   6.011   4.684  0.8917  0.0246 -1.9148
 7527TIP3    H244073   4.603   6.088   4.756 -0.9277  0.4145  0.4662
 7528TIP3   OH244074   3.824   5.241   4.857  0.0055  0.3808  0.6398
 7528TIP3    H144075   3.783   5.279   4.935  2.1125 -0.6220  2.2880
 7528TIP3    H244076   3.895   5.302   4.834  0.7928 -0.4435  0.8501
 7529TIP3   OH244077   3.106   3.270  10.690  0.5506 -0.1265 -0.1125
 7529TIP3    H144078   3.042   3.199  10.689 -0.0571  0.4336 -1.2453
 7529TIP3    H244079   3.053   3.350  10.695  1.1515  0.3333 -0.9431
 7530TIP3   OH244080   0.625   5.284   6.719 -0.4216  0.3174  0.1948
 7530TIP3    H144081   0.652   5.260   6.808  0.7789  1.9508  0.3028
 7530TIP3    H244082   0.684   5.235   6.662 -1.8913 -1.5637  0.2469
 7531TIP3   OH244083   1.216   3.398  10.853 -1.1061 -0.1467  0.9143
 7531TIP3    H144084   1.132   3.417  10.811 -0.8048 -0.7600  0.0118
 7531TIP3    H244085   1.214   3.304  10.870 -0.3086 -0.3099  0.1843
 7532TIP3   OH244086   4.541   3.823  12.836  0.6226  0.0353  0.1956
 7532TIP3    H144087   4.490   3.749  12.806  1.9248 -0.8504  0.1083
 7532TIP3    H244088   4.529   3.890  12.769  1.5262 -1.0372 -1.0563
 7533TIP3   OH244089   6.204   2.672  14.449 -0.5636 -0.0177  0.2664
 7533TIP3    H144090   6.162   2.635  14.372  1.4967  0.9041 -1.3565
 7533TIP3    H244091   6.296   2.682  14.424  0.0700  0.7205  2.6887
 7534TIP3   OH244092   3.707   4.593   3.126  0.3072 -0.1240  0.5819
 7534TIP3    H144093   3.689   4.500   3.137 -0.0657  0.0012  1.0678
 7534TIP3    H244094   3.786   4.608   3.179  0.7795 -0.3037 -0.0680
 7535TIP3   OH244095   5.153   6.609  14.057 -0.3117 -0.3163 -0.0688
 7535TIP3    H144096   5.194   6.531  14.094  0.3390 -0.0975 -0.3198
 7535TIP3    H244097   5.226   6.667  14.037 -0.7866  0.3225  0.0348
 7536TIP3   OH244098   2.992   3.950   0.979  0.3901  0.2004  0.0297
 7536TIP3    H144099   2.925   3.889   1.012  0.3990 -0.6883 -1.5678
 7536TIP3    H244100   3.045   3.970   1.056 -0.8216 -0.2328  1.0078
 7537TIP3   OH244101   2.891   2.017  15.658 -0.2644  0.2928 -0.0040
 7537TIP3    H144102   2.846   2.078  15.717  0.8452  1.6684 -0.5644
 7537TIP3    H244103   2.979   2.052  15.650  0.3309 -1.2914 -0.5001
 7538TIP3   OH244104   4.458   2.183  11.114  1.2434 -0.7307  0.1071
 7538TIP3    H144105   4.370   2.193  11.151  1.9159  0.8684  1.3226
 7538TIP3    H244106   4.455   2.100  11.067 -0.8661 -0.7780  0.2904
 7539TIP3   OH244107   4.793   2.305  11.560 -0.2977  0.5126  0.3556
 7539TIP3    H144108   4.754   2.302  11.473 -1.2638 -1.8930  0.8268
 7539TIP3    H244109   4.836   2.390  11.564 -1.6079  1.3246 -1.8721
 7540TIP3   OH244110   0.086   4.427   0.196  0.0524  0.2729  0.0050
 7540TIP3    H144111   0.116   4.431   0.287  1.4778  1.7068 -0.4986
 7540TIP3    H244112   0.020   4.358   0.195 -0.9416  1.1425  2.4157
 7541TIP3   OH244113   5.157   1.261  15.240 -0.2248 -0.1414 -0.2969
 7541TIP3    H144114   5.108   1.342  15.226 -1.3723 -1.0513 -1.7251
 7541TIP3    H244115   5.101   1.209  15.297  0.6302  0.1720  0.8343
 7542TIP3   OH244116   1.460   2.242   1.042  0.5702  0.5038 -0.2561
 7542TIP3    H144117   1.446   2.335   1.030 -1.5286  0.3341  0.6208
 7542TIP3    H244118   1.487   2.210   0.956 -0.5086  1.6164 -1.0154
 7543TIP3   OH244119   3.688   2.543   1.896  0.4085 -0.1968 -0.3022
 7543TIP3    H144120   3.780   2.566   1.914  0.6014  0.4583 -2.0160
 7543TIP3    H244121   3.656   2.615   1.841 -1.2154 -0.3118  0.4720
 7544TIP3   OH244122   3.158   5.780   2.184  0.4595  0.1228 -0.2753
 7544TIP3    H144123   3.129   5.867   2.156  0.5228 -0.1555 -1.2234
 7544TIP3    H244124   3.221   5.753   2.118 -0.9833 -1.4400 -1.0617
 7545TIP3   OH244125   4.203   1.206   0.522 -0.0202 -0.7068 -0.2271
 7545TIP3    H144126   4.142   1.257   0.575  2.1082  0.6248  1.0654
 7545TIP3    H244127   4.195   1.116   0.555 -0.1610 -0.2521  1.0198
 7546TIP3   OH244128   2.019   6.110  14.777 -0.1773  0.0638 -0.4098
 7546TIP3    H144129   1.966   6.185  14.805  2.0488  1.9529 -1.1416
 7546TIP3    H244130   2.021   6.117  14.682  0.8632 -0.3521 -0.4213
 7547TIP3   OH244131   0.991   1.612  12.156 -0.0420  0.0256 -0.8054
 7547TIP3    H144132   1.063   1.591  12.216 -1.2695  0.4059  0.8051
 7547TIP3    H244133   0.952   1.528  12.135 -2.0605  0.2159  2.0259
 7548TIP3   OH244134   5.510   6.334  15.319  0.4945  0.3615 -0.9275
 7548TIP3    H144135   5.478   6.349  15.407  0.1300 -1.5654 -0.7040
 7548TIP3    H244136   5.457   6.261  15.286  2.3497 -0.6452 -1.7818
 7549TIP3   OH244137   5.103   2.108   3.225 -0.0444  0.3735  0.1700
 7549TIP3    H144138   5.036   2.143   3.165  1.1366  2.8542  0.2219
 7549TIP3    H244139   5.099   2.166   3.301  1.3446 -0.1875  0.6751
 7550TIP3   OH244140   2.859   1.153  15.862 -0.0926 -0.0754  1.0885
 7550TIP3    H144141   2.788   1.102  15.823  2.1607 -1.7712 -0.9197
 7550TIP3    H244142   2.888   1.101  15.937 -0.8705  0.5824  1.8642
 7551TIP3   OH244143   5.123   3.766   5.691 -0.1279  0.3996  0.2382
 7551TIP3    H144144   5.084   3.834   5.636  1.3908  1.7970  0.8569
 7551TIP3    H244145   5.088   3.783   5.778 -2.0142 -1.4144 -0.1093
 7552TIP3   OH244146   3.681   6.320  14.500 -0.0941  0.2914  0.4085
 7552TIP3    H144147   3.768   6.344  14.530  0.1288 -1.3717  1.1022
 7552TIP3    H244148   3.621   6.370  14.556  0.3756 -0.3392  1.4794
 7553TIP3   OH244149   0.046   2.861  15.363 -0.3541  0.0235  0.3280
 7553TIP3    H144150   0.119   2.882  15.421 -2.2285  1.5522  2.1833
 7553TIP3    H244151   0.027   2.769  15.381  0.7996 -0.2619  0.1490
 7554TIP3   OH244152   5.776   5.069  14.163  0.5913 -0.8133 -0.0741
 7554TIP3    H144153   5.812   5.109  14.242  1.3168 -2.6024  0.5145
 7554TIP3    H244154   5.699   5.123  14.143  1.0743  0.3729  1.1548
 7555TIP3   OH244155   1.930   0.420   1.572 -0.7563 -0.2890 -0.0907
 7555TIP3    H144156   1.917   0.492   1.634  0.4990 -1.0925  1.1244
 7555TIP3    H244157   1.914   0.341   1.624 -2.9839 -0.9030 -1.6218
 7556TIP3   OH244158   2.464   6.574  15.010  0.1957  0.0039 -0.3098
 7556TIP3    H144159   2.375   6.593  14.982  1.3190  1.0047 -3.3534
 7556TIP3    H244160   2.457   6.491  15.057 -2.7444  1.4336  1.9571
 7557TIP3   OH244161   3.331   5.704  15.851 -0.1153 -0.3143  0.1547
 7557TIP3    H144162   3.330   5.618  15.893 -2.4621 -1.0746 -1.4048
 7557TIP3    H244163   3.332   5.686  15.757 -1.1912  1.3555 -0.2059
 7558TIP3   OH244164   5.977   4.100  16.012  0.0586 -0.6352 -0.2893
 7558TIP3    H144165   6.013   4.122  16.098  0.6843 -0.2587 -0.6422
 7558TIP3    H244166   5.917   4.028  16.028  0.6892 -1.0153  0.3620
 7559TIP3   OH244167   6.275   5.920   5.580  0.7606 -0.0337  0.0641
 7559TIP3    H144168   6.324   5.913   5.662 -1.6020 -1.3267  1.4107
 7559TIP3    H244169   6.198   5.972   5.602  0.9166  0.9906 -1.7393
 7560TIP3   OH244170   0.321   2.072  12.384 -0.1619 -0.1844  0.2042
 7560TIP3    H144171   0.296   1.997  12.438  2.4173  0.2015  2.0242
 7560TIP3    H244172   0.342   2.034  12.299  0.5565 -1.4738  0.9365
 7561TIP3   OH244173   3.757   3.564  11.614 -0.7713 -0.1439 -0.0521
 7561TIP3    H144174   3.669   3.534  11.634  0.5292 -2.3106  2.8528
 7561TIP3    H244175   3.765   3.648  11.660 -0.7152 -0.8676  1.2757
 7562TIP3   OH244176   6.502   4.785  10.758  0.6115  0.6103  0.5412
 7562TIP3    H144177   6.411   4.809  10.739  0.8738  0.0454 -1.5545
 7562TIP3    H244178   6.507   4.692  10.737  2.1660  1.0802 -1.2848
 7563TIP3   OH244179   4.696   6.040   2.706  0.1296 -0.1979  0.7739
 7563TIP3    H144180   4.741   6.070   2.785  0.4176  2.4667 -0.3711
 7563TIP3    H244181   4.604   6.033   2.732  0.5516 -1.5860  1.9613
 7564TIP3   OH244182   0.345   1.562  11.519 -0.1269  0.3247  0.0171
 7564TIP3    H144183   0.287   1.592  11.449  0.4256  0.1125 -0.5335
 7564TIP3    H244184   0.321   1.469  11.530  1.9607 -0.5292 -2.1062
 7565TIP3   OH244185   1.950   0.228  16.576 -0.6381 -0.0536  0.2726
 7565TIP3    H144186   1.885   0.157  16.579 -1.9128  1.1166  1.2482
 7565TIP3    H244187   1.943   0.263  16.487 -0.4431 -0.7450 -0.0192
 7566TIP3   OH244188   0.886   1.977   3.340  0.0063 -0.4332 -0.2020
 7566TIP3    H144189   0.932   1.988   3.423  1.7385  0.3614 -1.2132
 7566TIP3    H244190   0.904   1.887   3.315 -0.8856 -0.8056  0.4946
 7567TIP3   OH244191   6.329   1.411  13.733 -0.1352 -0.1654 -0.4900
 7567TIP3    H144192   6.287   1.496  13.716  0.3580  0.0804 -0.4905
 7567TIP3    H244193   6.418   1.422  13.701  0.4551 -0.1141  1.1322
 7568TIP3   OH244194   3.062   4.189  11.293  0.6426 -0.4725 -0.2851
 7568TIP3    H144195   3.006   4.196  11.216  0.7881 -0.7315 -0.4171
 7568TIP3    H244196   3.001   4.176  11.366  0.4854  0.1903 -0.3013
 7569TIP3   OH244197   3.204   6.508  14.166  0.2901 -0.3603 -0.5503
 7569TIP3    H144198   3.156   6.591  14.171  2.7832  1.1914 -1.5789
 7569TIP3    H244199   3.273   6.514  14.232 -1.1692 -2.8100  1.3075
 7570TIP3   OH244200   4.589   5.122   3.102 -0.0373  0.0030 -0.6893
 7570TIP3    H144201   4.678   5.151   3.082  0.0748  0.4881  0.4872
 7570TIP3    H244202   4.596   5.078   3.186 -1.2721  1.9710  0.4939
 7571TIP3   OH244203   6.811   0.198  14.101  0.2045 -0.3113 -0.1879
 7571TIP3    H144204   6.742   0.145  14.060  0.9331 -0.6403 -1.0169
 7571TIP3    H244205   6.864   0.228  14.027 -0.8129  2.4774  0.1932
 7572TIP3   OH244206   4.012   2.307  12.174 -0.0476 -0.0877 -0.3983
 7572TIP3    H144207   4.091   2.266  12.212 -0.7007 -0.4865  0.5554
 7572TIP3    H244208   4.045   2.357  12.100  1.5481  2.2323  1.7743
 7573TIP3   OH244209   3.620   4.477  13.892 -0.6126 -0.1301  0.0083
 7573TIP3    H144210   3.693   4.455  13.835  0.0615  0.0866  0.7787
 7573TIP3    H244211   3.571   4.543  13.844 -1.1251 -1.3288 -1.1430
 7574TIP3   OH244212   1.893   2.947  12.352 -0.3685  0.1357 -0.3055
 7574TIP3    H144213   1.873   2.912  12.265 -1.1005  1.2220 -0.5845
 7574TIP3    H244214   1.807   2.967  12.389 -0.1389 -1.4569  1.1575
 7575TIP3   OH244215   5.096   2.052   1.515 -0.5782 -0.0353  0.2000
 7575TIP3    H144216   5.062   2.064   1.426 -2.6500 -0.6986  0.8885
 7575TIP3    H244217   5.074   2.133   1.560 -1.8712 -0.7169  0.8273
 7576TIP3   OH244218   2.862   2.568   1.716  0.1402  1.0533 -0.0191
 7576TIP3    H144219   2.794   2.533   1.658  1.9062 -0.0330 -1.4983
 7576TIP3    H244220   2.866   2.506   1.788 -1.9660  2.3276  1.2380
 7577TIP3   OH244221   5.930   0.010   0.959  0.5639  0.8223  0.5321
 7577TIP3    H144222   5.949  -0.033   1.043  0.0502  0.4235  0.4458
 7577TIP3    H244223   5.835   0.008   0.951  0.6885 -0.9262 -0.9644
 7578TIP3   OH244224   0.820   5.375  13.721  0.3378 -0.0625 -0.8857
 7578TIP3    H144225   0.886   5.308  13.740 -0.8629 -1.2141 -0.6673
 7578TIP3    H244226   0.860   5.457  13.747  1.2963 -0.8607  0.1978
 7579TIP3   OH244227   0.544   0.767   4.747  0.5847  0.3524  0.8128
 7579TIP3    H144228   0.616   0.709   4.771  0.4723  0.0141  0.3554
 7579TIP3    H244229   0.485   0.711   4.696  1.1539  1.1891 -0.8235
 7580TIP3   OH244230   6.701   2.359   0.112  0.4095  0.6034  0.8930
 7580TIP3    H144231   6.630   2.402   0.064  1.9094  0.1552 -1.8629
 7580TIP3    H244232   6.765   2.429   0.127 -0.1036  0.7710  2.4342
 7581TIP3   OH244233   2.080   4.637   4.686 -0.3196  0.2854 -0.6376
 7581TIP3    H144234   2.132   4.714   4.661 -1.2204  1.7011  1.6908
 7581TIP3    H244235   2.107   4.618   4.776 -2.3658 -0.2013 -0.1051
 7582TIP3   OH244236   4.280   3.967   5.283  0.3835  0.3549  0.0614
 7582TIP3    H144237   4.308   3.907   5.353  0.5275 -1.5425 -1.5941
 7582TIP3    H244238   4.264   3.911   5.208 -0.1369  2.3385 -1.3488
 7583TIP3   OH244239   1.984   1.601   5.878 -0.1627  0.8979 -0.0629
 7583TIP3    H144240   1.894   1.574   5.864 -0.4333  2.6292 -1.7316
 7583TIP3    H244241   1.989   1.690   5.844  2.5619  0.2606 -1.5163
 7584TIP3   OH244242   1.943   4.007  11.691  0.2302  0.3611  0.0200
 7584TIP3    H144243   1.861   3.970  11.724  0.4605 -0.4920 -0.3407
 7584TIP3    H244244   1.997   3.930  11.671  0.8146  0.9056 -0.5020
 7585TIP3   OH244245   5.526   2.616  14.018 -0.0752  0.0600  0.5817
 7585TIP3    H144246   5.489   2.662  13.943  1.2364  0.1476 -0.0226
 7585TIP3    H244247   5.605   2.665  14.040  0.9720 -1.4919  0.3527
 7586TIP3   OH244248   2.358   0.924  12.735 -0.2294 -0.3871  0.0787
 7586TIP3    H144249   2.264   0.932  12.750 -0.3728  0.8062 -1.4477
 7586TIP3    H244250   2.381   0.841  12.776 -1.8230 -0.3749  1.0477
 7587TIP3   OH244251   3.285   6.032  13.678  0.8157 -0.1410 -0.2441
 7587TIP3    H144252   3.291   5.994  13.591  0.7741 -1.5488  0.3648
 7587TIP3    H244253   3.257   5.960  13.734  1.7139  0.5192  1.0882
 7588TIP3   OH244254   2.862   6.595  12.400  0.2395  0.6056  0.6004
 7588TIP3    H144255   2.780   6.633  12.432  0.2662  0.6238  0.6478
 7588TIP3    H244256   2.844   6.501  12.392  0.4257  0.5071  1.2843
 7589TIP3   OH244257   3.444   2.598   8.801 -0.0896  0.1401  0.5838
 7589TIP3    H144258   3.377   2.543   8.761  1.2710 -1.5537  0.6149
 7589TIP3    H244259   3.487   2.642   8.728 -0.0875 -0.0900  0.4481
 7590TIP3   OH244260   1.063   2.121  13.317 -0.6578  0.5521  0.2145
 7590TIP3    H144261   0.989   2.065  13.295  1.0694 -0.6379 -2.8636
 7590TIP3    H244262   1.064   2.187  13.247  0.1927  1.5496  1.1540
 7591TIP3   OH244263   5.198   2.212   0.605  0.0875 -0.5110 -0.3236
 7591TIP3    H144264   5.171   2.120   0.611  0.2881 -0.5555 -0.0988
 7591TIP3    H244265   5.218   2.225   0.512 -0.2462 -0.6081 -0.4092
 7592TIP3   OH244266   1.383   4.441   4.890  0.1434  0.1077 -0.1748
 7592TIP3    H144267   1.434   4.363   4.912 -1.3103 -0.6116  0.7228
 7592TIP3    H244268   1.448   4.506   4.864  1.5941 -0.4878  1.8743
 7593TIP3   OH244269   2.955   1.432  10.971 -0.0207 -0.6585 -0.3569
 7593TIP3    H144270   2.920   1.510  11.013  1.9956 -0.4218  0.9608
 7593TIP3    H244271   2.969   1.457  10.880  0.3026  0.4110 -0.0128
 7594TIP3   OH244272   2.719   3.801  11.050  0.6438 -0.3500 -0.6483
 7594TIP3    H144273   2.628   3.827  11.064 -0.4119 -3.7974 -0.6292
 7594TIP3    H244274   2.731   3.724  11.106  2.4893 -2.1066 -3.3517
 7595TIP3   OH244275   2.873   5.553   2.148 -0.5382  0.0805  0.2457
 7595TIP3    H144276   2.841   5.463   2.159  1.2568 -0.6869 -0.5800
 7595TIP3    H244277   2.944   5.560   2.212 -0.0150  0.5697 -0.3887
 7596TIP3   OH244278   5.744   4.895  12.574  0.0605  0.0734  0.1834
 7596TIP3    H144279   5.829   4.852  12.580  1.0529  1.6708 -2.0288
 7596TIP3    H244280   5.756   4.978  12.621 -0.4733  0.0108  0.4348
 7597TIP3   OH244281   1.351   2.254   1.643  0.2223  0.4005 -0.6558
 7597TIP3    H144282   1.302   2.201   1.580  0.6414  0.0144 -0.6587
 7597TIP3    H244283   1.286   2.281   1.707  0.2316 -1.2003  0.0652
 7598TIP3   OH244284   5.693   4.644   2.221 -0.2193  0.1199  0.6132
 7598TIP3    H144285   5.658   4.675   2.304  0.4914  0.2299  0.8715
 7598TIP3    H244286   5.667   4.552   2.216  2.5569 -0.8368  2.5108
 7599TIP3   OH244287   2.687   6.535   5.750  0.4276 -0.0851  0.2598
 7599TIP3    H144288   2.728   6.567   5.670 -1.6658 -0.0148 -0.8265
 7599TIP3    H244289   2.635   6.609   5.782 -0.6643 -0.8745  0.3516
 7600TIP3   OH244290   2.879   5.029   2.919  0.5739 -0.2663 -0.2476
 7600TIP3    H144291   2.947   5.092   2.893  1.2294 -1.0032 -0.3256
 7600TIP3    H244292   2.899   5.009   3.010  0.2290 -0.1998 -0.1555
 7601TIP3   OH244293   2.996   1.970   5.257  0.0232  0.0779 -0.1148
 7601TIP3    H144294   3.057   2.025   5.306  1.2716 -0.3704 -1.1474
 7601TIP3    H244295   2.975   2.021   5.178 -1.5724  0.5735  0.6039
 7602TIP3   OH244296   3.178   0.855   2.741  0.1366 -0.6505 -0.4293
 7602TIP3    H144297   3.095   0.901   2.738  0.2760 -0.4122 -0.7526
 7602TIP3    H244298   3.212   0.861   2.652  0.6363 -0.4876 -0.2333
 7603TIP3   OH244299   1.018   2.444   1.016 -0.1217 -0.4406  0.1721
 7603TIP3    H144300   1.089   2.496   1.055  1.4184 -2.0358 -0.4529
 7603TIP3    H244301   0.985   2.498   0.944  0.8763  0.0581  0.0838
 7604TIP3   OH244302   0.666   4.618  14.543  0.3257  0.9733 -0.5294
 7604TIP3    H144303   0.617   4.627  14.625 -0.7985  0.2665 -1.1026
 7604TIP3    H244304   0.690   4.525  14.540 -1.9144  0.3699 -2.2181
 7605TIP3   OH244305   2.326   6.183   2.803 -0.3703 -0.0442 -0.1397
 7605TIP3    H144306   2.351   6.134   2.882 -0.4684  0.1941  0.0397
 7605TIP3    H244307   2.283   6.118   2.748  1.4934 -0.6865 -0.8742
 7606TIP3   OH244308   2.125   6.538   0.840 -0.4270 -0.2762  1.3322
 7606TIP3    H144309   2.139   6.568   0.930 -1.0601  0.4566  1.1838
 7606TIP3    H244310   2.049   6.481   0.846 -0.5484 -0.1225  1.2325
 7607TIP3   OH244311   4.038   6.656  11.873  0.1543  0.1548 -0.1695
 7607TIP3    H144312   4.129   6.630  11.891  0.3801  0.3572 -0.9907
 7607TIP3    H244313   4.032   6.656  11.777 -0.5488  0.7293 -0.1248
 7608TIP3   OH244314   5.945   3.508   0.643  0.0483  0.0769  0.2987
 7608TIP3    H144315   5.925   3.501   0.736  1.4192 -2.4964  0.4561
 7608TIP3    H244316   5.877   3.456   0.600  1.4044 -1.6479  0.1749
 7609TIP3   OH244317   0.723   3.204   6.763  0.5079 -0.3413  0.6655
 7609TIP3    H144318   0.767   3.168   6.687  1.7497  0.0339  1.1927
 7609TIP3    H244319   0.794   3.239   6.818 -0.5262  1.4901  0.8881
 7610TIP3   OH244320   3.213   0.262   4.106  0.6996  0.0934  0.2335
 7610TIP3    H144321   3.299   0.284   4.070  0.8689  0.4186  0.8238
 7610TIP3    H244322   3.229   0.182   4.157  0.1833 -1.1363 -1.5204
 7611TIP3   OH244323   3.432   4.710   4.539  0.3112 -0.3130  0.6561
 7611TIP3    H144324   3.389   4.628   4.564  1.5815 -0.2431  3.1367
 7611TIP3    H244325   3.522   4.701   4.569  1.1106  1.0398 -1.2326
 7612TIP3   OH244326   6.540   3.563   4.113  0.4520  0.4062  0.3187
 7612TIP3    H144327   6.473   3.542   4.048 -0.5071  1.1069  1.0563
 7612TIP3    H244328   6.514   3.649   4.147  1.3605  0.3864  1.0816
 7613TIP3   OH244329   3.369   6.308  15.257 -0.3141 -0.0736  1.1531
 7613TIP3    H144330   3.441   6.370  15.268  0.6569 -0.9861  0.1176
 7613TIP3    H244331   3.410   6.222  15.266 -1.0980 -0.6282 -0.3246
 7614TIP3   OH244332   2.913   2.773  11.849 -0.5079  0.4941  0.4664
 7614TIP3    H144333   2.838   2.819  11.811  0.7007  4.0981  2.2466
 7614TIP3    H244334   2.977   2.771  11.778 -0.9666  0.5972  0.0445
 7615TIP3   OH244335   5.486   0.347   1.678  0.3416  0.3124  0.6125
 7615TIP3    H144336   5.404   0.389   1.653 -0.5752 -2.5422 -1.4853
 7615TIP3    H244337   5.476   0.326   1.771 -2.8826 -3.2513 -0.4232
 7616TIP3   OH244338   0.597   1.308   2.656  0.0581 -0.0371  0.0509
 7616TIP3    H144339   0.690   1.295   2.673 -0.3240 -0.0989  2.2679
 7616TIP3    H244340   0.582   1.401   2.673 -0.2045  0.0638 -0.7206
 7617TIP3   OH244341   4.431   0.154   0.426 -0.1987  0.0603 -0.3793
 7617TIP3    H144342   4.342   0.134   0.455 -0.2136 -0.6843 -0.9074
 7617TIP3    H244343   4.450   0.085   0.362  1.7490 -1.3367  1.6407
 7618TIP3   OH244344   0.270   3.919   5.681  0.4552 -0.7680  0.2707
 7618TIP3    H144345   0.324   3.934   5.603  1.0653 -1.2975  0.5863
 7618TIP3    H244346   0.331   3.931   5.755 -0.8567  3.1033  0.8247
 7619TIP3   OH244347   5.631   1.699  12.073  0.0011 -0.0886  0.2867
 7619TIP3    H144348   5.599   1.640  12.005 -1.7265  0.2917  0.7545
 7619TIP3    H244349   5.705   1.744  12.032 -0.3393 -0.6466 -0.9796
 7620TIP3   OH244350   1.573   3.277  15.500 -0.0487  0.4123  0.3480
 7620TIP3    H144351   1.662   3.291  15.533  0.8861  0.4900 -2.0898
 7620TIP3    H244352   1.531   3.363  15.506  0.9567  1.0183 -1.0345
 7621TIP3   OH244353   5.908   3.797   5.365 -0.2813 -0.0352 -0.0172
 7621TIP3    H144354   5.927   3.721   5.419  0.3677  0.3273  0.2765
 7621TIP3    H244355   5.813   3.804   5.365 -0.4059 -1.4952 -0.9457
 7622TIP3   OH244356   2.796   4.028   1.267 -0.0419 -0.0022  0.5162
 7622TIP3    H144357   2.875   4.060   1.311  1.3361 -0.6695 -1.4266
 7622TIP3    H244358   2.827   3.991   1.184 -2.2524 -1.3536  0.2388
 7623TIP3   OH244359   0.648   4.444   0.237  0.6354 -0.3280 -0.1542
 7623TIP3    H144360   0.585   4.377   0.263  1.3827 -0.1952  2.0980
 7623TIP3    H244361   0.732   4.412   0.269  1.6322 -0.1035 -2.3892
 7624TIP3   OH244362   2.874   5.598  13.246  0.5400 -0.5600 -0.0279
 7624TIP3    H144363   2.930   5.521  13.261  2.5408  0.8876  0.1431
 7624TIP3    H244364   2.852   5.594  13.153 -0.1041 -1.8180  0.1738
 7625TIP3   OH244365   6.663   5.260  12.150  0.4287  0.1118 -0.1916
 7625TIP3    H144366   6.653   5.200  12.077  1.0554  1.3367 -1.2956
 7625TIP3    H244367   6.674   5.346  12.110 -1.1573  1.0844  1.3857
 7626TIP3   OH244368   3.352   0.483   5.003 -0.2682 -0.1718  0.3415
 7626TIP3    H144369   3.432   0.488   5.055 -1.4397 -2.6390  2.4540
 7626TIP3    H244370   3.372   0.419   4.935  0.1338  0.5588 -0.2384
 7627TIP3   OH244371   4.143   5.477  15.522 -0.1355  0.2847  0.3819
 7627TIP3    H144372   4.098   5.504  15.602 -0.2626  1.0826  0.0477
 7627TIP3    H244373   4.119   5.385  15.511  0.9251 -0.2010  1.9571
 7628TIP3   OH244374   2.184   6.283   6.006  0.2434 -0.2791 -0.4774
 7628TIP3    H144375   2.241   6.248   5.938 -0.5962 -0.2324 -1.2154
 7628TIP3    H244376   2.222   6.368   6.028  0.9681 -0.6474 -0.3260
 7629TIP3   OH244377   2.544   0.787  16.392  0.9390 -0.1349 -0.7522
 7629TIP3    H144378   2.568   0.702  16.355  0.3827 -0.5673 -0.1428
 7629TIP3    H244379   2.604   0.798  16.466  0.5961 -0.2970 -0.4469
 7630TIP3   OH244380   4.436   3.554  13.831 -0.9148  0.0807 -0.5235
 7630TIP3    H144381   4.359   3.606  13.857 -1.1073 -0.0117 -0.9059
 7630TIP3    H244382   4.442   3.566  13.736  0.7433  1.7130 -0.2290
 7631TIP3   OH244383   5.197   0.315   3.524  0.1211  0.5264 -0.0944
 7631TIP3    H144384   5.281   0.359   3.512 -0.4691  2.4498  2.4878
 7631TIP3    H244385   5.133   0.385   3.523 -1.4613 -0.8868 -1.5262
 7632TIP3   OH244386   2.308   4.243  13.319 -0.1392 -0.5184 -0.0300
 7632TIP3    H144387   2.233   4.218  13.266 -0.7463  1.2541 -0.0341
 7632TIP3    H244388   2.304   4.338  13.323  1.8455 -0.4330  0.3655
 7633TIP3   OH244389   1.309   2.818   3.351  0.6080  0.2984  0.4855
 7633TIP3    H144390   1.282   2.803   3.442  1.2456  0.0213  0.6328
 7633TIP3    H244391   1.227   2.827   3.303  0.2743  1.3941  1.2479
 7634TIP3   OH244392   6.787   0.308  12.366 -0.0751 -0.0799  0.1415
 7634TIP3    H144393   6.873   0.294  12.405 -0.4163  0.9738  1.3175
 7634TIP3    H244394   6.791   0.398  12.332 -0.3423 -0.4116 -0.7846
 7635TIP3   OH244395   5.240   2.927  16.647 -0.1109 -0.5182  0.5172
 7635TIP3    H144396   5.316   2.963  16.693 -0.5333 -0.3783  1.1205
 7635TIP3    H244397   5.274   2.898  16.563  0.3239  0.9747  0.1578
 7636TIP3   OH244398   5.737   2.907   4.363  0.4329 -0.0399  0.3866
 7636TIP3    H144399   5.711   2.864   4.444  0.5117  0.8928  0.9102
 7636TIP3    H244400   5.805   2.970   4.389  0.9858 -0.2461 -0.5037
 7637TIP3   OH244401   5.844   1.376  14.605 -1.3068 -0.0573  0.1105
 7637TIP3    H144402   5.873   1.341  14.521 -0.1847 -1.4039  1.0435
 7637TIP3    H244403   5.749   1.366  14.605 -1.3842  0.5738 -1.2617
 7638TIP3   OH244404   6.771   6.090  11.830 -0.8680 -0.2568  0.6541
 7638TIP3    H144405   6.734   6.161  11.778  1.3280  1.0115  0.7720
 7638TIP3    H244406   6.713   6.015  11.812 -1.2981  0.6580 -2.0691
 7639TIP3   OH244407   2.687   4.569  16.038 -0.2261 -0.2922  0.1420
 7639TIP3    H144408   2.641   4.555  15.955  0.3602  1.3599 -0.4686
 7639TIP3    H244409   2.617   4.577  16.103 -0.7543  0.5787 -0.5315
 7640TIP3   OH244410   0.414   3.184   6.003  0.4298  0.0114 -0.1209
 7640TIP3    H144411   0.380   3.169   5.915  1.3747 -2.6133 -0.0897
 7640TIP3    H244412   0.353   3.137   6.061  0.1093  1.2853  0.6095
 7641TIP3   OH244413   3.886   4.804  11.716  0.0773  0.0014  0.2951
 7641TIP3    H144414   3.833   4.733  11.751  0.1859  0.2479  0.9548
 7641TIP3    H244415   3.941   4.832  11.789 -1.1294  1.8634  0.5259
 7642TIP3   OH244416   5.319   1.578  11.038 -0.0351  0.2438  0.7539
 7642TIP3    H144417   5.297   1.487  11.053 -1.3299  0.5647  0.8159
 7642TIP3    H244418   5.299   1.593  10.945 -1.8957  1.0380  1.2712
 7643TIP3   OH244419   6.537   6.323  16.202  0.7391  0.0528 -0.4593
 7643TIP3    H144420   6.523   6.290  16.113 -0.2252 -1.0948  0.0932
 7643TIP3    H244421   6.629   6.303  16.221  1.3780  1.6703 -1.7319
 7644TIP3   OH244422   2.530   1.104  14.551 -0.5774 -0.5190 -0.1428
 7644TIP3    H144423   2.443   1.115  14.590 -0.1329  0.7318  0.4934
 7644TIP3    H244424   2.515   1.042  14.479 -2.2942  0.8374 -1.0134
 7645TIP3   OH244425   2.525   4.891  11.917  0.8923 -0.1486 -0.3694
 7645TIP3    H144426   2.487   4.938  11.991  0.0399  1.6665 -1.9339
 7645TIP3    H244427   2.617   4.917  11.916  1.0327 -0.5926  0.3518
 7646TIP3   OH244428   0.656   1.314   0.461  0.9958 -0.5271 -0.1559
 7646TIP3    H144429   0.623   1.267   0.385  0.5650  0.5505 -0.6503
 7646TIP3    H244430   0.731   1.363   0.428  1.9206 -1.4817  0.5316
 7647TIP3   OH244431   3.426   1.870   1.055 -0.2187 -0.3773 -0.0139
 7647TIP3    H144432   3.342   1.839   1.089  0.8727 -1.7091  1.4942
 7647TIP3    H244433   3.460   1.929   1.122  0.5096 -0.6239 -0.1554
 7648TIP3   OH244434   0.013   2.441  17.091  0.8073 -0.0634 -0.7249
 7648TIP3    H144435   0.026   2.507  17.023 -0.3482  0.7774 -0.1468
 7648TIP3    H244436  -0.082   2.428  17.094  0.7477  0.7632  1.5188
 7649TIP3   OH244437   4.148   6.312   0.457 -0.5738  0.2957 -0.1438
 7649TIP3    H144438   4.109   6.397   0.436 -0.8014  0.5918  1.3818
 7649TIP3    H244439   4.082   6.269   0.512 -0.4206 -0.8429 -0.8326
 7650TIP3   OH244440   2.953   3.135  11.043  0.0226 -0.5927  0.0979
 7650TIP3    H144441   2.957   3.113  10.950 -0.3852 -1.1467  0.2079
 7650TIP3    H244442   2.872   3.094  11.074  0.0679 -0.2652  0.6559
 7651TIP3   OH244443   3.232   4.376  17.133  0.3433  0.1050 -0.3235
 7651TIP3    H144444   3.222   4.387  17.227  1.1311  0.7248 -0.3005
 7651TIP3    H244445   3.240   4.281  17.120 -3.0934 -0.2460 -0.1398
 7652TIP3   OH244446   1.804   3.162   3.064 -0.7969 -0.4325 -0.2005
 7652TIP3    H144447   1.821   3.155   2.970 -2.0237  1.1574 -0.5592
 7652TIP3    H244448   1.816   3.254   3.084  0.8429 -0.9743  1.5102
 7653TIP3   OH244449   3.552   1.129  11.187 -0.4493 -0.1731 -0.1470
 7653TIP3    H144450   3.564   1.054  11.129  0.4082 -0.1394 -0.0154
 7653TIP3    H244451   3.481   1.179  11.147 -0.3614 -0.5372 -0.7655
 7654TIP3   OH244452   3.197   6.462   3.084 -0.2252 -0.5788 -0.4450
 7654TIP3    H144453   3.105   6.450   3.109  0.1718 -1.3899  0.6985
 7654TIP3    H244454   3.224   6.377   3.050 -1.0051  0.7583 -4.6364
 7655TIP3   OH244455   5.551   2.211   5.400  0.4600  0.6637  0.2650
 7655TIP3    H144456   5.585   2.180   5.315  0.0704  1.2583 -0.1143
 7655TIP3    H244457   5.542   2.306   5.388  2.1873  1.0164  1.5924
 7656TIP3   OH244458   1.770   4.549  14.565  0.0227 -1.1240  0.0644
 7656TIP3    H144459   1.782   4.512  14.478 -1.2912  0.8278 -0.9931
 7656TIP3    H244460   1.697   4.500  14.602 -0.2395 -1.1315 -0.4506
 7657TIP3   OH244461   6.416   5.346   2.300 -0.1174  0.8613  0.3087
 7657TIP3    H144462   6.499   5.379   2.266  0.7963 -1.8038 -0.1847
 7657TIP3    H244463   6.438   5.305   2.383 -0.7880 -0.4175 -0.1135
 7658TIP3   OH244464   1.431   3.038   0.990 -0.8417  0.3259  0.0440
 7658TIP3    H144465   1.511   2.991   0.967 -0.1738  1.9017 -0.8976
 7658TIP3    H244466   1.459   3.103   1.054 -1.9453 -1.1634  2.1247
 7659TIP3   OH244467   1.324   3.830   5.938 -0.2497 -0.2209  0.0692
 7659TIP3    H144468   1.393   3.843   6.002 -1.2981 -1.7399  1.5517
 7659TIP3    H244469   1.324   3.736   5.921 -1.7643 -0.2012 -0.1103
 7660TIP3   OH244470   5.910   5.954  13.276  0.7764 -0.1411  0.4761
 7660TIP3    H144471   6.002   5.958  13.303  1.3571 -0.5041 -1.3826
 7660TIP3    H244472   5.913   5.955  13.180 -1.1638 -0.1371  0.3977
 7661TIP3   OH244473   1.695   2.211  13.777  0.2633  0.4396 -0.7662
 7661TIP3    H144474   1.762   2.269  13.815 -0.5202 -0.5903  2.3634
 7661TIP3    H244475   1.632   2.271  13.736  0.7666  1.6960  0.2492
 7662TIP3   OH244476   2.374   4.994  14.978 -0.1114 -0.3349 -0.4575
 7662TIP3    H144477   2.390   5.083  14.947 -0.1589  0.6276  2.1782
 7662TIP3    H244478   2.398   4.995  15.071 -1.6886 -2.6252  0.0388
 7663TIP3   OH244479   6.545   4.782   1.902  0.8643  0.3917  0.1764
 7663TIP3    H144480   6.638   4.798   1.913  0.8222  2.0962 -1.7486
 7663TIP3    H244481   6.503   4.833   1.971  1.3749 -1.3968  1.8723
 7664TIP3   OH244482   1.895   6.130  16.031  0.5146  0.5475 -0.5211
 7664TIP3    H144483   1.980   6.156  16.065  1.7841 -0.9408 -2.4757
 7664TIP3    H244484   1.880   6.042  16.067 -0.2514  0.8259 -0.1296
 7665TIP3   OH244485   6.300   5.262  12.542  0.1109 -0.2252  0.5222
 7665TIP3    H144486   6.277   5.185  12.593  0.1501 -0.3775  0.3124
 7665TIP3    H244487   6.262   5.245  12.455 -0.3167  0.2203  0.6211
 7666TIP3   OH244488   0.340   1.093   2.307 -0.4286  0.3910 -0.1065
 7666TIP3    H144489   0.349   1.083   2.212 -2.3168  1.6296 -0.4510
 7666TIP3    H244490   0.419   1.140   2.333 -0.3320  0.8735 -1.2195
 7667TIP3   OH244491   1.442   4.930  14.776 -0.1452  0.5588 -0.8896
 7667TIP3    H144492   1.415   4.997  14.715  1.8702  0.9565 -1.3711
 7667TIP3    H244493   1.471   4.857  14.721  1.9382  1.0248 -0.4647
 7668TIP3   OH244494   4.289   0.748  15.320  0.2597 -0.2493  0.1813
 7668TIP3    H144495   4.377   0.751  15.284  1.2633  1.2164  2.6428
 7668TIP3    H244496   4.301   0.761  15.414 -2.5945  0.1770  0.5299
 7669TIP3   OH244497   4.664   6.627  12.457  0.1885 -0.2177 -0.6857
 7669TIP3    H144498   4.571   6.621  12.434 -0.2950  1.5031  0.6965
 7669TIP3    H244499   4.710   6.625  12.373 -1.1209 -0.6934 -1.4024
 7670TIP3   OH244500   0.051   2.460  13.455  0.1991  0.2114  0.3663
 7670TIP3    H144501   0.112   2.530  13.431  1.0042 -0.1460  1.3697
 7670TIP3    H244502   0.107   2.388  13.482 -0.6692 -0.1449  1.2339
 7671TIP3   OH244503   0.832   0.524   2.708 -0.0179  0.0666  0.5057
 7671TIP3    H144504   0.769   0.508   2.779 -1.3004  1.3357 -0.3264
 7671TIP3    H244505   0.904   0.463   2.726 -0.1958  0.5448  3.0374
 7672TIP3   OH244506   1.215   5.203  13.907  0.7162 -0.4238 -0.3640
 7672TIP3    H144507   1.309   5.204  13.891  0.5373 -0.0821 -1.4490
 7672TIP3    H244508   1.206   5.208  14.002  1.7928 -0.4928 -0.2606
 7673TIP3   OH244509   4.949   6.723  15.278  0.0598 -0.0599 -0.5252
 7673TIP3    H144510   4.906   6.727  15.193  0.1074  1.9397 -0.4961
 7673TIP3    H244511   5.041   6.708  15.258 -0.1763 -1.2539 -0.7352
 7674TIP3   OH244512   3.310   1.714  16.489 -0.1367  0.3168 -0.1183
 7674TIP3    H144513   3.391   1.732  16.442  0.1650  1.1836  0.7043
 7674TIP3    H244514   3.249   1.782  16.459 -1.0815 -1.2872 -1.9451
 7675TIP3   OH244515   3.325   1.395   2.103  0.1060  0.3080  0.6082
 7675TIP3    H144516   3.408   1.423   2.066 -1.4118 -0.9368 -4.1107
 7675TIP3    H244517   3.345   1.314   2.150  1.5195 -0.1794 -0.8083
 7676TIP3   OH244518   5.105   2.372   3.821 -0.7733  0.4003 -0.0652
 7676TIP3    H144519   5.176   2.405   3.876  0.4597  1.2905 -2.1344
 7676TIP3    H244520   5.139   2.290   3.785 -1.7044 -0.3483  0.7416
 7677TIP3   OH244521   3.137   0.753  11.814  0.2675 -0.1291 -0.5148
 7677TIP3    H144522   3.111   0.661  11.800 -0.7124  0.1226 -0.4160
 7677TIP3    H244523   3.175   0.780  11.730 -0.7303 -0.2108 -1.0005
 7678TIP3   OH244524   5.272   1.797  15.206 -0.1119  0.3346 -0.3323
 7678TIP3    H144525   5.366   1.797  15.226  0.0583 -2.7794 -0.8970
 7678TIP3    H244526   5.231   1.831  15.285  1.4379  0.7948  0.3003
 7679TIP3   OH244527   4.860   0.841   0.675 -0.0033  0.4822  0.7453
 7679TIP3    H144528   4.829   0.892   0.601 -0.6748  0.3344  0.9218
 7679TIP3    H244529   4.955   0.851   0.673 -0.0846  1.2531  0.4276
 7680TIP3   OH244530   5.730   2.961   2.915  0.4327  0.9956 -0.2321
 7680TIP3    H144531   5.804   3.021   2.923  1.9456 -0.8255 -0.2631
 7680TIP3    H244532   5.664   3.011   2.867  2.2908  2.0939 -1.7216
 7681TIP3   OH244533   1.262   2.917   2.703  0.2930 -0.1318 -0.0647
 7681TIP3    H144534   1.333   2.930   2.639 -0.4281 -0.6399 -0.9727
 7681TIP3    H244535   1.247   3.005   2.739 -0.6089  0.5392 -2.0064
 7682TIP3   OH244536   0.606   5.937   5.491 -0.7895 -0.3877  0.2697
 7682TIP3    H144537   0.585   6.023   5.528 -0.4901  0.3772 -1.3048
 7682TIP3    H244538   0.665   5.897   5.555 -2.3297 -0.1595  1.8719
 7683TIP3   OH244539   6.242   4.436  17.110 -0.2792  0.4407 -0.7979
 7683TIP3    H144540   6.278   4.491  17.179  1.6672  0.1880 -1.5783
 7683TIP3    H244541   6.317   4.414  17.054 -1.2993 -1.6383 -1.4319
 7684TIP3   OH244542   3.357   6.296   4.963 -0.1665  0.0354  0.5486
 7684TIP3    H144543   3.447   6.316   4.988 -0.2315  1.2330 -0.1658
 7684TIP3    H244544   3.350   6.325   4.872 -1.2990  0.0278  0.6293
 7685TIP3   OH244545   2.064   5.221   2.208 -0.1050 -0.1062 -0.2024
 7685TIP3    H144546   2.113   5.283   2.155  0.2403 -0.4746 -0.3181
 7685TIP3    H244547   1.973   5.250   2.202 -0.1454 -0.4721 -1.4434
 7686TIP3   OH244548   2.655   5.450  16.571 -0.7181 -0.5042  0.2322
 7686TIP3    H144549   2.633   5.403  16.652  1.2338  1.2527  1.8154
 7686TIP3    H244550   2.749   5.466  16.577 -1.0667  2.2088 -1.0445
 7687TIP3   OH244551   0.792   3.864  11.941  0.2714  0.2774  0.0052
 7687TIP3    H144552   0.875   3.907  11.963  0.6265 -0.2223 -0.3345
 7687TIP3    H244553   0.783   3.876  11.846  0.7213 -0.9744 -0.2151
 7688TIP3   OH244554   1.103   2.089   6.465  0.2313 -0.1484  0.0034
 7688TIP3    H144555   1.118   2.108   6.557  1.2483 -1.7656  0.1972
 7688TIP3    H244556   1.040   2.016   6.466  1.1964 -0.9958 -0.5407
 7689TIP3   OH244557   0.355   1.776   1.217  0.5440 -0.4179  0.1541
 7689TIP3    H144558   0.427   1.833   1.245 -0.0344  0.1069  0.5940
 7689TIP3    H244559   0.396   1.691   1.200  1.3179 -0.0368  0.0843
 7690TIP3   OH244560   1.411   4.553   2.926 -0.7441 -0.1321  0.0924
 7690TIP3    H144561   1.396   4.560   3.020 -0.1517 -0.7514  0.2358
 7690TIP3    H244562   1.375   4.468   2.902  0.6025 -0.7083  0.0607
 7691TIP3   OH244563   2.222   4.544  13.328  0.0192 -0.1888  0.2295
 7691TIP3    H144564   2.223   4.617  13.267 -0.4033 -0.1150  0.3087
 7691TIP3    H244565   2.129   4.525  13.341  0.1182 -0.4941  0.5015
 7692TIP3   OH244566   3.913   1.161   1.281 -0.6463  0.0673  0.2821
 7692TIP3    H144567   3.832   1.201   1.250 -1.8201 -2.0115  0.6244
 7692TIP3    H244568   3.971   1.235   1.297 -1.7071  1.4647 -2.0855
 7693TIP3   OH244569   0.743   5.908   6.699  0.7250  0.1302  0.4589
 7693TIP3    H144570   0.820   5.862   6.732 -0.2472  0.0390  2.6889
 7693TIP3    H244571   0.727   5.977   6.763 -2.5511 -1.4765  1.5162
 7694TIP3   OH244572   3.278   0.254  15.191 -0.4035 -0.5235  0.4504
 7694TIP3    H144573   3.230   0.254  15.108  1.3996 -2.3844 -0.6361
 7694TIP3    H244574   3.276   0.345  15.220 -0.3482  0.3144 -2.0731
 7695TIP3   OH244575   3.209   1.967  12.583  0.2597  0.5822  0.8388
 7695TIP3    H144576   3.279   1.903  12.597  0.1622  0.2620 -0.1422
 7695TIP3    H244577   3.172   1.981  12.671  1.5151  0.7126  1.3546
 7696TIP3   OH244578   2.784   2.323  12.291  0.1364 -0.6999  0.1146
 7696TIP3    H144579   2.812   2.247  12.240 -1.8428 -0.6145 -1.1554
 7696TIP3    H244580   2.691   2.309  12.306  0.2176  0.4095  1.7532
 7697TIP3   OH244581   6.596   6.668   3.265 -0.3423  0.1118 -0.2821
 7697TIP3    H144582   6.607   6.609   3.191 -0.2940  0.1931 -0.3397
 7697TIP3    H244583   6.641   6.748   3.239  0.3410 -0.1272  0.1490
 7698TIP3   OH244584   1.972   4.509   6.875  0.0933  0.0526 -0.7320
 7698TIP3    H144585   2.066   4.504   6.856  0.1933 -0.9650 -0.0182
 7698TIP3    H244586   1.932   4.527   6.790  0.9856  1.2916 -0.9135
 7699TIP3   OH244587   1.594   2.416  12.272  0.2909 -0.0833  0.3520
 7699TIP3    H144588   1.656   2.452  12.336 -0.6183 -1.8447  2.2756
 7699TIP3    H244589   1.633   2.333  12.245  0.1176  0.1320 -0.5927
 7700TIP3   OH244590   4.932   5.993   0.150 -0.0356 -0.6938  0.9422
 7700TIP3    H144591   4.915   6.055   0.221  2.1209 -0.5598  1.3717
 7700TIP3    H244592   4.984   5.924   0.190 -1.6160 -2.3292  0.2402
 7701TIP3   OH244593   1.034   2.428  12.600 -0.4105 -0.0181 -0.0576
 7701TIP3    H144594   1.076   2.438  12.515 -0.2917  3.3975  0.3314
 7701TIP3    H244595   0.952   2.476  12.591  0.6998  2.4324  2.4614
 7702TIP3   OH244596   0.955   3.912  16.956  0.3210  0.4775  0.1746
 7702TIP3    H144597   0.967   4.003  16.932  0.4518  0.5833  0.6307
 7702TIP3    H244598   0.888   3.913  17.025  1.7385  0.4350  1.5891
 7703TIP3   OH244599   1.830   1.443  11.307 -0.9038  0.1382  0.7663
 7703TIP3    H144600   1.817   1.432  11.213 -0.3697  0.4489  0.6563
 7703TIP3    H244601   1.915   1.405  11.325 -0.5473  1.0066  0.9508
 7704TIP3   OH244602   4.853   6.818   0.980  0.1670 -0.1709  0.6582
 7704TIP3    H144603   4.944   6.846   0.971  0.4639 -2.0000 -2.7367
 7704TIP3    H244604   4.801   6.891   0.947  0.4749  0.1445  0.8721
 7705TIP3   OH244605   2.825   0.362   4.220 -0.3470  0.1139 -0.4813
 7705TIP3    H144606   2.858   0.333   4.135 -0.7613  0.2793 -0.6982
 7705TIP3    H244607   2.849   0.292   4.280  2.5937  1.3492 -0.1580
 7706TIP3   OH244608   6.472   2.663   0.673 -0.6454 -0.6468 -0.3249
 7706TIP3    H144609   6.379   2.639   0.671 -0.6715 -0.6510  0.9163
 7706TIP3    H244610   6.500   2.655   0.582 -1.8874 -0.5418 -0.7275
 7707TIP3   OH244611   5.309   1.372   2.860  0.1939 -0.7687 -0.5313
 7707TIP3    H144612   5.398   1.347   2.884  0.3756 -1.1403 -1.5806
 7707TIP3    H244613   5.253   1.308   2.903  0.4710 -0.9445 -0.4331
 7708TIP3   OH244614   5.367   2.530   0.619  0.1245  0.0821 -0.1510
 7708TIP3    H144615   5.375   2.515   0.524 -1.6557  2.2264 -0.6838
 7708TIP3    H244616   5.425   2.464   0.658  1.5988 -0.2659 -2.7513
 7709TIP3   OH244617   4.282   3.142  15.477  0.1867  0.1811  0.0913
 7709TIP3    H144618   4.287   3.118  15.384  0.9615 -0.7182  0.3415
 7709TIP3    H244619   4.327   3.226  15.482 -0.3793  0.5231 -0.4354
 7710TIP3   OH244620   1.276   1.343  10.196  0.8046  0.0114  0.9982
 7710TIP3    H144621   1.361   1.301  10.187 -0.0032 -1.8678  1.9195
 7710TIP3    H244622   1.220   1.276  10.236 -1.5121  0.7026 -0.9597
 7711TIP3   OH244623   1.081   0.421  12.272 -0.1602  0.0083 -0.0058
 7711TIP3    H144624   1.151   0.481  12.247  0.0945 -0.9286 -1.6084
 7711TIP3    H244625   1.123   0.357  12.330 -0.0504  0.3694  0.3156
 7712TIP3   OH244626   5.236   0.487   4.652  0.7688 -0.1345 -0.2685
 7712TIP3    H144627   5.235   0.391   4.660 -1.5805 -0.0430  0.8491
 7712TIP3    H244628   5.260   0.503   4.561  1.1192 -1.7753 -0.4942
 7713TIP3   OH244629   3.846   4.078   3.608 -0.3138  0.4094  0.1462
 7713TIP3    H144630   3.792   4.089   3.686  0.1091  1.3009  0.3125
 7713TIP3    H244631   3.891   3.994   3.622 -1.4012 -0.1804  0.1500
 7714TIP3   OH244632   5.318   1.631   2.212 -0.1219  0.2611  0.1079
 7714TIP3    H144633   5.283   1.687   2.142  1.5255  0.4821 -0.5728
 7714TIP3    H244634   5.402   1.671   2.234 -0.4406 -0.0660  1.9346
 7715TIP3   OH244635   3.846   2.926   0.525 -0.0863 -0.0277  0.3312
 7715TIP3    H144636   3.764   2.926   0.573 -0.5349 -0.6264 -0.4292
 7715TIP3    H244637   3.908   2.970   0.584 -0.7195 -0.3960  1.2838
 7716TIP3   OH244638   4.819   2.473  17.040 -0.0389 -0.4915 -0.4876
 7716TIP3    H144639   4.823   2.534  16.966 -0.9693  0.5308  0.2877
 7716TIP3    H244640   4.820   2.530  17.117  1.4233 -1.5531  0.3205
 7717TIP3   OH244641   2.051   1.205   3.403  0.1864  0.1381 -0.0102
 7717TIP3    H144642   2.144   1.220   3.415  0.0190 -0.0367  1.6122
 7717TIP3    H244643   2.034   1.121   3.446 -0.8074  0.4084  0.1392
 7718TIP3   OH244644   3.833   4.534   0.294 -0.2171  0.0215 -0.2442
 7718TIP3    H144645   3.745   4.561   0.320 -0.6413 -1.5698  0.0241
 7718TIP3    H244646   3.825   4.440   0.277  1.0561  0.1861 -1.8365
 7719TIP3   OH244647   4.025   6.528   0.364 -0.3735 -0.5984  0.3787
 7719TIP3    H144648   3.967   6.532   0.288  0.7856  0.7895 -0.4711
 7719TIP3    H244649   4.003   6.605   0.415 -0.9552 -1.3820  1.3356
 7720TIP3   OH244650   2.527   4.571  11.078  0.2473  0.0744 -0.3119
 7720TIP3    H144651   2.575   4.652  11.099  1.0625 -0.3098 -0.6430
 7720TIP3    H244652   2.496   4.585  10.988 -0.8714  0.6082  0.1547
 7721TIP3   OH244653   6.453   6.411  17.046  0.1255  0.6314  0.1771
 7721TIP3    H144654   6.485   6.387  16.959  0.3657  1.5237  0.0222
 7721TIP3    H244655   6.513   6.367  17.106  2.8354  3.7841 -0.0962
 7722TIP3   OH244656   4.507   5.628   3.716  0.3562 -0.0809  0.1010
 7722TIP3    H144657   4.434   5.687   3.735 -1.1033 -2.0977  0.9463
 7722TIP3    H244658   4.550   5.668   3.640 -1.5866  1.1913 -0.3842
 7723TIP3   OH244659   3.361   5.753   1.996  0.1118  0.1421 -0.6306
 7723TIP3    H144660   3.354   5.833   1.945 -0.1932  0.1198 -0.6267
 7723TIP3    H244661   3.455   5.736   2.003  0.2127  0.9297  0.0467
 7724TIP3   OH244662   6.372   2.876  12.072  0.3052  0.2235 -0.0387
 7724TIP3    H144663   6.303   2.940  12.092 -0.6137 -1.0223  0.8095
 7724TIP3    H244664   6.361   2.808  12.137  1.3874 -0.7392 -0.8511
 7725TIP3   OH244665   1.912   4.923  12.295 -0.7093  0.6919  0.2420
 7725TIP3    H144666   1.919   4.963  12.381  1.2176  1.3653 -0.1984
 7725TIP3    H244667   1.928   4.994  12.233  1.3073 -0.4157 -0.5730
 7726TIP3   OH244668   6.020   4.826   3.594  0.0124 -0.0273  0.9753
 7726TIP3    H144669   5.938   4.778   3.602  0.2003 -0.3221  1.1491
 7726TIP3    H244670   6.084   4.760   3.567  0.7274 -0.3060  3.2818
 7727TIP3   OH244671   5.634   4.374   0.028  0.1091 -0.0434  0.5227
 7727TIP3    H144672   5.689   4.338   0.097  0.7129 -1.2889 -0.6029
 7727TIP3    H244673   5.561   4.313   0.021  0.2660 -0.1451 -0.2321
 7728TIP3   OH244674   5.904   4.277   2.264 -0.1691  0.2461  0.1140
 7728TIP3    H144675   5.953   4.287   2.182 -0.9587  0.2018 -0.3718
 7728TIP3    H244676   5.947   4.337   2.325  0.2814  0.4585 -0.4051
 7729TIP3   OH244677   4.604   0.562  15.688  0.1430  0.4317  0.1392
 7729TIP3    H144678   4.556   0.531  15.765 -1.7097 -2.6181 -2.1752
 7729TIP3    H244679   4.693   0.577  15.720 -0.7588 -0.0735  3.0242
 7730TIP3   OH244680   2.745   0.215  15.375  0.0640 -1.1349 -0.0419
 7730TIP3    H144681   2.794   0.160  15.435  0.8918  0.7489  1.0705
 7730TIP3    H244682   2.794   0.210  15.293  0.7919 -1.1538  0.3891
 7731TIP3   OH244683   5.891   4.540   3.665  0.3337 -0.1012  0.3128
 7731TIP3    H144684   5.983   4.557   3.686  0.9069 -1.6096 -0.9077
 7731TIP3    H244685   5.842   4.594   3.727  2.0396  1.8839 -0.0198
 7732TIP3   OH244686   3.837   6.688  13.847  0.1267 -0.1051  0.8847
 7732TIP3    H144687   3.761   6.718  13.898  0.8000  0.7237  1.4071
 7732TIP3    H244688   3.852   6.758  13.783 -1.4785 -1.6828 -1.3172
 7733TIP3   OH244689   5.391   4.512   4.774  0.2083  0.0142 -0.0609
 7733TIP3    H144690   5.463   4.549   4.826  0.2660 -1.1906  0.7140
 7733TIP3    H244691   5.312   4.537   4.821  0.3278 -2.3353  1.4190
 7734TIP3   OH244692   1.795   5.824   6.312  0.4385 -0.2558 -0.1082
 7734TIP3    H144693   1.789   5.831   6.407  0.8966 -0.9663 -0.0294
 7734TIP3    H244694   1.884   5.851   6.291  0.1242  0.5782 -0.4048
 7735TIP3   OH244695   3.723   5.212   1.866  0.2706 -0.1175 -0.0809
 7735TIP3    H144696   3.637   5.178   1.892 -1.5019  2.8517 -1.7487
 7735TIP3    H244697   3.714   5.307   1.874  2.1076  0.4890 -4.0995
 7736TIP3   OH244698   6.187   4.220   0.499 -0.0670 -0.3798  0.1640
 7736TIP3    H144699   6.150   4.184   0.418 -0.3961  1.6107 -0.5953
 7736TIP3    H244700   6.244   4.291   0.470 -0.9305  0.9936  1.7315
 7737TIP3   OH244701   4.799   4.394  13.542  0.0696  0.7855 -0.3377
 7737TIP3    H144702   4.866   4.438  13.490 -0.4421  0.7724 -1.0147
 7737TIP3    H244703   4.823   4.412  13.633 -0.3084  2.7069 -0.6073
 7738TIP3   OH244704   0.511   4.069   3.725 -0.7636  0.1255  0.0575
 7738TIP3    H144705   0.450   3.996   3.721 -0.1367 -0.3250 -1.8330
 7738TIP3    H244706   0.584   4.036   3.778 -0.7254 -0.4133 -0.3334
 7739TIP3   OH244707   1.159   3.113   6.028  0.2275 -0.0700  0.1392
 7739TIP3    H144708   1.146   3.045   6.094 -1.1241  0.7702  0.7522
 7739TIP3    H244709   1.131   3.194   6.071 -0.5018  0.5038 -1.4009
 7740TIP3   OH244710   2.867   4.064   0.644 -0.4490  0.6571 -0.2283
 7740TIP3    H144711   2.940   4.061   0.705  1.7714 -1.8054 -2.8483
 7740TIP3    H244712   2.885   4.139   0.587  0.6309 -0.5666 -1.5253
 7741TIP3   OH244713   1.996   3.628   3.984  0.5990 -0.5711 -0.3506
 7741TIP3    H144714   2.033   3.689   3.920  0.3310 -0.2338 -0.1894
 7741TIP3    H244715   2.067   3.567   4.003  0.7084 -0.6245 -0.9061
 7742TIP3   OH244716   6.029   5.408   5.645 -0.4495 -0.5950 -0.1142
 7742TIP3    H144717   6.105   5.467   5.652  0.5024 -2.0567  2.1724
 7742TIP3    H244718   6.037   5.370   5.557  0.9490 -0.0641 -0.2369
 7743TIP3   OH244719   3.544   5.110  15.876 -0.6854 -0.1996  0.5033
 7743TIP3    H144720   3.637   5.084  15.875 -0.8658 -0.8545 -0.3549
 7743TIP3    H244721   3.546   5.205  15.868 -0.0732 -0.2057  0.5717
 7744TIP3   OH244722   1.666   3.876  16.129 -0.6121 -0.3985  0.2486
 7744TIP3    H144723   1.640   3.967  16.142  0.5527 -0.0601  0.2505
 7744TIP3    H244724   1.754   3.881  16.092 -0.9737 -1.5054 -0.8018
 7745TIP3   OH244725   3.854   2.902  15.349 -0.2957  0.2427 -0.2217
 7745TIP3    H144726   3.869   2.969  15.416  0.2870 -0.8901  0.8166
 7745TIP3    H244727   3.837   2.951  15.269  2.1917  1.6588  0.0449
 7746TIP3   OH244728   2.548   3.183  16.961 -0.2823  0.5373 -0.0875
 7746TIP3    H144729   2.630   3.208  16.917 -0.7119  0.6218 -0.8356
 7746TIP3    H244730   2.557   3.219  17.050  0.7289  0.0723  0.0131
 7747TIP3   OH244731   1.149   5.527   4.271  0.7524 -0.2286  0.2317
 7747TIP3    H144732   1.177   5.555   4.184 -0.0318 -1.6993 -0.5118
 7747TIP3    H244733   1.120   5.437   4.259  0.7236 -0.4804  2.0409
 7748TIP3   OH244734   4.792   0.878  10.331 -0.5700 -0.1782 -0.4589
 7748TIP3    H144735   4.709   0.842  10.361  0.3649 -1.2099  0.9599
 7748TIP3    H244736   4.845   0.802  10.309  0.7811  0.3625  0.8064
 7749TIP3   OH244737   6.328   6.436  16.703  0.0249 -0.0905 -0.5337
 7749TIP3    H144738   6.303   6.358  16.654  0.3381 -1.2256  1.0442
 7749TIP3    H244739   6.422   6.447  16.685 -0.1383  0.2310 -1.1764
 7750TIP3   OH244740   4.210   2.419   0.360  0.2016 -0.3990 -0.2707
 7750TIP3    H144741   4.187   2.506   0.327 -0.2016 -1.0838 -1.8671
 7750TIP3    H244742   4.183   2.419   0.451 -2.8517  0.0376 -1.1294
 7751TIP3   OH244743   3.601   0.331   2.206 -0.2360 -0.0411 -0.4402
 7751TIP3    H144744   3.676   0.278   2.231 -0.0827 -0.0275 -0.8623
 7751TIP3    H244745   3.638   0.419   2.193 -0.1886 -0.1873 -1.3536
 7752TIP3   OH244746   2.757   2.055  11.757 -0.2229 -0.2222 -0.1425
 7752TIP3    H144747   2.797   1.969  11.738  0.4044  0.2550 -1.0183
 7752TIP3    H244748   2.829   2.107  11.792 -0.3499  0.2935 -0.6554
 7753TIP3   OH244749   6.484   5.753  16.788  0.2261 -0.3875 -0.0973
 7753TIP3    H144750   6.525   5.724  16.706  0.1383  0.4034 -0.4287
 7753TIP3    H244751   6.548   5.812  16.826  0.6019 -1.3624  0.8020
 7754TIP3   OH244752   4.571   6.740   6.626 -0.1513 -0.1323  0.2052
 7754TIP3    H144753   4.494   6.687   6.647 -0.7214  0.7548  0.4013
 7754TIP3    H244754   4.543   6.830   6.641  1.1185  0.1701  0.8747
 7755TIP3   OH244755   1.476   2.829  11.166 -0.2958 -0.3097 -0.0478
 7755TIP3    H144756   1.558   2.857  11.126  0.2705 -3.0569 -0.9047
 7755TIP3    H244757   1.409   2.886  11.127  0.6589 -0.8691 -2.5767
 7756TIP3   OH244758   3.015   4.780   4.416  0.0788 -0.1065  0.0777
 7756TIP3    H144759   3.046   4.867   4.388  0.1944 -0.4868 -1.0076
 7756TIP3    H244760   2.967   4.797   4.496  1.5891  0.7411  0.8365
 7757TIP3   OH244761   1.740   0.965  12.376  0.0983  0.2490 -0.6768
 7757TIP3    H144762   1.676   0.895  12.391 -1.3863  1.6951 -0.0150
 7757TIP3    H244763   1.810   0.947  12.438  0.3610 -1.3746 -1.4125
 7758TIP3   OH244764   5.100   4.938  14.412 -0.1051 -0.2798 -0.3163
 7758TIP3    H144765   5.058   4.878  14.473 -0.4880 -1.7722 -1.9896
 7758TIP3    H244766   5.118   4.884  14.334  2.6770  0.9160 -0.5717
 7759TIP3   OH244767   6.410   2.364   1.046  0.0555  0.1914  0.1701
 7759TIP3    H144768   6.383   2.440   1.098 -1.6707  0.1520 -0.6338
 7759TIP3    H244769   6.422   2.294   1.110  1.1451  0.9869  0.8578
 7760TIP3   OH244770   5.277   0.498   1.565 -0.3038 -0.4603 -0.1383
 7760TIP3    H144771   5.295   0.554   1.490  1.2166 -0.8681 -0.1105
 7760TIP3    H244772   5.219   0.549   1.621  1.0082  1.0759 -0.1415
 7761TIP3   OH244773   1.795   2.916   0.149  0.4651  0.0176  0.5403
 7761TIP3    H144774   1.726   2.938   0.211  1.5288 -0.6800  2.0088
 7761TIP3    H244775   1.778   2.972   0.073 -2.5482 -1.2170  0.2643
 7762TIP3   OH244776   2.871   2.531   1.270  0.3787  0.0818 -0.3574
 7762TIP3    H144777   2.790   2.487   1.244  0.6958  0.1787 -1.5318
 7762TIP3    H244778   2.893   2.493   1.355 -1.5948  0.9864  0.5911
 7763TIP3   OH244779   2.745   1.643  12.637  0.5854  0.5274  0.6017
 7763TIP3    H144780   2.731   1.727  12.682  2.2493  0.5860  1.0290
 7763TIP3    H244781   2.809   1.597  12.691 -0.3211 -1.0473  0.3802
 7764TIP3   OH244782   2.058   5.844  16.071 -0.3442 -0.4397 -0.2372
 7764TIP3    H144783   2.054   5.749  16.080 -1.9149 -0.4222 -0.6160
 7764TIP3    H244784   1.996   5.864  16.001  0.1724  0.8421 -0.3411
 7765TIP3   OH244785   2.823   5.449   0.251 -0.0412 -0.1214  0.0184
 7765TIP3    H144786   2.793   5.359   0.268  1.4702 -0.7508 -0.5533
 7765TIP3    H244787   2.895   5.462   0.313  1.4953 -0.2745 -1.6849
 7766TIP3   OH244788   3.310   5.303   5.557  0.6382  0.0240  0.2688
 7766TIP3    H144789   3.230   5.274   5.600 -0.8007  1.4312 -1.4210
 7766TIP3    H244790   3.362   5.343   5.627 -0.9567  0.8250  1.0054
 7767TIP3   OH244791   0.112   2.058   2.448  0.3867  0.1964  0.3802
 7767TIP3    H144792   0.040   2.053   2.511  0.0951 -1.0587 -0.0387
 7767TIP3    H244793   0.125   2.152   2.433 -0.2270  0.4690  1.5224
 7768TIP3   OH244794   1.398   5.766  13.166  0.5150 -0.2288 -0.3544
 7768TIP3    H144795   1.478   5.817  13.179  0.4288 -0.4340  1.1109
 7768TIP3    H244796   1.428   5.685  13.125  0.7530  0.6368 -1.9322
 7769TIP3   OH244797   6.595   0.488   1.492 -0.0777 -0.8225  0.1664
 7769TIP3    H144798   6.603   0.580   1.463  0.0080 -0.8275  0.1760
 7769TIP3    H244799   6.561   0.494   1.581 -1.1019 -0.8240 -0.2158
 7770TIP3   OH244800   0.022   3.615  17.067 -0.5454 -0.1059  0.4013
 7770TIP3    H144801   0.105   3.657  17.089 -1.2685  1.0941  0.8811
 7770TIP3    H244802   0.018   3.617  16.971 -0.8878  1.6053  0.4205
 7771TIP3   OH244803   1.564   0.602  13.440 -0.3980  0.6164 -0.2403
 7771TIP3    H144804   1.496   0.663  13.413 -2.1191 -1.2587 -0.2688
 7771TIP3    H244805   1.591   0.632  13.526 -2.4839  0.4104  0.5149
 7772TIP3   OH244806   0.491   4.240   3.481 -0.1711  0.4669 -0.1283
 7772TIP3    H144807   0.419   4.300   3.464 -1.3695 -1.1091 -0.7855
 7772TIP3    H244808   0.458   4.184   3.552  0.4993 -0.1194 -0.2769
 7773TIP3   OH244809   0.189   0.258  12.045 -0.3288 -0.2330 -0.3433
 7773TIP3    H144810   0.203   0.350  12.024  0.1607 -0.0154  0.8859
 7773TIP3    H244811   0.277   0.221  12.053 -0.4414 -0.0547  2.2741
 7774TIP3   OH244812   5.627   0.443  12.017  0.3033 -0.2490  0.7983
 7774TIP3    H144813   5.604   0.403  12.101  1.2483 -1.2118  0.6063
 7774TIP3    H244814   5.722   0.432  12.010  0.2763  0.1074 -0.2483
 7775TIP3   OH244815   6.514   4.454  15.036  0.3173  0.0880  0.4321
 7775TIP3    H144816   6.493   4.361  15.041  1.4324 -0.2348 -0.7946
 7775TIP3    H244817   6.462   4.486  14.962  0.9827  0.1452 -0.0143
 7776TIP3   OH244818   5.608   6.299  17.111 -0.1427  0.3870  0.3695
 7776TIP3    H144819   5.557   6.362  17.058 -0.2562  0.9701  1.1589
 7776TIP3    H244820   5.614   6.222  17.056 -0.6437  0.8334 -0.3300
 7777TIP3   OH244821   5.710   0.331   0.940 -0.0920  0.3066  0.7215
 7777TIP3    H144822   5.792   0.346   0.985 -0.5688 -1.1069  2.1164
 7777TIP3    H244823   5.718   0.380   0.858  2.1603  0.1110  0.7928
 7778TIP3   OH244824   3.841   1.539  15.572  0.0518  0.0708 -0.1545
 7778TIP3    H144825   3.784   1.479  15.524 -0.9135 -0.1427  1.2344
 7778TIP3    H244826   3.822   1.625  15.535  0.5209 -0.3013 -1.2862
 7779TIP3   OH244827   4.947   1.010  12.176  0.1091  0.0281  0.9515
 7779TIP3    H144828   4.858   1.031  12.149  1.4509  0.8480 -3.1444
 7779TIP3    H244829   4.963   0.922  12.141  0.8465 -0.1941  1.8285
 7780TIP3   OH244830   3.033   1.015  14.904  0.0839 -0.2690  0.1184
 7780TIP3    H144831   3.009   1.083  14.840  0.6580 -0.5487 -0.4021
 7780TIP3    H244832   2.970   1.025  14.975 -1.4081 -0.8298 -1.1062
 7781TIP3   OH244833   1.603   0.662  16.127 -0.3850 -0.2079  0.0298
 7781TIP3    H144834   1.554   0.587  16.095 -0.6314  0.8653 -2.2202
 7781TIP3    H244835   1.689   0.654  16.086  0.2517 -0.2985  1.3370
 7782TIP3   OH244836   0.542   1.433  15.643  0.3748  0.3277  0.2456
 7782TIP3    H144837   0.522   1.522  15.614 -0.1424 -0.4458 -1.9327
 7782TIP3    H244838   0.486   1.419  15.719 -0.1507  1.5675  0.0974
 7783TIP3   OH244839   6.293   4.014   2.436 -0.1398  0.4243 -0.2569
 7783TIP3    H144840   6.226   4.061   2.486  0.5417  1.7159 -0.5408
 7783TIP3    H244841   6.279   3.922   2.458 -2.4809  0.6109 -0.9039
 7784TIP3   OH244842   3.666   6.283   1.907 -0.7768  0.4948  0.4932
 7784TIP3    H144843   3.748   6.278   1.956 -0.0212 -1.4477 -0.9259
 7784TIP3    H244844   3.639   6.192   1.895 -2.5161  1.0614 -0.1060
 7785TIP3   OH244845   1.424   0.117   3.852  0.5045 -0.3772 -0.0022
 7785TIP3    H144846   1.494   0.144   3.912  1.0594 -0.3203 -0.6742
 7785TIP3    H244847   1.403   0.027   3.877 -1.5337  0.7045  2.4364
 7786TIP3   OH244848   5.944   4.557   1.571 -0.1474  0.2954  0.9465
 7786TIP3    H144849   5.956   4.605   1.489 -2.2312 -0.6831  0.0293
 7786TIP3    H244850   5.852   4.529   1.569  0.4146 -1.7766  2.5054
 7787TIP3   OH244851   2.509   1.786  11.783  0.3102 -0.3162 -0.4346
 7787TIP3    H144852   2.508   1.731  11.861  1.4373 -0.1506 -0.2857
 7787TIP3    H244853   2.441   1.851  11.797  1.5689  0.7065  1.1495
 7788TIP3   OH244854   5.803   0.927  11.514  0.3033 -0.5256 -0.0707
 7788TIP3    H144855   5.753   0.953  11.591  0.5761 -2.2915  0.7290
 7788TIP3    H244856   5.893   0.953  11.533  0.0847  0.5867 -0.5350
 7789TIP3   OH244857   6.672   1.584  16.368 -0.5803  0.1714 -0.1974
 7789TIP3    H144858   6.656   1.513  16.430 -1.4753  0.7670  0.2704
 7789TIP3    H244859   6.672   1.663  16.423  3.6751  0.2804 -0.1892
 7790TIP3   OH244860   2.433   0.391   5.107 -0.3860  0.0679 -0.1329
 7790TIP3    H144861   2.352   0.400   5.057 -1.2055  0.1372  1.1751
 7790TIP3    H244862   2.421   0.311   5.158  0.4878 -0.0749 -0.1457
 7791TIP3   OH244863   6.525   1.414   5.921 -0.3114  0.4128  0.0468
 7791TIP3    H144864   6.617   1.420   5.893  0.1532  0.9043  1.6061
 7791TIP3    H244865   6.479   1.478   5.867  0.5863  1.4260  0.4510
 7792TIP3   OH244866   0.590   5.837   0.296 -0.0092 -0.3059 -0.1188
 7792TIP3    H144867   0.655   5.816   0.229 -1.0284 -1.9990 -0.6252
 7792TIP3    H244868   0.558   5.751   0.325 -0.0245  0.4198  2.1106
 7793TIP3   OH244869   6.291   0.469   3.281 -0.9078  0.2006  0.1255
 7793TIP3    H144870   6.271   0.446   3.190 -0.6141 -0.4524  0.2231
 7793TIP3    H244871   6.261   0.394   3.332 -1.6402  0.8322  0.6314
 7794TIP3   OH244872   0.343   1.297   3.449  0.5973  0.3947  0.2292
 7794TIP3    H144873   0.296   1.380   3.445 -1.2541 -0.6773 -1.8898
 7794TIP3    H244874   0.360   1.274   3.358 -0.3926 -2.3106  0.6692
 7795TIP3   OH244875   1.308   3.458  14.083 -0.5380  0.3438  0.6477
 7795TIP3    H144876   1.217   3.467  14.111 -0.4658  2.5094  0.2225
 7795TIP3    H244877   1.356   3.523  14.135  0.4315  0.7101 -0.6681
 7796TIP3   OH244878   2.819   0.417  12.420 -0.1894 -0.9312  0.3352
 7796TIP3    H144879   2.842   0.510  12.428  1.2596 -1.2551  0.0263
 7796TIP3    H244880   2.787   0.393  12.507  0.1012 -0.3157  0.6170
 7797TIP3   OH244881   0.888   1.478   2.498  0.2126  0.8191 -0.0057
 7797TIP3    H144882   0.983   1.492   2.503  0.4871 -1.6572  3.1555
 7797TIP3    H244883   0.876   1.431   2.415  1.8054  0.8269 -0.2691
 7798TIP3   OH244884   6.237   3.743   4.197  0.4039  0.2519 -0.2681
 7798TIP3    H144885   6.205   3.653   4.184  0.8929 -0.2129  1.5992
 7798TIP3    H244886   6.277   3.766   4.113 -0.4212 -0.9888 -1.0247
 7799TIP3   OH244887   5.799   3.243   3.408  0.0738 -0.1961  0.0278
 7799TIP3    H144888   5.809   3.338   3.403  1.7654 -0.3007  0.9904
 7799TIP3    H244889   5.705   3.230   3.418 -0.1340  1.4175  0.4267
 7800TIP3   OH244890   4.468   0.694  12.585 -0.1700 -0.6713  0.6233
 7800TIP3    H144891   4.461   0.789  12.583 -0.5100 -0.6914  0.7465
 7800TIP3    H244892   4.553   0.675  12.547 -0.3239 -0.3433  0.1091
 7801TIP3   OH244893   0.983   2.873  14.788  0.2191  0.3205 -0.0100
 7801TIP3    H144894   1.021   2.915  14.712  2.4343 -0.5038  0.6156
 7801TIP3    H244895   0.964   2.783  14.759  0.3377  0.2300  0.1935
 7802TIP3   OH244896   0.775   3.397  13.198  0.1580  0.4962 -0.4749
 7802TIP3    H144897   0.826   3.379  13.119  0.6719  2.1172 -0.5349
 7802TIP3    H244898   0.817   3.344  13.266  0.5641  0.1368 -1.0009
 7803TIP3   OH244899   2.998   3.458  16.079 -0.6800  0.1986 -0.4913
 7803TIP3    H144900   3.053   3.397  16.128 -0.5579  0.2612 -0.5489
 7803TIP3    H244901   3.053   3.536  16.067 -1.0611  0.5714  0.1494
 7804TIP3   OH244902   4.899   0.566  11.522  0.1384  0.0777  0.3412
 7804TIP3    H144903   4.927   0.642  11.572 -0.7710  1.2380 -0.8808
 7804TIP3    H244904   4.860   0.602  11.442 -0.1712 -1.6649 -0.3293
 7805TIP3   OH244905   2.967   0.339  11.529  0.4593 -0.5252 -0.7792
 7805TIP3    H144906   3.025   0.264  11.519  0.7816 -0.4787  0.6931
 7805TIP3    H244907   2.885   0.312  11.487  1.0240 -1.1770 -1.4722
 7806TIP3   OH244908   6.506   3.114   3.749 -0.2063 -0.2032  0.1191
 7806TIP3    H144909   6.562   3.058   3.803  0.7916 -0.4491 -1.1425
 7806TIP3    H244910   6.486   3.061   3.671  1.4778  1.4612 -1.5091
 7807TIP3   OH244911   6.023   5.792  12.150 -0.1013  0.0261 -0.1650
 7807TIP3    H144912   6.035   5.883  12.122 -1.0992  0.4373  0.7039
 7807TIP3    H244913   6.038   5.794  12.245 -0.1239 -0.7149 -0.1408
 7808TIP3   OH244914   0.036   2.843   1.797 -0.3036  0.4557  0.4848
 7808TIP3    H144915  -0.036   2.856   1.734  0.4343 -0.2362 -0.5014
 7808TIP3    H244916   0.073   2.931   1.807 -0.6336  0.6349  0.2108
 7809TIP3   OH244917   3.854   6.106   3.349 -0.6123  0.6912  0.0267
 7809TIP3    H144918   3.853   6.200   3.365  0.7500  0.5702  0.9044
 7809TIP3    H244919   3.830   6.097   3.257  1.4802  2.0467 -0.6820
 7810TIP3   OH244920   0.793   2.181  13.392  0.5158 -0.2954  0.3426
 7810TIP3    H144921   0.844   2.176  13.311  0.3204  1.4883  0.0896
 7810TIP3    H244922   0.714   2.230  13.368 -0.7174 -1.8925  1.0431
 7811TIP3   OH244923   0.232   4.627  13.822  0.0419  0.1224 -0.4784
 7811TIP3    H144924   0.242   4.673  13.739  1.6579 -0.6791 -0.7563
 7811TIP3    H244925   0.322   4.612  13.852 -0.5245  0.5730  1.5146
 7812TIP3   OH244926   5.354   2.466   3.588  0.2628 -0.1225 -0.0968
 7812TIP3    H144927   5.377   2.383   3.630  0.2537  0.2077  0.5843
 7812TIP3    H244928   5.436   2.516   3.588  0.2057 -0.0294 -0.2544
 7813TIP3   OH244929   4.359   4.130  16.838  0.3268  0.1304  0.6568
 7813TIP3    H144930   4.409   4.212  16.832 -0.7193  1.0532  3.3972
 7813TIP3    H244931   4.310   4.125  16.756 -0.2736  2.7369  0.8242
 7814TIP3   OH244932   1.862   1.047  12.929  0.0983  0.3540 -0.1360
 7814TIP3    H144933   1.893   1.138  12.937 -2.1932  1.1740 -0.0993
 7814TIP3    H244934   1.916   0.998  12.990  0.8299  1.8425  0.4477
 7815TIP3   OH244935   0.464   3.856   2.576  0.1435 -0.1570  0.2147
 7815TIP3    H144936   0.459   3.761   2.568 -1.6154 -0.0158 -0.8035
 7815TIP3    H244937   0.446   3.874   2.668 -0.0350 -0.7898  0.3030
 7816TIP3   OH244938   5.542   5.811  11.340  0.1186 -0.6929 -0.8978
 7816TIP3    H144939   5.454   5.776  11.332  0.1655 -0.9173 -0.4370
 7816TIP3    H244940   5.531   5.905  11.334 -0.6258 -0.4609  3.2260
 7817TIP3   OH244941   6.203   4.658  11.201  0.6088  0.3122 -0.0207
 7817TIP3    H144942   6.231   4.639  11.111 -1.9593 -2.4904 -0.2976
 7817TIP3    H244943   6.137   4.726  11.191 -0.1261 -0.4335 -0.3565
 7818TIP3   OH244944   4.275   2.246   5.567  0.0410  0.4824 -0.7294
 7818TIP3    H144945   4.311   2.184   5.631 -1.1460 -0.3723 -0.8801
 7818TIP3    H244946   4.351   2.276   5.517  0.4789 -1.8077 -1.4749
 7819TIP3   OH244947   0.900   1.118  12.667 -0.5949  0.6294 -0.0682
 7819TIP3    H144948   0.891   1.025  12.646 -1.5705  0.1131  2.4456
 7819TIP3    H244949   0.812   1.145  12.693 -0.5644  2.5683 -1.8306
 7820TIP3   OH244950   6.292   0.700   4.471 -0.1444 -0.1872 -0.0258
 7820TIP3    H144951   6.271   0.625   4.527  1.4639  0.0845  0.9774
 7820TIP3    H244952   6.208   0.744   4.458 -0.9718 -1.6844  0.0661
 7821TIP3   OH244953   3.729   3.423  11.243 -1.0065 -0.1283 -0.2352
 7821TIP3    H144954   3.638   3.409  11.216 -1.2192 -0.6472  0.7569
 7821TIP3    H244955   3.737   3.377  11.327  0.2464 -0.3152 -0.4513
 7822TIP3   OH244956   0.906   2.481   3.025 -0.0687 -0.0895  0.3778
 7822TIP3    H144957   0.858   2.403   2.997 -0.1727  0.6263 -1.4735
 7822TIP3    H244958   0.994   2.449   3.045 -0.1922 -0.7395 -0.1126
 7823TIP3   OH244959   1.347   0.587   1.326 -0.2011 -1.0141 -0.0119
 7823TIP3    H144960   1.408   0.649   1.364  0.2495 -0.7218 -1.1781
 7823TIP3    H244961   1.269   0.639   1.307 -0.3799 -1.1332  0.3875
 7824TIP3   OH244962   1.659   4.428  16.746  0.4114  0.3315  0.0297
 7824TIP3    H144963   1.726   4.490  16.718  1.6147  0.2447  2.5088
 7824TIP3    H244964   1.586   4.483  16.773  0.4941  0.5633 -0.2176
 7825TIP3   OH244965   5.382   6.134  13.568  0.0944  0.5443 -0.2396
 7825TIP3    H144966   5.457   6.145  13.627  0.2226 -0.0983 -0.2740
 7825TIP3    H244967   5.355   6.043  13.581 -0.9808  0.9148  0.1117
 7826TIP3   OH244968   0.138   1.076   5.410  0.1473  0.3255  0.3894
 7826TIP3    H144969   0.066   1.078   5.346 -0.3979  0.9925  1.0090
 7826TIP3    H244970   0.217   1.067   5.357 -0.3254  0.5515 -0.3669
 7827TIP3   OH244971   2.634   0.063   0.076 -0.7578  0.4774 -0.3572
 7827TIP3    H144972   2.712   0.015   0.047 -2.0801 -1.7089 -0.4383
 7827TIP3    H244973   2.666   0.126   0.141  1.1019 -0.2046 -0.6047
 7828TIP3   OH244974   5.768   3.079   0.684 -0.0679 -0.7263  0.4873
 7828TIP3    H144975   5.787   3.062   0.776  1.3751  0.1289  0.3661
 7828TIP3    H244976   5.818   3.013   0.636 -0.8076 -1.1635  0.3061
 7829TIP3   OH244977   1.287   6.036   5.228  1.0134 -0.0665 -0.3869
 7829TIP3    H144978   1.309   6.063   5.318 -0.3534 -2.0787  0.5836
 7829TIP3    H244979   1.330   6.101   5.173 -1.3367  3.5729  1.7964
 7830TIP3   OH244980   4.113   5.472  11.273  0.3160  0.1111  0.1348
 7830TIP3    H144981   4.137   5.562  11.294  1.1885 -0.4355  1.5264
 7830TIP3    H244982   4.192   5.434  11.237 -0.4845  0.3189 -1.9406
 7831TIP3   OH244983   5.665   5.839   4.622  0.0298  0.5589  0.4974
 7831TIP3    H144984   5.623   5.807   4.542 -0.2198 -0.5651  1.0686
 7831TIP3    H244985   5.638   5.777   4.690 -0.2030  1.8230  1.5677
 7832TIP3   OH244986   2.043   1.645   3.904 -0.1316 -0.1823 -0.1110
 7832TIP3    H144987   2.046   1.660   3.999 -1.9273  1.1029 -0.2259
 7832TIP3    H244988   2.068   1.554   3.893  0.2884 -0.2806  1.5976
 7833TIP3   OH244989   6.782   2.951   4.146 -0.0803 -0.3297  0.1966
 7833TIP3    H144990   6.825   3.036   4.151 -0.1019 -0.2806 -0.3873
 7833TIP3    H244991   6.773   2.923   4.237  0.4127  0.0482  0.3638
 7834TIP3   OH244992   5.518   6.090   4.681 -0.4008  0.3038  0.1745
 7834TIP3    H144993   5.430   6.057   4.700 -1.2023  0.0422 -3.5801
 7834TIP3    H244994   5.575   6.014   4.691 -0.7973  0.1335  1.2008
 7835TIP3   OH244995   1.128   0.638  14.338 -0.3560 -0.4904  0.0067
 7835TIP3    H144996   1.055   0.582  14.311 -0.3479  1.2796 -4.0359
 7835TIP3    H244997   1.203   0.578  14.343 -1.1196 -1.5056 -0.4098
 7836TIP3   OH244998   0.586   5.158   5.912 -0.4246  0.2555 -0.3554
 7836TIP3    H144999   0.583   5.176   6.006  1.6668  1.3735 -0.4801
 7836TIP3    H245000   0.599   5.063   5.906  0.2691  0.2954  0.4909
 7837TIP3   OH245001   5.387   4.002  16.554 -0.3450 -0.7077  0.0294
 7837TIP3    H145002   5.380   4.097  16.565  1.1950 -0.6558  0.6116
 7837TIP3    H245003   5.377   3.988  16.460  0.6594  0.1459 -0.2131
 7838TIP3   OH245004   1.253   6.370   5.929 -0.4277 -0.2563 -0.3745
 7838TIP3    H145005   1.189   6.351   5.999 -0.4973  1.9117  0.1738
 7838TIP3    H245006   1.209   6.341   5.849 -2.2897  1.5695 -0.0534
 7839TIP3   OH245007   0.402   5.844   1.848 -0.1842 -0.2669 -0.0741
 7839TIP3    H145008   0.396   5.939   1.838  1.4266 -0.2868 -1.4834
 7839TIP3    H245009   0.343   5.809   1.781  0.0781 -0.2544 -0.3159
 7840TIP3   OH245010   6.162   0.215   1.619 -0.4281 -0.2242 -0.2550
 7840TIP3    H145011   6.134   0.306   1.632  0.6319  0.2687 -1.3256
 7840TIP3    H245012   6.257   0.217   1.632 -0.0187 -0.6364 -2.9275
 7841TIP3   OH245013   3.472   3.160  16.099 -0.4038 -0.1136  0.2253
 7841TIP3    H145014   3.557   3.204  16.107 -0.2768 -0.6318  1.9176
 7841TIP3    H245015   3.491   3.078  16.054 -0.1530  0.1895 -0.2210
 7842TIP3   OH245016   6.505   5.381   0.249 -0.4973 -0.1310  0.0395
 7842TIP3    H145017   6.585   5.395   0.199 -1.1124 -1.2840 -1.2731
 7842TIP3    H245018   6.535   5.344   0.332  0.4375  0.7539  0.1008
 7843TIP3   OH245019   1.427   3.141  12.142 -0.7305 -0.3459 -0.2797
 7843TIP3    H145020   1.436   3.231  12.111 -0.4459  0.1193  1.1148
 7843TIP3    H245021   1.335   3.134  12.170 -0.7426 -0.4880 -0.3495
 7844TIP3   OH245022   2.915   5.926  14.850  0.7834  0.2432  0.3589
 7844TIP3    H145023   2.951   5.868  14.917  0.1416  0.1141  0.5975
 7844TIP3    H245024   2.981   5.994  14.838  1.0885  0.0251  0.8114
 7845TIP3   OH245025   5.442   0.893   0.579 -0.2456  0.5750  0.0606
 7845TIP3    H145026   5.509   0.919   0.643  0.9218  0.6803 -1.1960
 7845TIP3    H245027   5.488   0.890   0.496 -1.8077  0.6184 -0.8182
 7846TIP3   OH245028   2.121   0.424   3.714 -0.0365 -0.2119  0.1524
 7846TIP3    H145029   2.151   0.367   3.644 -1.0160 -1.3436  0.6448
 7846TIP3    H245030   2.121   0.369   3.792 -2.2089  0.0751  0.3829
 7847TIP3   OH245031   2.762   3.047  14.734 -0.2205  0.3929  0.3197
 7847TIP3    H145032   2.756   2.978  14.668 -2.1295  1.2368 -0.4180
 7847TIP3    H245033   2.681   3.040  14.784 -0.3511  1.9747  0.3561
 7848TIP3   OH245034   2.084   1.330  14.580  0.5627 -0.6770  0.5882
 7848TIP3    H145035   1.992   1.329  14.606  0.6543 -1.4295  0.8739
 7848TIP3    H245036   2.083   1.360  14.489  0.0664 -0.2890  0.7227
 7849TIP3   OH245037   4.837   2.442  15.470  0.1086 -0.3071  0.6363
 7849TIP3    H145038   4.921   2.404  15.442 -0.0017 -0.8597  1.0539
 7849TIP3    H245039   4.839   2.531  15.435 -0.9252 -1.6040 -2.9317
 7850TIP3   OH245040   0.386   3.877  16.384 -0.3644 -0.3361  0.0924
 7850TIP3    H145041   0.377   3.946  16.450 -0.1915 -0.3835  0.1650
 7850TIP3    H245042   0.404   3.924  16.303 -1.2734 -0.2338 -0.0625
 7851TIP3   OH245043   0.143   3.263   6.213 -0.4680  0.1110  0.2200
 7851TIP3    H145044   0.145   3.287   6.306 -1.4487 -0.1391  0.3121
 7851TIP3    H245045   0.089   3.184   6.210 -0.3430  0.0534 -0.5502
 7852TIP3   OH245046   5.931   1.535  12.107 -0.0509  0.3973 -0.9981
 7852TIP3    H145047   5.843   1.525  12.142 -0.4760  2.5133 -1.4151
 7852TIP3    H245048   5.968   1.609  12.155  1.8448 -1.0798 -0.1554
 7853TIP3   OH245049   1.131   5.310  16.034  0.2100 -0.2604  0.1359
 7853TIP3    H145050   1.152   5.233  16.088  0.1089  0.5552  1.3621
 7853TIP3    H245051   1.212   5.360  16.032 -0.1566  0.3627  0.6340
 7854TIP3   OH245052   1.649   1.997   1.519  0.1792 -0.3235 -0.0890
 7854TIP3    H145053   1.710   2.027   1.451  0.6747 -0.4148  0.3158
 7854TIP3    H245054   1.563   2.001   1.477  0.5108 -0.6246 -0.8093
 7855TIP3   OH245055   5.424   2.179  15.151  0.2422  0.0052 -0.5427
 7855TIP3    H145056   5.461   2.253  15.199  1.1186 -0.0922 -1.0590
 7855TIP3    H245057   5.440   2.103  15.206 -0.4000  0.1498 -0.1473
 7856TIP3   OH245058   0.818   5.074  15.958 -0.5206 -0.0795 -0.9168
 7856TIP3    H145059   0.802   4.992  16.005 -0.1000 -0.7424 -1.9067
 7856TIP3    H245060   0.731   5.110  15.941 -0.6537  0.5136  0.9524
 7857TIP3   OH245061   5.112   3.473   1.022 -0.0004  0.1169 -0.4162
 7857TIP3    H145062   5.069   3.531   0.959  0.6456  0.4347 -0.5633
 7857TIP3    H245063   5.103   3.518   1.106  1.6909  1.0971 -0.7373
 7858TIP3   OH245064   6.715   5.414   0.057 -0.3164 -0.3107 -0.1601
 7858TIP3    H145065   6.674   5.498   0.036  0.3290  0.2715  0.8795
 7858TIP3    H245066   6.802   5.420   0.019 -0.3821 -0.6428 -0.3625
 7859TIP3   OH245067   5.870   0.137   3.564  0.6623  0.5136  0.2031
 7859TIP3    H145068   5.928   0.156   3.490  0.0960  0.9698 -0.1319
 7859TIP3    H245069   5.783   0.130   3.525  0.8462 -3.0381  0.2811
 7860TIP3   OH245070   1.733   1.809  12.936  0.0697 -0.1255 -0.0811
 7860TIP3    H145071   1.701   1.757  13.010 -1.2417 -0.5958 -0.9570
 7860TIP3    H245072   1.773   1.886  12.977  2.4260 -1.9761  1.2635
 7861TIP3   OH245073   1.357   1.102   5.615 -0.6171 -0.1859  0.6781
 7861TIP3    H145074   1.310   1.122   5.534 -0.0689 -0.9081  0.1737
 7861TIP3    H245075   1.414   1.178   5.628  1.3515 -1.2990 -1.1464
 7862TIP3   OH245076   1.374   5.089  12.903 -0.3018 -0.1186  0.2516
 7862TIP3    H145077   1.396   5.136  12.983 -1.1898  2.5555 -1.0200
 7862TIP3    H245078   1.457   5.052  12.873  0.2522 -0.1474  1.7534
 7863TIP3   OH245079   0.589   2.687   3.640 -0.1078 -0.1893  0.4919
 7863TIP3    H145080   0.590   2.677   3.545 -4.7022 -0.5519  0.3593
 7863TIP3    H245081   0.601   2.598   3.673 -2.9370 -0.7734  0.0856
 7864TIP3   OH245082   1.727   0.332   4.537  0.1380 -0.7536  0.8457
 7864TIP3    H145083   1.731   0.426   4.555 -0.6316 -0.9003  1.8249
 7864TIP3    H245084   1.640   0.305   4.569 -0.1148 -1.5750 -0.4700
 7865TIP3   OH245085   3.122   1.963   2.094  0.2544  0.3392  0.6959
 7865TIP3    H145086   3.118   1.894   2.028  0.0044  0.3112  0.7380
 7865TIP3    H245087   3.141   2.043   2.044 -1.6143  0.6067  0.3723
 7866TIP3   OH245088   2.903   5.143   1.861  0.3614 -0.5776 -0.0629
 7866TIP3    H145089   2.814   5.152   1.826 -0.3239 -0.2407  1.7311
 7866TIP3    H245090   2.891   5.121   1.953  2.1305  1.3074  0.6591
 7867TIP3   OH245091   6.406   3.929   0.060 -0.1766  0.1756 -0.2899
 7867TIP3    H145092   6.371   3.883  -0.015  0.5836 -0.1820 -0.4337
 7867TIP3    H245093   6.415   4.020   0.031 -0.8823  0.2449 -0.2812
 7868TIP3   OH245094   0.222   1.371  15.136 -0.0424 -0.7719 -0.3429
 7868TIP3    H145095   0.151   1.370  15.072  0.1570 -1.2186 -0.5629
 7868TIP3    H245096   0.281   1.440  15.106 -1.4432  1.0547  1.0230
 7869TIP3   OH245097   0.435   3.885   1.223 -0.0730 -0.2755 -0.2016
 7869TIP3    H145098   0.526   3.860   1.239 -0.6809 -2.5269  0.0437
 7869TIP3    H245099   0.412   3.841   1.141 -0.3824  1.8689 -1.3028
 7870TIP3   OH245100   3.997   3.621  12.505 -0.0096  0.3267 -0.0439
 7870TIP3    H145101   3.995   3.644  12.412 -0.8864  1.3640  0.2107
 7870TIP3    H245102   3.953   3.695  12.548 -2.4500 -1.6049  0.8850
 7871TIP3   OH245103   2.428   2.923   3.928  0.4470 -0.2393 -0.1224
 7871TIP3    H145104   2.503   2.863   3.926  0.4080 -0.4177  2.3949
 7871TIP3    H245105   2.382   2.901   4.009  0.9650  3.8442  1.3438
 7872TIP3   OH245106   0.316   4.931   5.706 -0.3230 -0.0544  0.1887
 7872TIP3    H145107   0.290   5.011   5.660  1.0985  0.4695  0.2587
 7872TIP3    H245108   0.302   4.861   5.642 -0.0769  0.4447 -0.4168
 7873TIP3   OH245109   4.942   0.052  13.884 -0.1077 -0.0794  0.2380
 7873TIP3    H145110   4.972   0.140  13.906  0.9216 -0.4626  0.3563
 7873TIP3    H245111   4.867   0.037  13.942 -1.0187  1.1672 -0.5940
 7874TIP3   OH245112   4.167   2.756  12.805  0.1972  0.1324  0.6317
 7874TIP3    H145113   4.099   2.697  12.774 -0.0244  1.6530 -1.8966
 7874TIP3    H245114   4.134   2.844  12.786  2.8695  0.9128 -0.7004
 7875TIP3   OH245115   3.864   3.338  15.677 -0.1611  0.1731  0.2655
 7875TIP3    H145116   3.831   3.293  15.755  0.2063  0.1985  0.4378
 7875TIP3    H245117   3.786   3.360  15.627 -0.4260  0.4952  0.8143
 7876TIP3   OH245118   0.535   3.242  11.207 -0.1441  0.3768  0.1339
 7876TIP3    H145119   0.540   3.277  11.118  1.3051  2.4682  1.0008
 7876TIP3    H245120   0.618   3.268  11.247 -0.5760 -0.9792  1.9383
 7877TIP3   OH245121   6.588   5.568  12.878 -0.5499  0.4258  0.2174
 7877TIP3    H145122   6.680   5.539  12.874 -0.1613  1.7986 -1.6644
 7877TIP3    H245123   6.559   5.565  12.787 -2.5400 -0.4351  0.8643
 7878TIP3   OH245124   3.190   1.278  15.161 -0.1079 -0.1076  0.2899
 7878TIP3    H145125   3.220   1.253  15.073  1.2449 -2.1727  1.2929
 7878TIP3    H245126   3.108   1.324  15.146  0.6221  0.4987 -2.1386
 7879TIP3   OH245127   2.368   4.105  15.398 -0.3524  0.1634 -0.1247
 7879TIP3    H145128   2.451   4.108  15.350 -0.7857 -1.6226 -1.0253
 7879TIP3    H245129   2.374   4.177  15.461  0.3774  2.2884 -2.5741
 7880TIP3   OH245130   1.385   1.546   6.248  0.2182  0.3446  0.6577
 7880TIP3    H145131   1.348   1.486   6.312 -0.8323  0.1913 -0.0913
 7880TIP3    H245132   1.326   1.621   6.247  2.1236  1.9212  2.4011
 7881TIP3   OH245133   5.544   0.667   0.393  0.3725  0.0199 -0.2356
 7881TIP3    H145134   5.636   0.691   0.388  0.1025  1.4052  1.3751
 7881TIP3    H245135   5.532   0.634   0.482 -0.8622  0.5649 -0.1889
 7882TIP3   OH245136   1.053   1.375  14.243 -0.0468 -0.3388 -0.4966
 7882TIP3    H145137   1.091   1.401  14.159 -1.3945  0.2112 -0.9449
 7882TIP3    H245138   1.104   1.298  14.269  0.4852 -0.4273 -1.7361
 7883TIP3   OH245139   6.312   5.109  11.527  0.3858  0.4126  0.0733
 7883TIP3    H145140   6.225   5.068  11.530  0.6713 -0.1429  1.1944
 7883TIP3    H245141   6.298   5.192  11.482 -0.9231  0.7874  1.1094
 7884TIP3   OH245142   2.286   2.294  16.269 -0.1176  0.1604  0.4738
 7884TIP3    H145143   2.283   2.248  16.185 -3.1260 -0.2302  0.7498
 7884TIP3    H245144   2.329   2.233  16.328  1.5800  0.2425 -0.6250
 7885TIP3   OH245145   4.663   4.492   2.404  0.0316  0.2413 -0.4358
 7885TIP3    H145146   4.650   4.520   2.495  0.8616  0.9905 -0.5436
 7885TIP3    H245147   4.752   4.458   2.402 -0.4145 -0.9233 -0.6904
 7886TIP3   OH245148   2.919   1.490  14.570  0.2047 -0.3167  0.1103
 7886TIP3    H145149   2.965   1.420  14.525 -0.4554 -0.7184  0.0433
 7886TIP3    H245150   2.830   1.456  14.583 -0.4586  0.9585 -0.9872
 7887TIP3   OH245151   0.639   1.098  14.497  0.4392  0.1795  0.5307
 7887TIP3    H145152   0.614   1.133  14.411  0.5430  1.7356  1.1194
 7887TIP3    H245153   0.578   1.139  14.558  0.9066 -0.2786  1.3078
 7888TIP3   OH245154   1.968   3.283   4.716 -0.0985 -0.1288  0.6708
 7888TIP3    H145155   1.978   3.332   4.635 -1.4557  0.8899  1.0974
 7888TIP3    H245156   1.994   3.194   4.694  0.1485  0.2750 -0.7096
 7889TIP3   OH245157   1.049   3.840   0.890  0.1144 -0.6335 -0.0035
 7889TIP3    H145158   1.068   3.747   0.901  0.1380 -0.3882  2.1679
 7889TIP3    H245159   0.984   3.859   0.957  1.2640  1.2819  0.5838
 7890TIP3   OH245160   2.614   4.447   6.282 -0.2960 -0.1917  0.5236
 7890TIP3    H145161   2.653   4.375   6.232  0.4490 -1.2969  2.5879
 7890TIP3    H245162   2.586   4.510   6.217  0.5106 -1.6409 -1.2706
 7891TIP3   OH245163   2.152   0.269  11.137  0.8358 -0.3601  0.2486
 7891TIP3    H145164   2.164   0.320  11.217  0.1179  0.8355 -0.4040
 7891TIP3    H245165   2.238   0.271  11.094  1.5948 -2.0921  1.5882
 7892TIP3   OH245166   6.296   2.126   3.138  0.5258  0.3304 -0.1489
 7892TIP3    H145167   6.285   2.204   3.083  1.0681 -0.2967 -1.1696
 7892TIP3    H245168   6.215   2.120   3.188 -1.1172 -0.5219 -2.7733
 7893TIP3   OH245169   6.564   6.472   3.702  0.1940  0.2005  0.6393
 7893TIP3    H145170   6.584   6.533   3.631 -2.1345  0.1463 -0.0839
 7893TIP3    H245171   6.477   6.497   3.732 -0.0531 -1.6409  1.5407
 7894TIP3   OH245172   1.533   2.192   2.121 -0.0404  0.0833 -0.2711
 7894TIP3    H145173   1.439   2.201   2.109  0.1633  1.3886 -0.9168
 7894TIP3    H245174   1.571   2.217   2.037  0.8894 -0.4156 -0.0110
 7895TIP3   OH245175   6.092   3.913  15.366  0.3339 -0.1368 -0.0133
 7895TIP3    H145176   6.057   3.824  15.376  0.2650  0.0449  1.4911
 7895TIP3    H245177   6.074   3.936  15.275 -1.2655 -0.9705  0.0843
 7896TIP3   OH245178   4.827   0.960   0.390  0.2353 -0.4705 -0.2033
 7896TIP3    H145179   4.856   1.017   0.318 -0.0436  0.0771  0.1186
 7896TIP3    H245180   4.857   0.873   0.364  0.7347 -0.1688 -0.6614
 7897TIP3   OH245181   0.639   4.533  12.698  0.1728 -0.4848  0.4408
 7897TIP3    H145182   0.605   4.444  12.702 -1.5315  0.2044  2.5188
 7897TIP3    H245183   0.718   4.531  12.753 -0.0662 -0.6563  0.7836
 7898TIP3   OH245184   6.648   3.770  15.442 -0.2231  0.7419 -0.4285
 7898TIP3    H145185   6.555   3.782  15.464 -0.3472 -0.3342 -0.3280
 7898TIP3    H245186   6.692   3.843  15.484 -0.9314  0.8000  0.2262
 7899TIP3   OH245187   4.083   4.428   1.407 -0.1624 -0.3278 -0.0727
 7899TIP3    H145188   4.007   4.470   1.367  0.4106 -0.1142 -0.9366
 7899TIP3    H245189   4.122   4.496   1.462  0.0275 -0.1098 -0.4768
 7900TIP3   OH245190   1.003   1.366   4.672 -0.5337  0.1933  0.5333
 7900TIP3    H145191   1.063   1.364   4.747 -0.2302  2.1027  0.3473
 7900TIP3    H245192   1.059   1.385   4.597 -1.2552  1.1682  0.2392
 7901TIP3   OH245193   4.678   6.102   3.131  0.7152  0.0156  0.0797
 7901TIP3    H145194   4.743   6.153   3.179  1.0412  0.6318 -0.9963
 7901TIP3    H245195   4.724   6.073   3.052 -0.1629 -0.0042 -0.4282
 7902TIP3   OH245196   0.085   1.785   1.311 -0.4853  0.5388  0.8411
 7902TIP3    H145197   0.170   1.793   1.267  0.3277  0.4712  2.3520
 7902TIP3    H245198   0.086   1.697   1.349 -1.2350  0.5288  0.8452
 7903TIP3   OH245199   4.547   2.698   3.792  0.2063 -0.4481 -0.1288
 7903TIP3    H145200   4.623   2.641   3.803 -0.3477 -1.2512 -0.3960
 7903TIP3    H245201   4.541   2.711   3.697 -0.2465 -0.7638 -0.1501
 7904TIP3   OH245202   3.949   3.217   4.572 -0.1497  0.3510  0.0843
 7904TIP3    H145203   3.855   3.219   4.585 -0.4177  0.5691 -1.7877
 7904TIP3    H245204   3.965   3.138   4.519  0.5187  1.1492 -0.9389
 7905TIP3   OH245205   4.357   0.143   5.068  0.2149 -0.2034  0.3814
 7905TIP3    H145206   4.423   0.155   4.999  1.6107 -3.1387  1.0959
 7905TIP3    H245207   4.288   0.091   5.026 -0.7149  1.1772  0.1847
 7906TIP3   OH245208   6.718   5.834  13.833  0.1189  0.4246 -0.5506
 7906TIP3    H145209   6.711   5.889  13.911  1.3169  0.6327 -0.5740
 7906TIP3    H245210   6.812   5.817  13.824 -0.0697 -0.1448 -1.5733
 7907TIP3   OH245211   5.871   3.962  12.366 -0.3702  0.0110 -0.0710
 7907TIP3    H145212   5.895   3.910  12.290  0.5647  0.0001  0.2171
 7907TIP3    H245213   5.806   4.024  12.334 -0.4359 -0.3983 -0.7361
 7908TIP3   OH245214   3.323   5.172   2.781 -0.1019 -0.7154 -0.7073
 7908TIP3    H145215   3.389   5.237   2.756 -0.2873 -0.2920 -0.1097
 7908TIP3    H245216   3.320   5.111   2.707 -0.7396  0.5916 -1.7856
 7909TIP3   OH245217   3.217   6.402  12.154  0.2343  0.4260  0.0065
 7909TIP3    H145218   3.166   6.479  12.181  0.6925  0.2740  1.3370
 7909TIP3    H245219   3.239   6.358  12.236 -0.0189 -1.1256 -0.7393
 7910TIP3   OH245220   3.679   6.601  11.610 -0.0393  0.2637 -0.0787
 7910TIP3    H145221   3.709   6.682  11.652  3.3531 -2.0068  2.1359
 7910TIP3    H245222   3.591   6.587  11.644 -0.0276  2.1518  0.7856
 7911TIP3   OH245223   0.817   6.447  11.967 -0.4914  0.3171  0.1972
 7911TIP3    H145224   0.794   6.414  11.880  1.4157  0.6584 -0.4579
 7911TIP3    H245225   0.804   6.542  11.960 -1.3813  0.2410  0.6411
 7912TIP3   OH245226   2.187   1.405  13.592 -0.5646  0.1967  0.3803
 7912TIP3    H145227   2.236   1.482  13.623 -0.8463  0.6876 -0.3863
 7912TIP3    H245228   2.235   1.375  13.515  0.1355 -1.0312  1.2768
 7913TIP3   OH245229   1.472   4.369  11.213 -0.7329 -0.3869  0.2548
 7913TIP3    H145230   1.461   4.277  11.188 -1.8002 -0.9743  2.7729
 7913TIP3    H245231   1.495   4.413  11.131 -0.5785 -2.8281 -1.0578
 7914TIP3   OH245232   2.808   5.705  11.139  0.3235  0.1437  0.3674
 7914TIP3    H145233   2.755   5.697  11.060 -1.4383 -0.1810  1.5656
 7914TIP3    H245234   2.883   5.648  11.123  0.9095  1.4663 -1.7920
 7915TIP3   OH245235   1.559   1.394   6.738  0.4684  0.0528  0.3550
 7915TIP3    H145236   1.616   1.468   6.761  0.7661 -0.6958  2.1276
 7915TIP3    H245237   1.615   1.338   6.683  0.8458  0.2309  0.5521
 7916TIP3   OH245238   5.209   4.172   5.005  0.3321  0.0168  1.2870
 7916TIP3    H145239   5.222   4.216   4.921  0.2471 -1.6175  0.3799
 7916TIP3    H245240   5.127   4.207   5.039  0.1040  0.3261  0.4290
 7917TIP3   OH245241   4.488   2.240   3.414  0.0983  0.0883  0.0161
 7917TIP3    H145242   4.419   2.206   3.471  1.7110 -1.9384  0.8289
 7917TIP3    H245243   4.503   2.171   3.350  1.6396  0.3122  0.1066
 7918TIP3   OH245244   0.409   4.739   3.335  0.1185 -0.2257  0.1883
 7918TIP3    H145245   0.461   4.793   3.276  2.3797 -1.7258  0.7713
 7918TIP3    H245246   0.384   4.798   3.406 -0.3101  0.8873 -0.8587
 7919TIP3   OH245247   6.539   4.327   2.069  0.3094 -0.1938 -0.5355
 7919TIP3    H145248   6.462   4.285   2.108  0.1257 -1.8510 -2.6050
 7919TIP3    H245249   6.507   4.412   2.038  0.1852  0.6537  1.7667
 7920TIP3   OH245250   2.653   3.266  13.427  0.1456  0.5421  0.1161
 7920TIP3    H145251   2.731   3.212  13.439 -0.6198 -0.0533  2.9109
 7920TIP3    H245252   2.584   3.203  13.404 -0.0123  0.7451  0.0312
 7921TIP3   OH245253   2.522   2.516  15.508 -0.2435 -0.5621  0.5133
 7921TIP3    H145254   2.491   2.544  15.594 -0.3826 -1.4807  0.7592
 7921TIP3    H245255   2.487   2.428  15.497 -0.5482 -0.2994 -0.6518
 7922TIP3   OH245256   1.412   0.888  15.379 -0.2364  0.0423 -0.2231
 7922TIP3    H145257   1.428   0.981  15.361  1.9437 -0.6864 -2.2951
 7922TIP3    H245258   1.470   0.868  15.452 -1.9086  0.6598  1.3142
 7923TIP3   OH245259   5.403   3.458   1.063 -0.1732  0.3053 -0.1575
 7923TIP3    H145260   5.427   3.535   1.012  0.1205 -2.0305 -3.6927
 7923TIP3    H245261   5.312   3.439   1.038 -0.8554  0.5126  2.0408
 7924TIP3   OH245262   0.818   5.266   4.487 -0.2532  0.1166  0.1295
 7924TIP3    H145263   0.797   5.293   4.576  0.1952 -1.0076  0.5818
 7924TIP3    H245264   0.876   5.190   4.497 -0.0367  0.0970 -1.1135
 7925TIP3   OH245265   2.550   5.968   5.401  0.2307  0.2644  0.2412
 7925TIP3    H145266   2.457   5.981   5.385  0.2645  0.0995 -0.0939
 7925TIP3    H245267   2.564   6.000   5.490  0.3705  2.7929 -0.6418
 7926TIP3   OH245268   1.527   0.797   1.178 -0.8661 -0.0676  0.2019
 7926TIP3    H145269   1.556   0.772   1.265 -0.3132 -0.5564 -0.1146
 7926TIP3    H245270   1.440   0.833   1.191 -0.6887  0.0920  0.9853
 7927TIP3   OH245271   1.548   6.482  12.242 -0.4660 -0.0817 -0.2977
 7927TIP3    H145272   1.507   6.397  12.259 -0.6989  0.1414  0.2889
 7927TIP3    H245273   1.630   6.461  12.198 -0.2258 -0.6453  0.4155
 7928TIP3   OH245274   3.072   6.751   3.953 -0.9006 -0.4652  0.1457
 7928TIP3    H145275   3.142   6.780   3.894 -1.1082 -0.3182 -0.0312
 7928TIP3    H245276   3.103   6.668   3.988 -0.5149 -0.2664  0.2787
 7929TIP3   OH245277   0.213   5.685   2.249 -0.5407 -0.0796  0.3729
 7929TIP3    H145278   0.152   5.667   2.177  0.2934 -1.0610 -0.1046
 7929TIP3    H245279   0.292   5.716   2.205 -0.4363  0.4546  0.9430
 7930TIP3   OH245280   2.719   1.206  15.057 -0.3794  0.0108  0.1928
 7930TIP3    H145281   2.795   1.154  15.083 -1.4493 -1.1513  1.0836
 7930TIP3    H245282   2.702   1.180  14.966 -1.3086 -1.7678  0.8328
 7931TIP3   OH245283   5.698   0.632   4.557 -0.4571  0.1312 -0.7783
 7931TIP3    H145284   5.760   0.670   4.619 -0.0433  0.6799 -1.5269
 7931TIP3    H245285   5.702   0.538   4.575 -0.6744  0.3256  0.3292
 7932TIP3   OH245286   3.964   3.505   0.962 -0.1810  0.1553 -0.2831
 7932TIP3    H145287   3.942   3.482   1.052  1.2497  2.0995  0.5815
 7932TIP3    H245288   4.053   3.471   0.950  0.0419  0.8602 -0.6249
 7933TIP3   OH245289   5.368   4.726  16.923  0.2443 -0.4080  0.0818
 7933TIP3    H145290   5.458   4.725  16.957  0.4994  0.9145 -0.5248
 7933TIP3    H245291   5.320   4.784  16.982  0.0119 -0.3575 -0.1545
 7934TIP3   OH245292   5.308   3.881   4.176 -0.2260  0.1991  0.1454
 7934TIP3    H145293   5.235   3.827   4.205  1.2419 -3.1553 -2.0426
 7934TIP3    H245294   5.301   3.880   4.080  1.4594  1.6019 -0.0129
 7935TIP3   OH245295   3.159   1.327  12.566  0.0685 -0.2987 -0.3398
 7935TIP3    H145296   3.099   1.401  12.563 -0.4162 -0.6855 -0.0561
 7935TIP3    H245297   3.243   1.366  12.593  0.2498  0.4310 -1.8473
 7936TIP3   OH245298   4.804   3.109   1.095  0.0553 -0.4993  0.4829
 7936TIP3    H145299   4.896   3.120   1.120 -0.3595 -0.2358  1.9307
 7936TIP3    H245300   4.808   3.072   1.007  1.5582 -0.8203  0.6638
 7937TIP3   OH245301   0.341   1.668  11.767 -0.6973  0.0740 -0.6546
 7937TIP3    H145302   0.253   1.703  11.753 -1.0180 -0.4564  0.0033
 7937TIP3    H245303   0.356   1.610  11.693 -0.9235  0.1311 -0.7441
 7938TIP3   OH245304   3.852   4.411   2.331 -0.2335 -0.0953  0.9575
 7938TIP3    H145305   3.867   4.406   2.237  2.2948 -1.3324  1.3659
 7938TIP3    H245306   3.774   4.358   2.346  0.2644 -1.2115 -0.2842
 7939TIP3   OH245307   4.552   4.265  13.641  0.2571 -0.0763 -0.9084
 7939TIP3    H145308   4.597   4.181  13.646 -1.7465 -1.1347  0.0521
 7939TIP3    H245309   4.594   4.311  13.569  0.3174 -2.5569 -2.5062
 7940TIP3   OH245310   0.624   3.865   4.603  0.4133  0.0214  0.1522
 7940TIP3    H145311   0.551   3.866   4.664  1.4567  1.3726  1.4366
 7940TIP3    H245312   0.678   3.791   4.632 -0.5937 -1.2082 -1.0258
 7941TIP3   OH245313   2.655   3.922  11.951 -0.1225 -0.1325  0.5466
 7941TIP3    H145314   2.672   4.001  11.900 -0.2862 -0.1093  0.5275
 7941TIP3    H245315   2.698   3.852  11.903  0.9579  0.1136  1.1276
 7942TIP3   OH245316   4.969   2.496  11.557 -0.0344 -0.4739  0.2177
 7942TIP3    H145317   5.002   2.584  11.543  1.0628 -0.7575  0.9574
 7942TIP3    H245318   5.036   2.438  11.522 -1.1732 -1.0138 -1.1235
 7943TIP3   OH245319   6.680   1.254  13.246  0.1659  0.1189 -0.0612
 7943TIP3    H145320   6.722   1.340  13.240 -0.1713  0.2758 -0.1892
 7943TIP3    H245321   6.698   1.212  13.162 -1.0672  0.7115 -0.6418
 7944TIP3   OH245322   4.441   4.676   4.226 -0.4259  0.3623  0.0893
 7944TIP3    H145323   4.378   4.746   4.245 -1.0046 -0.1531  0.1084
 7944TIP3    H245324   4.391   4.613   4.174 -0.2839 -0.6384  1.1344
 7945TIP3   OH245325   2.097   6.269   3.054  0.1692 -0.0025 -0.4779
 7945TIP3    H145326   2.134   6.306   2.974  0.3424 -0.5536 -0.6545
 7945TIP3    H245327   2.016   6.318   3.068  1.4459  1.9323  0.4746
 7946TIP3   OH245328   4.820   5.600  15.922  0.1278 -0.0644  0.0441
 7946TIP3    H145329   4.887   5.658  15.886  0.7357 -0.4509  0.5323
 7946TIP3    H245330   4.867   5.518  15.941 -0.7742 -0.8007 -0.8759
 7947TIP3   OH245331   6.422   5.226   1.617  0.0887  0.5076  0.3715
 7947TIP3    H145332   6.431   5.321   1.628  2.3075  0.1523  1.7626
 7947TIP3    H245333   6.511   5.192   1.624 -0.7073 -1.7136  0.0771
 7948TIP3   OH245334   3.045   5.498   5.468 -0.2445 -0.1671 -0.1612
 7948TIP3    H145335   3.097   5.537   5.398 -1.5734 -1.3407 -1.8430
 7948TIP3    H245336   3.101   5.503   5.546  1.7364  0.0349 -1.5676
 7949TIP3   OH245337   1.500   3.344  16.197  0.3102  0.1833  0.0910
 7949TIP3    H145338   1.577   3.375  16.245  0.4499  1.0348 -0.6741
 7949TIP3    H245339   1.515   3.250  16.186  1.9592  0.5906 -1.3345
 7950TIP3   OH245340   2.798   0.012   2.553 -0.3790  0.2270  0.1964
 7950TIP3    H145341   2.776   0.103   2.572  0.9121  0.5500  0.2015
 7950TIP3    H245342   2.872  -0.007   2.610 -0.3443 -0.6787 -0.1480
 7951TIP3   OH245343   5.150   5.853   6.652  0.1623 -0.2734  0.0485
 7951TIP3    H145344   5.059   5.868   6.678  0.2004 -1.9324  1.1899
 7951TIP3    H245345   5.155   5.759   6.633  1.3179  0.0437 -1.3422
 7952TIP3   OH245346   5.834   3.715   1.985  0.3701  0.2441 -0.3312
 7952TIP3    H145347   5.854   3.736   2.076  0.1651 -1.5207  0.1410
 7952TIP3    H245348   5.917   3.724   1.939  1.1181 -1.6311  0.5857
 7953TIP3   OH245349   3.525   4.672   5.391 -0.1123  0.2919 -0.0918
 7953TIP3    H145350   3.573   4.610   5.447  1.3239  1.3615 -0.0993
 7953TIP3    H245351   3.590   4.701   5.327 -1.7537 -0.9105 -2.3358
 7954TIP3   OH245352   1.702   3.201  14.418  0.2475  0.5593 -0.4575
 7954TIP3    H145353   1.660   3.214  14.333  0.9378  0.9577 -0.7414
 7954TIP3    H245354   1.668   3.273  14.472 -1.3081 -0.5312  0.0441
 7955TIP3   OH245355   2.054   4.850   4.206  0.3615 -0.0611  0.0329
 7955TIP3    H145356   1.959   4.852   4.193  0.3013  1.7836  0.5464
 7955TIP3    H245357   2.086   4.790   4.139 -1.1198 -0.2455 -0.5370
 7956TIP3   OH245358   3.012   1.408   5.939  0.4126 -0.5617 -0.6806
 7956TIP3    H145359   3.091   1.368   5.902  2.0574  0.0786  2.0154
 7956TIP3    H245360   3.034   1.424   6.030 -2.3598  0.9768 -0.2344
 7957TIP3   OH245361   0.477   6.362  14.953  0.2170  0.2324 -0.3798
 7957TIP3    H145362   0.481   6.270  14.982  2.3496  0.1207 -0.9535
 7957TIP3    H245363   0.509   6.412  15.028 -3.1897  0.7584  0.8107
 7958TIP3   OH245364   4.657   2.838   2.465  0.0568 -0.2945 -0.3584
 7958TIP3    H145365   4.752   2.829   2.465  0.1454  0.3863  1.0997
 7958TIP3    H245366   4.625   2.750   2.445  0.9862 -0.7220 -0.0232
 7959TIP3   OH245367   2.970   1.629  16.906 -0.5370  0.7397  0.4922
 7959TIP3    H145368   2.946   1.562  16.970 -0.1680  1.4809  1.4263
 7959TIP3    H245369   3.066   1.634  16.912 -0.3251 -0.5213 -1.4907
 7960TIP3   OH245370   2.213   2.004   1.731 -0.1476  0.3349  0.5433
 7960TIP3    H145371   2.244   2.032   1.818  0.1450  0.6652  0.3317
 7960TIP3    H245372   2.117   2.002   1.740 -0.1087  0.0777  0.9618
 7961TIP3   OH245373   2.747   1.846  13.551  0.0460 -0.3497  0.3576
 7961TIP3    H145374   2.752   1.839  13.456  0.3588 -0.7047  0.4008
 7961TIP3    H245375   2.809   1.915  13.573 -3.4008  3.1048 -0.1109
 7962TIP3   OH245376   2.536   1.904  15.908 -0.1255  0.4976  0.4532
 7962TIP3    H145377   2.559   1.966  15.978 -0.0782  1.6437 -0.5707
 7962TIP3    H245378   2.620   1.867  15.882 -0.0109  0.9283  0.2065
 7963TIP3   OH245379   6.657   5.738  13.525 -0.3471  0.0327 -0.2124
 7963TIP3    H145380   6.659   5.814  13.583 -1.0807  0.2740 -0.4952
 7963TIP3    H245381   6.634   5.664  13.582 -2.0906  0.4351 -0.3554
 7964TIP3   OH245382   4.389   3.915  13.297 -0.4466 -0.2329 -0.8674
 7964TIP3    H145383   4.371   3.842  13.238 -2.4887 -0.1995 -0.3438
 7964TIP3    H245384   4.313   3.919  13.355  0.0808  1.6736 -0.2374
 7965TIP3   OH245385   4.840   5.475   5.044 -0.6937 -0.1781 -0.3484
 7965TIP3    H145386   4.808   5.476   5.134  1.1998 -0.8092  0.3701
 7965TIP3    H245387   4.841   5.382   5.020 -0.9143 -0.0370 -0.9163
 7966TIP3   OH245388   3.408   4.112   3.724  0.1762  0.4495 -0.2233
 7966TIP3    H145389   3.486   4.167   3.719 -0.2754  1.3857  2.1100
 7966TIP3    H245390   3.441   4.027   3.754  0.3566  0.7276  0.3778
 7967TIP3   OH245391   4.841   0.017  11.556 -0.0347  0.1040  0.2821
 7967TIP3    H145392   4.877  -0.026  11.478  0.2351  1.2076 -0.2183
 7967TIP3    H245393   4.770   0.072  11.522 -0.9146 -0.5636  1.0184
 7968TIP3   OH245394   2.137   6.788  14.126 -0.9984  0.0328 -0.1534
 7968TIP3    H145395   2.218   6.737  14.134 -0.7928  0.5021  0.7872
 7968TIP3    H245396   2.159   6.874  14.163 -1.6151  0.5046 -0.8842
 7969TIP3   OH245397   6.411   4.817  16.459 -0.5184  0.3591 -0.2261
 7969TIP3    H145398   6.349   4.888  16.441 -0.3164  0.3543 -0.9774
 7969TIP3    H245399   6.433   4.783  16.372  0.1311  0.0141  0.0723
 7970TIP3   OH245400   0.472   2.327  14.908 -0.1772 -0.3381 -0.2359
 7970TIP3    H145401   0.516   2.304  14.826 -0.7085 -1.1425 -0.2991
 7970TIP3    H245402   0.533   2.387  14.952 -0.1069  0.4938 -1.4382
 7971TIP3   OH245403   2.861   0.710  16.260  0.2538  0.0840  0.1361
 7971TIP3    H145404   2.938   0.669  16.299  2.0729  2.3235 -0.9485
 7971TIP3    H245405   2.833   0.649  16.192 -0.1228 -1.6567  1.8173
 7972TIP3   OH245406   1.953   0.572   0.174 -0.4224 -0.1294 -0.5992
 7972TIP3    H145407   1.897   0.651   0.176  0.1251  0.4112 -3.6106
 7972TIP3    H245408   2.024   0.596   0.115 -0.3611 -2.9643 -1.7102
 7973TIP3   OH245409   6.089   6.176  13.159 -0.4952 -0.6535  0.2408
 7973TIP3    H145410   6.114   6.132  13.240  1.2265  0.1188  0.1421
 7973TIP3    H245411   6.093   6.269  13.180  1.3248 -0.4105 -1.1220
 7974TIP3   OH245412   1.482   1.149  15.331  0.0531  0.6335 -0.8652
 7974TIP3    H145413   1.400   1.173  15.374  0.4912 -2.1507  1.6945
 7974TIP3    H245414   1.543   1.219  15.355 -0.2772  0.1894  1.3769
 7975TIP3   OH245415   6.018   5.466   0.901 -0.2552 -0.4559 -0.1549
 7975TIP3    H145416   6.045   5.383   0.863 -0.8535 -0.3256 -0.8901
 7975TIP3    H245417   5.922   5.462   0.902 -0.4236  1.2056 -2.5436
 7976TIP3   OH245418   2.877   3.074  13.419 -0.4918  0.6315  0.3034
 7976TIP3    H145419   2.970   3.092  13.404 -0.1680 -1.9480 -1.1509
 7976TIP3    H245420   2.835   3.097  13.336 -0.8166 -0.3278  0.2032
 7977TIP3   OH245421   2.613   0.727   5.635  0.8659 -0.0276 -0.7677
 7977TIP3    H145422   2.528   0.732   5.591  1.2337 -0.3170 -1.5171
 7977TIP3    H245423   2.658   0.655   5.591  1.0062 -0.7084  0.4882
 7978TIP3   OH245424   3.413   2.414   3.904  0.4280  0.4362 -0.2382
 7978TIP3    H145425   3.452   2.375   3.982  1.2153 -2.1301 -1.8510
 7978TIP3    H245426   3.478   2.398   3.835 -1.4334  0.2818 -1.9713
 7979TIP3   OH245427   2.741   4.657   1.029 -0.4348 -0.0277  0.0838
 7979TIP3    H145428   2.723   4.566   1.006 -1.1030  0.1754 -0.2000
 7979TIP3    H245429   2.831   4.672   1.000 -1.1100  0.1099 -2.0154
 7980TIP3   OH245430   1.261   5.804  13.647  0.4738 -0.2152 -0.3782
 7980TIP3    H145431   1.184   5.749  13.661  1.3095 -1.2282  0.2575
 7980TIP3    H245432   1.323   5.778  13.715  0.0331  3.1388  1.4318
 7981TIP3   OH245433   1.820   4.470  12.086 -0.3209  0.0575 -0.2464
 7981TIP3    H145434   1.818   4.468  12.182  0.3572 -2.8129 -0.2528
 7981TIP3    H245435   1.911   4.488  12.064 -0.0237 -1.5100 -0.3410
 7982TIP3   OH245436   6.635   1.462  14.388 -0.2330 -0.0853  0.1800
 7982TIP3    H145437   6.596   1.380  14.361  0.0597 -0.3088  0.4314
 7982TIP3    H245438   6.621   1.522  14.314 -2.5352  0.3303  0.9136
 7983TIP3   OH245439   5.626   1.547   3.659  0.6415 -0.2412 -0.1072
 7983TIP3    H145440   5.642   1.466   3.709 -2.3122  0.7812  2.6249
 7983TIP3    H245441   5.553   1.525   3.602  1.1486 -0.0550 -0.8384
 7984TIP3   OH245442   3.164   0.057  12.140  0.3538  0.3723  0.0351
 7984TIP3    H145443   3.135  -0.028  12.173  1.7087 -0.4801 -0.9317
 7984TIP3    H245444   3.146   0.118  12.212 -0.2830 -0.7981  0.8751
 7985TIP3   OH245445   5.082   4.778  15.197 -0.2135 -0.0409 -0.3044
 7985TIP3    H145446   5.043   4.818  15.120  0.2837 -1.7897 -1.4986
 7985TIP3    H245447   5.161   4.830  15.215 -1.1369  1.2879 -0.0503
 7986TIP3   OH245448   3.505   3.322  12.267 -0.4421 -0.6186 -0.0549
 7986TIP3    H145449   3.434   3.371  12.227  0.6475 -1.0224 -2.5725
 7986TIP3    H245450   3.584   3.353  12.224  0.5632 -2.5637  0.2928
 7987TIP3   OH245451   3.867   0.924   5.250 -0.0668  0.4304 -0.5042
 7987TIP3    H145452   3.901   0.866   5.183 -1.6387 -0.0548 -0.8849
 7987TIP3    H245453   3.774   0.903   5.257  0.4254 -0.9633  3.2448
 7988TIP3   OH245454   6.772   1.385   5.801 -0.2951 -0.3736 -0.4907
 7988TIP3    H145455   6.781   1.331   5.723  3.0948 -0.9005  0.1735
 7988TIP3    H245456   6.836   1.455   5.790 -1.1127  0.6335  0.9645
 7989TIP3   OH245457   6.313   3.667   2.275 -0.2844  0.0334 -0.1378
 7989TIP3    H145458   6.229   3.652   2.317  1.2826  0.4400  3.2957
 7989TIP3    H245459   6.341   3.581   2.245 -1.4586 -0.2571 -0.4073
 7990TIP3   OH245460   2.807   4.228  16.275 -0.1409  0.0671 -0.2046
 7990TIP3    H145461   2.803   4.212  16.181 -1.1540 -0.0591 -0.1473
 7990TIP3    H245462   2.806   4.323  16.284  1.2889  0.1068 -0.3651
 7991TIP3   OH245463   6.321   2.720   1.084  0.0169  0.0932 -0.0371
 7991TIP3    H145464   6.230   2.691   1.094  0.2184 -0.4142  0.3245
 7991TIP3    H245465   6.321   2.811   1.114 -0.3448  0.0494  0.0967
 7992TIP3   OH245466   5.752   5.929  13.724 -0.5254 -0.2304  0.1831
 7992TIP3    H145467   5.828   5.873  13.743  0.9496  0.7175 -2.7020
 7992TIP3    H245468   5.782   6.017  13.746 -1.4918 -0.0927  0.9447
 7993TIP3   OH245469   3.266   2.162   4.229 -0.1939  0.5382  0.5537
 7993TIP3    H145470   3.321   2.120   4.295 -0.1757 -0.1560  0.0926
 7993TIP3    H245471   3.207   2.218   4.280 -0.8692 -0.7763  1.2298
 7994TIP3   OH245472   0.660   2.123   5.997  0.1788  0.5747 -0.1027
 7994TIP3    H145473   0.726   2.064   6.034  0.2003  0.0831 -0.9028
 7994TIP3    H245474   0.595   2.132   6.066  0.6058  0.3005  0.3443
 7995TIP3   OH245475   1.774   1.325  14.050 -0.3129 -0.3228  0.8292
 7995TIP3    H145476   1.787   1.287  13.963  0.0270 -1.7292  1.4853
 7995TIP3    H245477   1.680   1.320  14.065 -0.1631 -1.9741  1.3677
 7996TIP3   OH245478   6.782   2.503   6.361 -0.0788  0.0651  0.6747
 7996TIP3    H145479   6.731   2.455   6.425 -1.5171  0.0317 -0.4689
 7996TIP3    H245480   6.792   2.442   6.288 -0.6931  0.9930 -0.1980
 7997TIP3   OH245481   3.731   3.695  13.169 -0.0138 -0.9724 -0.1779
 7997TIP3    H145482   3.750   3.781  13.208  2.4379 -0.8507 -1.5409
 7997TIP3    H245483   3.691   3.645  13.240 -1.3227  1.2336  0.6837
 7998TIP3   OH245484   3.398   3.467   6.007 -0.0950 -0.4210  0.0834
 7998TIP3    H145485   3.329   3.404   5.985  0.3774 -0.9715  0.1907
 7998TIP3    H245486   3.396   3.472   6.103  0.6097 -1.1022  0.1347
 7999TIP3   OH245487   1.320   3.684   2.978  0.3665 -0.0160  0.0621
 7999TIP3    H145488   1.409   3.648   2.970  0.7556  0.8235  0.5740
 7999TIP3    H245489   1.281   3.634   3.050 -0.0113 -1.2377 -0.9610
 8000TIP3   OH245490   4.950   4.273   1.399  0.3410 -0.2162 -0.2878
 8000TIP3    H145491   4.856   4.289   1.410  0.7244  1.3412  0.7917
 8000TIP3    H245492   4.956   4.223   1.317 -1.3589  0.3681 -0.7891
 8001TIP3   OH245493   5.181   4.738   2.018  1.1323 -0.6320  0.1017
 8001TIP3    H145494   5.144   4.726   2.105  2.7662 -1.1863  0.7250
 8001TIP3    H245495   5.205   4.830   2.013 -1.7276  0.1217 -0.8846
 8002TIP3   OH245496   3.397   4.571  11.987 -0.8464  0.0158  0.2108
 8002TIP3    H145497   3.487   4.599  12.004 -0.8914 -1.3682  3.0173
 8002TIP3    H245498   3.367   4.630  11.918  1.5268  1.8585  0.6531
 8003TIP3   OH245499   3.388   0.041  15.922 -0.3442  0.2344  0.1717
 8003TIP3    H145500   3.349  -0.047  15.923 -0.1142  0.1419  1.0927
 8003TIP3    H245501   3.457   0.036  15.856  0.5253 -0.6548  1.1339
 8004TIP3   OH245502   5.548   2.557  10.522 -0.9642  0.0633  0.4194
 8004TIP3    H145503   5.622   2.501  10.496 -0.7135  0.6568 -0.1399
 8004TIP3    H245504   5.574   2.645  10.495 -2.8468 -0.0376 -1.8755
 8005TIP3   OH245505   3.400   2.325   6.189 -0.4797  0.0142 -0.0879
 8005TIP3    H145506   3.448   2.243   6.176 -0.7537 -0.0568 -0.6751
 8005TIP3    H245507   3.363   2.345   6.103 -0.5939  0.6428  0.1018
 8006TIP3   OH245508   3.913   5.649  15.188  0.2956  0.6068 -0.5657
 8006TIP3    H145509   4.005   5.651  15.160  0.7283  0.2767  0.8262
 8006TIP3    H245510   3.916   5.669  15.282 -1.1652  1.8939 -0.7733
 8007TIP3   OH245511   5.259   1.426   4.269  0.1159  0.0307  0.6933
 8007TIP3    H145512   5.291   1.455   4.183 -1.7374 -1.3799 -0.5238
 8007TIP3    H245513   5.242   1.507   4.317 -0.5844  0.8904 -0.9591
 8008TIP3   OH245514   4.796   5.811   5.364  0.3050  0.4557  0.4323
 8008TIP3    H145515   4.773   5.901   5.387  0.6150  0.1545  1.9715
 8008TIP3    H245516   4.891   5.811   5.357  0.1783  0.7922 -2.0527
 8009TIP3   OH245517   5.716   1.474   0.724  0.1150  0.0950  0.0905
 8009TIP3    H145518   5.677   1.411   0.785 -0.4973 -0.6209 -1.0259
 8009TIP3    H245519   5.727   1.425   0.643  1.2999  0.9301 -0.2628
 8010TIP3   OH245520   5.543   5.585  17.090  0.1039 -0.1872  0.3249
 8010TIP3    H145521   5.560   5.528  17.014  1.0309  0.7310 -0.1715
 8010TIP3    H245522   5.616   5.569  17.149  0.9955  1.3540 -0.3461
 8011TIP3   OH245523   1.884   0.725  12.937  0.1531 -0.1313  0.0251
 8011TIP3    H145524   1.804   0.777  12.935  0.9743  1.2184  1.3385
 8011TIP3    H245525   1.901   0.709  13.030  1.0010 -1.0638 -0.2716
 8012TIP3   OH245526   2.834   5.159   6.120 -0.0515  0.2073  0.1067
 8012TIP3    H145527   2.778   5.087   6.148 -0.9370  1.1397  0.7398
 8012TIP3    H245528   2.906   5.160   6.184  0.3745 -0.5887 -0.3481
 8013TIP3   OH245529   2.437   6.134   1.905  0.3806 -0.3285  0.1885
 8013TIP3    H145530   2.390   6.067   1.954  0.5735 -1.3952 -1.0472
 8013TIP3    H245531   2.530   6.112   1.917  0.4783  0.2319  0.4841
 8014TIP3   OH245532   3.955   6.585  16.595  0.6134 -0.2012  0.5470
 8014TIP3    H145533   3.918   6.632  16.670  1.6048  0.0207  0.8962
 8014TIP3    H245534   3.889   6.595  16.526  0.2884  0.7084  0.9814
 8015TIP3   OH245535   5.101   4.763  16.570  0.0071 -0.3329 -0.6541
 8015TIP3    H145536   5.109   4.773  16.665 -1.3544 -0.1890 -0.5424
 8015TIP3    H245537   5.159   4.690  16.549  0.2309 -0.4431  0.3082
 8016TIP3   OH245538   5.093   4.768  13.482  0.4925  0.6585  1.1348
 8016TIP3    H145539   5.052   4.704  13.423  4.8618  0.0117 -1.4382
 8016TIP3    H245540   5.057   4.852  13.455  1.1874  0.1705 -1.4857
 8017TIP3   OH245541   2.919   0.126   6.492 -0.1142  0.3298  0.4918
 8017TIP3    H145542   2.856   0.118   6.563  1.0333  0.1384  1.4967
 8017TIP3    H245543   2.902   0.051   6.436  1.1317 -1.3210  2.2893
 8018TIP3   OH245544   5.924   4.704  13.162 -0.0519  0.6487  0.0426
 8018TIP3    H145545   5.888   4.725  13.248 -0.3239 -0.3625  0.1817
 8018TIP3    H245546   5.887   4.618  13.141  0.2047  0.7835 -0.9751
 8019TIP3   OH245547   5.756   5.487  15.015 -0.0285 -0.4851  0.3145
 8019TIP3    H145548   5.803   5.481  15.099  0.6898 -0.6769 -0.0987
 8019TIP3    H245549   5.799   5.558  14.968 -1.7528  1.0147  0.9171
 8020TIP3   OH245550   5.483   6.783  12.430  0.3039  0.4431 -0.4076
 8020TIP3    H145551   5.435   6.850  12.381 -2.3863 -0.8787  0.3060
 8020TIP3    H245552   5.460   6.799  12.521  0.3173 -0.9150 -0.1520
 8021TIP3   OH245553   4.861   6.523   3.749  0.1796  0.0875  0.3605
 8021TIP3    H145554   4.830   6.570   3.827  1.1166  0.4098  0.5479
 8021TIP3    H245555   4.941   6.480   3.778  0.1079 -0.4392 -0.2181
 8022TIP3   OH245556   3.019   5.917   6.608 -0.1624 -0.2394 -0.1790
 8022TIP3    H145557   3.099   5.869   6.586  0.6045  1.9846 -2.5180
 8022TIP3    H245558   3.049   6.004   6.634 -1.7740  0.3838 -0.3456
 8023TIP3   OH245559   3.748   5.146   0.110  0.4650 -0.1442 -0.4218
 8023TIP3    H145560   3.746   5.068   0.055  0.2780 -0.7965  0.4954
 8023TIP3    H245561   3.797   5.210   0.059  1.1112 -1.0429 -0.9579
 8024TIP3   OH245562   1.025   1.786   5.230 -0.0940 -0.5855  0.0839
 8024TIP3    H145563   1.105   1.806   5.182 -0.1754 -2.1644 -0.7510
 8024TIP3    H245564   0.964   1.756   5.162 -0.9644 -0.6342  0.8771
 8025TIP3   OH245565   4.213   3.780   5.094 -1.1408 -0.2066  0.1693
 8025TIP3    H145566   4.204   3.786   4.999 -0.4604 -2.4863 -0.0618
 8025TIP3    H245567   4.216   3.686   5.113  3.1181  0.1411  1.9982
 8026TIP3   OH245568   6.141   3.560   4.663  0.0486 -0.8032  0.7131
 8026TIP3    H145569   6.187   3.598   4.738  1.0344 -2.4078  0.9506
 8026TIP3    H245570   6.172   3.610   4.588  0.1243 -0.1152  1.1927
 8027TIP3   OH245571   3.683   2.610  10.426 -0.0600  0.0813  0.5285
 8027TIP3    H145572   3.778   2.608  10.431  0.0161 -2.2344 -1.2074
 8027TIP3    H245573   3.662   2.700  10.402  1.8413 -0.0088 -1.5630
 8028TIP3   OH245574   2.165   4.298   2.401  0.1908  0.0787 -0.1696
 8028TIP3    H145575   2.077   4.263   2.384  0.1334  0.2458 -0.2218
 8028TIP3    H245576   2.223   4.222   2.394  0.0383 -0.0536 -0.0264
 8029TIP3   OH245577   2.400   5.639   5.680 -0.0390  0.6853 -0.6385
 8029TIP3    H145578   2.380   5.589   5.758 -2.5260 -0.1152 -1.7555
 8029TIP3    H245579   2.486   5.607   5.652 -0.2185 -0.7284  0.4041
 8030TIP3   OH245580   3.655   1.280   2.606  0.5465 -0.4926  0.7091
 8030TIP3    H145581   3.712   1.343   2.562  0.2955  0.4320  1.6716
 8030TIP3    H245582   3.671   1.296   2.699 -0.5713 -0.8815  0.9733
 8031TIP3   OH245583   3.699   4.121  11.721  0.2981  0.0049 -0.2312
 8031TIP3    H145584   3.785   4.106  11.759  0.3994 -0.0104 -0.4642
 8031TIP3    H245585   3.669   4.033  11.695  0.1855  0.0027 -0.0929
 8032TIP3   OH245586   5.072   6.459  13.149  0.1352  0.3445 -0.8914
 8032TIP3    H145587   5.073   6.489  13.058  1.5816  2.1625 -0.2938
 8032TIP3    H245588   5.011   6.519  13.194  0.3860  0.2340 -0.3973
 8033TIP3   OH245589   4.209   5.712  11.359 -0.0800 -0.0287  0.3566
 8033TIP3    H145590   4.159   5.790  11.383 -0.6714 -0.9016  2.0520
 8033TIP3    H245591   4.204   5.656  11.436  0.3273 -1.7624 -0.8492
 8034TIP3   OH245592   0.675   0.599  14.323  0.6955 -0.0208 -0.6120
 8034TIP3    H145593   0.688   0.693  14.333 -1.2779  0.1928  0.1270
 8034TIP3    H245594   0.601   0.579  14.380  0.5883 -1.8896 -1.3857
 8035TIP3   OH245595   3.406   4.338  15.763 -0.0520  0.4268  0.1195
 8035TIP3    H145596   3.388   4.333  15.669 -1.7768 -1.6851  0.5469
 8035TIP3    H245597   3.479   4.278  15.776  0.6766  1.2839  0.0246
 8036TIP3   OH245598   0.259   4.801   1.737 -0.2023  0.6007 -0.0081
 8036TIP3    H145599   0.181   4.828   1.690  0.5140  0.2428 -1.4289
 8036TIP3    H245600   0.281   4.715   1.700  1.6236  1.2986 -0.5805
 8037TIP3   OH245601   3.884   2.316  10.471 -0.7258  0.3745 -0.0584
 8037TIP3    H145602   3.790   2.300  10.460 -0.4647 -0.1096 -1.7471
 8037TIP3    H245603   3.926   2.248  10.419  0.5756  0.5037  0.7929
 8038TIP3   OH245604   4.270   3.587  15.298 -0.1367 -0.6033  0.4499
 8038TIP3    H145605   4.302   3.534  15.224  1.3850  1.4678 -0.4263
 8038TIP3    H245606   4.348   3.631  15.331 -1.1538  0.0489  2.0484
 8039TIP3   OH245607   3.777   5.734   4.495 -0.2455  0.8259 -0.1403
 8039TIP3    H145608   3.780   5.641   4.517 -1.7994  0.7592 -0.1944
 8039TIP3    H245609   3.729   5.774   4.568  1.1034  1.7097  0.2806
 8040TIP3   OH245610   4.135   0.014   4.635 -0.3330  0.0656 -0.4526
 8040TIP3    H145611   4.095   0.091   4.675 -1.4999 -0.9867  0.4241
 8040TIP3    H245612   4.147  -0.047   4.707 -2.0043 -1.6624 -1.5984
 8041TIP3   OH245613   5.245   0.744  13.202  0.2247  0.5359 -0.4570
 8041TIP3    H145614   5.239   0.705  13.289 -0.3807  0.3415 -0.5815
 8041TIP3    H245615   5.189   0.822  13.207 -0.7857 -0.1423 -1.0257
 8042TIP3   OH245616   5.842   5.285  12.154  0.0849 -0.1962 -0.4068
 8042TIP3    H145617   5.866   5.193  12.152 -0.0271 -0.2126 -1.0481
 8042TIP3    H245618   5.919   5.329  12.191  0.6868 -0.3819 -1.4039
 8043TIP3   OH245619   5.978   2.092   1.534  0.4424  0.6995  0.0931
 8043TIP3    H145620   6.059   2.119   1.491 -0.1533 -0.2687 -1.6908
 8043TIP3    H245621   5.983   1.996   1.534 -1.9834  0.5160 -2.6440
 8044TIP3   OH245622   4.961   2.027  12.539 -0.2243  0.2441  0.2743
 8044TIP3    H145623   4.960   1.937  12.505  1.8776  0.0256  0.7515
 8044TIP3    H245624   4.888   2.070  12.494 -0.6202 -1.4185 -0.7224
 8045TIP3   OH245625   0.789   4.429   1.983 -0.6615  0.1498 -0.2205
 8045TIP3    H145626   0.694   4.426   1.972 -0.9275 -0.5901  1.9766
 8045TIP3    H245627   0.803   4.497   2.049  0.3998  0.6435 -0.9380
 8046TIP3   OH245628   6.282   3.201  16.825  0.1519  0.1961  0.4296
 8046TIP3    H145629   6.208   3.166  16.776 -0.4504  1.4695  0.4174
 8046TIP3    H245630   6.308   3.279  16.777  0.9774  0.2175  0.8981
 8047TIP3   OH245631   1.660   0.273  14.987  0.8931  0.4797 -0.3290
 8047TIP3    H145632   1.616   0.274  15.071  1.4469 -1.9677  0.0209
 8047TIP3    H245633   1.595   0.304  14.924  0.1838  1.3833  0.8481
 8048TIP3   OH245634   3.408   0.052  14.316 -0.0641  0.4110  0.4486
 8048TIP3    H145635   3.319   0.084  14.335 -0.5157 -0.4316 -0.1891
 8048TIP3    H245636   3.458   0.131  14.297 -0.8171  0.8625  0.2795
 8049TIP3   OH245637   3.481   4.718  16.453  0.2020 -0.5624 -0.0118
 8049TIP3    H145638   3.398   4.699  16.410 -0.4073  1.7388  0.1027
 8049TIP3    H245639   3.546   4.669  16.402 -0.6536  1.1882 -2.8499
 8050TIP3   OH245640   0.614   1.949   2.665  0.2020 -0.4344  0.0242
 8050TIP3    H145641   0.607   1.997   2.582 -0.8238 -1.5487 -0.5442
 8050TIP3    H245642   0.581   2.010   2.730  1.2068  0.5293 -0.3544
 8051TIP3   OH245643   3.259   5.478   3.767  0.1889  0.2242 -0.1147
 8051TIP3    H145644   3.296   5.449   3.684 -1.3668 -0.4982 -0.5674
 8051TIP3    H245645   3.165   5.467   3.757 -0.0548  0.6346  1.5552
 8052TIP3   OH245646   6.172   3.821  16.552 -0.3790  0.4962 -0.0409
 8052TIP3    H145647   6.191   3.897  16.607  2.1039 -1.6060  2.1555
 8052TIP3    H245648   6.093   3.782  16.589 -0.2768  0.6558  0.3458
 8053TIP3   OH245649   3.489   2.018   0.031 -0.0699 -0.0861 -0.3360
 8053TIP3    H145650   3.423   1.978   0.087 -0.0141 -1.5222 -1.2869
 8053TIP3    H245651   3.467   1.990  -0.058  0.8441  0.7710 -0.8583
 8054TIP3   OH245652   1.163   5.056  15.038 -0.0132 -0.1885  0.1935
 8054TIP3    H145653   1.078   5.036  14.997 -0.2801 -0.4743  0.8848
 8054TIP3    H245654   1.147   5.049  15.132  0.1963  2.0916  0.4347
 8055TIP3   OH245655   2.375   6.405  16.073  0.3729  0.1305 -0.4100
 8055TIP3    H145656   2.350   6.404  16.166  1.5282 -1.0938 -0.0878
 8055TIP3    H245657   2.363   6.496  16.047  0.4158  0.5868  1.0656
 8056TIP3   OH245658   1.238   4.552  14.266  0.1924  0.7880 -0.3193
 8056TIP3    H145659   1.257   4.572  14.174  1.2118  1.0225 -0.0607
 8056TIP3    H245660   1.227   4.637  14.307  1.0049  0.7250  0.0388
 8057TIP3   OH245661   2.615   2.862   1.837 -0.2469  0.0258  0.4687
 8057TIP3    H145662   2.703   2.842   1.805 -0.1900  0.8277  0.1052
 8057TIP3    H245663   2.557   2.837   1.764 -0.3023 -0.2628  0.6103
 8058TIP3   OH245664   3.164   0.838   5.617 -0.0988 -0.3132 -0.3537
 8058TIP3    H145665   3.116   0.782   5.678 -0.3511 -0.0131 -0.2717
 8058TIP3    H245666   3.099   0.862   5.550 -0.0406  0.0146 -0.2952
 8059TIP3   OH245667   0.110   4.310   3.998 -0.4099  0.0100  0.0055
 8059TIP3    H145668   0.127   4.366   4.073  0.0629 -1.3945  0.9634
 8059TIP3    H245669   0.031   4.261   4.022 -0.6364  0.0185 -0.6891
 8060TIP3   OH245670   1.250   5.554  16.321  0.5336 -0.0320 -0.0430
 8060TIP3    H145671   1.293   5.478  16.281 -0.3910  0.2369 -1.6066
 8060TIP3    H245672   1.172   5.518  16.362 -0.0303  0.0985 -0.9927
 8061TIP3   OH245673   1.145   4.854   2.770  0.4470  0.1529  0.4290
 8061TIP3    H145674   1.098   4.792   2.715  0.6398  1.4459 -1.2308
 8061TIP3    H245675   1.083   4.875   2.840 -0.6872  0.2594 -0.5895
 8062TIP3   OH245676   5.100   5.701   3.470  0.5042  0.0310 -0.2963
 8062TIP3    H145677   5.087   5.780   3.417  2.4197  0.4234 -0.2350
 8062TIP3    H245678   5.015   5.657   3.468  0.1661  0.6806 -2.6277
 8063TIP3   OH245679   5.066   4.756   3.439 -0.0236  0.4360 -1.0308
 8063TIP3    H145680   5.013   4.687   3.479  0.3833  0.5668 -0.2477
 8063TIP3    H245681   5.003   4.823   3.414 -0.2778  0.3953 -0.5138
 8064TIP3   OH245682   2.970   3.131  15.998  0.0978 -0.0266 -0.0647
 8064TIP3    H145683   3.027   3.066  15.958  0.7829  0.2800  0.3855
 8064TIP3    H245684   2.967   3.203  15.935  1.4191  0.5843  0.5321
 8065TIP3   OH245685   2.042   3.085   2.235  0.0521  0.3160 -0.3595
 8065TIP3    H145686   2.063   3.103   2.143 -1.2610 -1.3303 -1.0079
 8065TIP3    H245687   2.078   2.998   2.251  1.6228  1.2197  1.1567
 8066TIP3   OH245688   4.471   4.825  15.437  0.3188 -0.3256  0.4386
 8066TIP3    H145689   4.542   4.773  15.475  0.9176  0.3440  0.2422
 8066TIP3    H245690   4.411   4.760  15.402  1.0545 -0.8939  0.2108
 8067TIP3   OH245691   3.635   3.250   0.125 -0.2785 -0.0485  0.1779
 8067TIP3    H145692   3.630   3.216   0.214  1.3443  1.4888  0.8816
 8067TIP3    H245693   3.650   3.344   0.136 -0.1118  0.1662 -1.7223
 8068TIP3   OH245694   6.272   6.324  14.801  0.2892 -0.2378 -0.3200
 8068TIP3    H145695   6.367   6.328  14.805  0.4519 -0.7476 -3.0257
 8068TIP3    H245696   6.252   6.301  14.710 -2.3690 -1.3906  0.5017
 8069TIP3   OH245697   1.243   2.284   2.585  0.1247  0.0163 -0.5091
 8069TIP3    H145698   1.246   2.227   2.508  2.6714 -1.5123  0.6500
 8069TIP3    H245699   1.322   2.338   2.578 -0.7946  1.4332 -0.1190
 8070TIP3   OH245700   2.162   6.286   1.564  0.1628  0.0330 -0.5273
 8070TIP3    H145701   2.250   6.271   1.598 -0.0715 -0.7155 -0.2439
 8070TIP3    H245702   2.104   6.260   1.635 -0.3093 -0.8070 -1.2092
 8071TIP3   OH245703   1.095   6.625   5.952 -0.2274  0.3500 -0.2185
 8071TIP3    H145704   1.157   6.608   5.880  0.1044  0.2874  0.0822
 8071TIP3    H245705   1.125   6.707   5.990  1.6291 -1.3067  1.9922
 8072TIP3   OH245706   6.366   5.236  12.029  0.2374 -0.1052 -0.3520
 8072TIP3    H145707   6.391   5.236  11.937  1.5506  2.1722 -0.0335
 8072TIP3    H245708   6.407   5.157  12.065  1.8427  0.3395 -1.1811
 8073TIP3   OH245709   0.777   4.570  10.857  0.0469  0.5580 -0.3669
 8073TIP3    H145710   0.844   4.507  10.882  0.8265  2.0194  1.3290
 8073TIP3    H245711   0.703   4.550  10.913 -0.3299  0.0423 -1.0452
 8074TIP3   OH245712   1.731   6.548   6.334  0.3494  0.1515  0.6063
 8074TIP3    H145713   1.640   6.577   6.335  0.3319  0.1493 -0.6907
 8074TIP3    H245714   1.774   6.602   6.401 -0.8638 -0.7488  2.1469
 8075TIP3   OH245715   5.067   5.946   3.346 -0.2011  0.1229 -0.1599
 8075TIP3    H145716   5.017   6.021   3.380  1.3549  1.2399 -0.2662
 8075TIP3    H245717   5.120   5.983   3.276  0.7602 -1.0544 -0.0588
 8076TIP3   OH245718   2.549   5.068   3.780  0.0907 -0.1089 -0.0817
 8076TIP3    H145719   2.623   5.025   3.738  0.2011  0.2958 -0.2982
 8076TIP3    H245720   2.483   4.999   3.789  0.8705 -0.7274  1.0426
 8077TIP3   OH245721   0.452   3.408   0.870 -0.4595  0.0430 -0.2408
 8077TIP3    H145722   0.519   3.369   0.813  0.7041  0.4999  0.8098
 8077TIP3    H245723   0.394   3.335   0.891 -0.3688 -0.3374 -1.2391
 8078TIP3   OH245724   0.266   4.735  14.873 -0.1139 -0.2649 -0.2405
 8078TIP3    H145725   0.284   4.765  14.962  0.3868 -0.4133 -0.2925
 8078TIP3    H245726   0.280   4.813  14.818 -0.0987 -0.2584 -0.2270
 8079TIP3   OH245727   4.878   2.708   2.877 -0.2832 -0.1344 -0.4041
 8079TIP3    H145728   4.885   2.692   2.782 -0.5637 -0.0155 -0.4463
 8079TIP3    H245729   4.830   2.632   2.910 -0.9614  0.2476 -0.4915
 8080TIP3   OH245730   6.570   6.559   6.792  0.5305  0.4829 -0.4090
 8080TIP3    H145731   6.496   6.609   6.757 -0.4830 -0.8458 -0.1950
 8080TIP3    H245732   6.620   6.534   6.715 -0.7327 -0.9244 -0.8073
 8081TIP3   OH245733   5.103   1.507   0.075  0.4932 -0.0790 -0.3717
 8081TIP3    H145734   5.167   1.437   0.081  1.0837  0.5921  1.5637
 8081TIP3    H245735   5.057   1.505   0.159 -1.9751 -0.4688 -1.6665
 8082TIP3   OH245736   0.601   3.423   4.753  0.2471 -0.1305  0.2341
 8082TIP3    H145737   0.554   3.348   4.789 -1.4290  1.1201  0.7168
 8082TIP3    H245738   0.594   3.490   4.822 -0.7083  1.3942 -1.3148
 8083TIP3   OH245739   4.219   5.587   1.339 -0.0310 -0.3972 -0.6069
 8083TIP3    H145740   4.295   5.564   1.391  0.4392  0.3354 -0.9582
 8083TIP3    H245741   4.144   5.557   1.390  0.5109 -1.7245 -0.5733
 8084TIP3   OH245742   6.381   2.324   3.359  0.2389  0.4553 -0.1802
 8084TIP3    H145743   6.448   2.289   3.418 -0.2075 -0.5376 -0.2435
 8084TIP3    H245744   6.329   2.247   3.334  0.8926  0.7239 -2.4754
 8085TIP3   OH245745   5.814   2.084  14.344 -0.4127  0.1465 -0.3529
 8085TIP3    H145746   5.772   2.140  14.409 -1.6110 -0.4665 -0.6025
 8085TIP3    H245747   5.812   1.996  14.382  0.1685  0.0202 -0.6013
 8086TIP3   OH245748   5.727   1.388  10.368  0.2350 -0.0890 -0.0627
 8086TIP3    H145749   5.700   1.426  10.285 -0.2628  1.4448  0.7782
 8086TIP3    H245750   5.819   1.365  10.355  0.2860  0.5598 -0.8918
 8087TIP3   OH245751   4.629   0.425  13.708  0.7723 -0.2374 -0.5109
 8087TIP3    H145752   4.535   0.433  13.691  0.7478  0.9709  0.1837
 8087TIP3    H245753   4.653   0.506  13.751  2.1330 -0.5757 -0.6093
 8088TIP3   OH245754   5.119   5.705  17.046 -0.4025 -0.0783 -0.2250
 8088TIP3    H145755   5.030   5.694  17.013 -0.0215  0.6120 -1.5034
 8088TIP3    H245756   5.117   5.789  17.092  0.1520  1.0577 -2.2257
 8089TIP3   OH245757   3.452   2.544  13.158 -0.2647  0.1625 -0.4764
 8089TIP3    H145758   3.510   2.522  13.085  2.0726  0.1430  1.3561
 8089TIP3    H245759   3.448   2.465  13.211 -1.1181  0.5211  0.0092
 8090TIP3   OH245760   5.577   5.740  13.634  0.5637 -1.1080 -0.0456
 8090TIP3    H145761   5.640   5.811  13.641 -1.3363  0.4197  3.0354
 8090TIP3    H245762   5.608   5.675  13.696  0.2283 -1.2586 -0.0365
 8091TIP3   OH245763   2.510   0.197  13.635 -0.1379 -0.5399 -0.1178
 8091TIP3    H145764   2.457   0.129  13.592  0.7528 -1.3972  0.1157
 8091TIP3    H245765   2.523   0.164  13.724 -0.4798  0.3914  0.2801
 8092TIP3   OH245766   2.200   2.556  16.210 -0.4426 -0.2678 -0.0775
 8092TIP3    H145767   2.212   2.463  16.231  1.3573  0.3665  1.8886
 8092TIP3    H245768   2.230   2.602  16.288 -1.7219  1.9761 -0.8743
 8093TIP3   OH245769   4.817   1.533  15.531 -0.0129 -0.6887  0.2583
 8093TIP3    H145770   4.843   1.457  15.582  1.9684  0.1570  0.5476
 8093TIP3    H245771   4.897   1.586  15.523 -1.8469  2.5547  2.1078
 8094TIP3   OH245772   2.003   3.002  11.825 -0.6149 -0.2167 -0.1781
 8094TIP3    H145773   2.007   2.908  11.804 -0.6375  0.1064 -1.6654
 8094TIP3    H245774   2.092   3.034  11.811 -0.1618 -0.3635  2.1272
 8095TIP3   OH245775   4.458   3.140  13.048  0.4054 -0.0927 -0.1441
 8095TIP3    H145776   4.457   3.045  13.058  2.2877 -0.2845 -1.2936
 8095TIP3    H245777   4.537   3.168  13.094  1.2902  0.5794 -1.9941
 8096TIP3   OH245778   5.116   0.893  12.918  0.0376  0.1240 -0.1030
 8096TIP3    H145779   5.173   0.970  12.926  0.9515 -0.3905 -1.4724
 8096TIP3    H245780   5.039   0.915  12.971 -0.1810  2.4188 -1.2973
 8097TIP3   OH245781   2.359   3.469  15.916 -0.2424  0.3556 -0.6481
 8097TIP3    H145782   2.376   3.481  15.822 -0.1282  2.2473 -0.4070
 8097TIP3    H245783   2.435   3.508  15.959 -0.3141 -0.4720  0.2296
 8098TIP3   OH245784   4.300   4.495  13.414  0.1577 -0.1643 -0.0305
 8098TIP3    H145785   4.292   4.493  13.318  0.9116 -0.2454 -0.0917
 8098TIP3    H245786   4.239   4.426  13.443 -2.1295  1.6729 -0.2959
 8099TIP3   OH245787   0.127   6.163  14.836  0.2184  0.1603 -0.5396
 8099TIP3    H145788   0.105   6.105  14.764 -0.7203  0.2806 -0.3551
 8099TIP3    H245789   0.105   6.113  14.915  1.0792  0.0922 -0.3365
 8100TIP3   OH245790   4.813   0.386  17.211  0.5152  0.2404 -0.0577
 8100TIP3    H145791   4.882   0.370  17.276  0.5442  1.0144  0.1144
 8100TIP3    H245792   4.742   0.328  17.237  0.0879  1.3678  1.3709
 8101TIP3   OH245793   6.371   1.015   3.545  0.2514 -0.4217  0.0602
 8101TIP3    H145794   6.357   0.981   3.633  1.7381  1.1603  0.9319
 8101TIP3    H245795   6.295   1.072   3.529  0.4544  0.0506  0.7242
 8102TIP3   OH245796   0.626   5.897  16.240  0.2771  0.6602  0.3382
 8102TIP3    H145797   0.717   5.904  16.268 -0.0011  0.4609  1.3035
 8102TIP3    H245798   0.577   5.881  16.320 -0.5070 -0.1523 -0.2855
 8103TIP3   OH245799   5.853   1.922  11.099 -0.4466  0.1800  0.4580
 8103TIP3    H145800   5.822   2.012  11.112  1.3923  0.9036 -0.0725
 8103TIP3    H245801   5.778   1.867  11.123 -1.3476  1.8302  1.4782
 8104TIP3   OH245802   5.542   3.462  15.836 -0.7058  0.3183  0.2627
 8104TIP3    H145803   5.453   3.431  15.855  0.9872 -3.3341  2.8616
 8104TIP3    H245804   5.576   3.492  15.920  1.0943  0.0754 -0.3472
 8105TIP3   OH245805   6.576   5.811  11.328 -0.1855 -0.2301 -0.1524
 8105TIP3    H145806   6.528   5.760  11.394 -3.6855  0.1639 -2.2959
 8105TIP3    H245807   6.525   5.891  11.318  2.0702  1.1195 -1.0767
 8106TIP3   OH245808   0.523   4.693   0.276 -0.0594  0.0814  0.3118
 8106TIP3    H145809   0.430   4.694   0.299 -0.0727 -0.1601  0.2684
 8106TIP3    H245810   0.541   4.602   0.250 -0.6301  0.8346 -2.9651
 8107TIP3   OH245811   4.803   2.577  13.506  0.3418 -0.3971  0.1042
 8107TIP3    H145812   4.870   2.528  13.553  0.4119 -0.4016 -0.0009
 8107TIP3    H245813   4.837   2.586  13.417  0.1237 -0.5521  0.0043
 8108TIP3   OH245814   6.740   5.869  12.463 -0.2344  0.3159 -0.2788
 8108TIP3    H145815   6.821   5.920  12.465 -0.2199  0.2901 -0.1434
 8108TIP3    H245816   6.709   5.870  12.554  0.1163 -0.4648 -0.1493
 8109TIP3   OH245817   2.273   6.545   6.060  0.0782  0.5630  0.2236
 8109TIP3    H145818   2.330   6.593   6.000 -0.5145  0.5039 -0.3894
 8109TIP3    H245819   2.271   6.598   6.139  1.8087  0.0634  0.6372
 8110TIP3   OH245820   4.673   2.960   0.790  0.3412 -0.5355 -0.2547
 8110TIP3    H145821   4.765   2.968   0.765  0.6150 -1.1033  0.5560
 8110TIP3    H245822   4.627   3.021   0.732  1.4712  1.3191  0.7563
 8111TIP3   OH245823   2.154   1.142   4.752  0.2021 -0.3416 -0.1620
 8111TIP3    H145824   2.075   1.195   4.764  1.2623  1.1944  0.3615
 8111TIP3    H245825   2.165   1.135   4.657  0.1210  0.5088 -0.2379
 8112TIP3   OH245826   3.448   3.223  11.455 -0.0204 -0.1949 -0.2608
 8112TIP3    H145827   3.428   3.307  11.498  0.3342  0.4366 -1.2959
 8112TIP3    H245828   3.364   3.179  11.448  0.0542 -0.8169  2.0677
 8113TIP3   OH245829   1.637   0.429  13.237 -0.0327 -0.2852  0.2557
 8113TIP3    H145830   1.575   0.470  13.297  1.2759  0.0263  1.4008
 8113TIP3    H245831   1.715   0.484  13.241  0.4176 -0.8203 -0.9863
 8114TIP3   OH245832   5.807   1.686   6.268 -0.4805  0.1591 -0.3800
 8114TIP3    H145833   5.839   1.708   6.355  0.7721  0.0623 -0.8144
 8114TIP3    H245834   5.815   1.591   6.263 -1.5764  0.0505 -0.2086
 8115TIP3   OH245835   1.823   4.731   3.460  0.2068  0.0870 -0.3359
 8115TIP3    H145836   1.830   4.715   3.554 -2.1773  0.0113 -0.1468
 8115TIP3    H245837   1.835   4.826   3.451  4.0190 -0.3272 -0.3775
 8116TIP3   OH245838   2.567   3.106   3.298 -1.0445  0.5154  0.8181
 8116TIP3    H145839   2.495   3.067   3.348  1.7893 -2.3247  2.9651
 8116TIP3    H245840   2.581   3.046   3.225 -0.4175  0.6720  0.8059
 8117TIP3   OH245841   2.019   1.916  15.452 -0.4809 -0.0915  0.2630
 8117TIP3    H145842   1.951   1.902  15.518  0.3522  1.4658  1.4974
 8117TIP3    H245843   1.986   1.872  15.374 -1.9311 -1.1593  1.4435
 8118TIP3   OH245844   3.999   0.801  12.846  0.3314 -0.1767 -0.3107
 8118TIP3    H145845   3.922   0.763  12.889 -0.5215  1.1364 -0.6453
 8118TIP3    H245846   3.972   0.813  12.755  0.1178  2.4087  0.0639
 8119TIP3   OH245847   6.727   4.816   2.249  0.2264  0.0026  0.5732
 8119TIP3    H145848   6.636   4.817   2.281  0.4273 -0.1509  1.1481
 8119TIP3    H245849   6.780   4.823   2.328  0.7589 -2.4470  0.4640
 8120TIP3   OH245850   3.568   6.089   2.618  0.1008  0.3203 -0.7694
 8120TIP3    H145851   3.656   6.071   2.584  0.7890  1.4206  0.3383
 8120TIP3    H245852   3.520   6.008   2.607  0.5606  0.3966 -3.5150
 8121TIP3   OH245853   3.586   6.071  13.993  0.0370 -0.4955 -0.0313
 8121TIP3    H145854   3.514   6.130  14.018 -1.5964 -1.4644 -2.3405
 8121TIP3    H245855   3.549   6.014  13.926  3.1138 -0.6876 -1.6788
 8122TIP3   OH245856   5.276   0.049   5.076  0.0972  0.4666  0.1766
 8122TIP3    H145857   5.319  -0.026   5.117  0.9098  1.2596  0.8084
 8122TIP3    H245858   5.226   0.012   5.004  2.4671 -0.4043 -1.0698
 8123TIP3   OH245859   2.418   0.998   1.482 -0.3795 -0.0442 -0.3488
 8123TIP3    H145860   2.464   0.926   1.525  0.3833 -0.3114 -1.5779
 8123TIP3    H245861   2.329   0.965   1.469 -0.0282 -0.7689 -0.9220
 8124TIP3   OH245862   4.566   1.526   5.558 -0.6828  0.0813  0.4451
 8124TIP3    H145863   4.637   1.495   5.502 -0.9277 -0.8142  0.6204
 8124TIP3    H245864   4.602   1.523   5.647 -0.3417  1.3649  0.3617
 8125TIP3   OH245865   5.446   0.628   4.746  0.1324  0.5663  0.5492
 8125TIP3    H145866   5.469   0.680   4.669  0.5167 -0.8907 -0.3362
 8125TIP3    H245867   5.363   0.587   4.724  0.3004  0.0488  0.8603
 8126TIP3   OH245868   1.919   4.769   6.616 -0.1687 -0.1699  0.0598
 8126TIP3    H145869   1.909   4.678   6.643 -0.6745  0.0345  0.5720
 8126TIP3    H245870   2.013   4.783   6.611 -0.0851 -0.5155  0.6696
 8127TIP3   OH245871   1.040   1.412  11.575  0.0450 -0.0532 -0.3334
 8127TIP3    H145872   0.956   1.374  11.549  0.6288 -0.7231 -1.2488
 8127TIP3    H245873   1.062   1.369  11.658 -0.7975  0.5562  0.2136
 8128TIP3   OH245874   1.514   4.662  14.728 -0.1887  0.0341  0.3812
 8128TIP3    H145875   1.574   4.674  14.802 -1.2265 -0.0123  1.2579
 8128TIP3    H245876   1.482   4.573  14.738 -0.2835  0.0090 -0.1635
 8129TIP3   OH245877   0.683   0.954  16.543  0.1367  0.3821  0.5595
 8129TIP3    H145878   0.670   0.870  16.497  0.4512  0.7363 -0.1870
 8129TIP3    H245879   0.769   0.984  16.513 -0.0211  1.0258  0.7513
 8130TIP3   OH245880   5.217   0.879   4.521 -0.2678  0.1729  0.0624
 8130TIP3    H145881   5.209   0.866   4.615  0.5900 -0.7723  0.0114
 8130TIP3    H245882   5.139   0.837   4.484  1.1083 -2.5197  0.1086
 8131TIP3   OH245883   6.053   3.521  11.737  0.4546  0.2665  0.1765
 8131TIP3    H145884   6.115   3.453  11.709  0.0528 -0.7579  1.7344
 8131TIP3    H245885   6.034   3.500  11.828 -0.0877  2.1773  0.5224
 8132TIP3   OH245886   0.564   5.554   5.644 -0.1871  0.4212  0.4388
 8132TIP3    H145887   0.603   5.641   5.652  0.7672 -0.1632  2.3486
 8132TIP3    H245888   0.555   5.523   5.734  0.4353 -1.8876 -0.2554
 8133TIP3   OH245889   2.857   2.365  17.081 -0.0479  0.4381 -0.1619
 8133TIP3    H145890   2.879   2.288  17.029 -1.2933 -0.4499  0.6008
 8133TIP3    H245891   2.921   2.431  17.054  0.7733 -0.7232 -1.1235
 8134TIP3   OH245892   3.226   6.319   1.601  0.1409 -0.2794 -0.2862
 8134TIP3    H145893   3.279   6.385   1.645 -0.2218 -0.8422  1.0199
 8134TIP3    H245894   3.279   6.240   1.604 -1.0421 -1.0576  1.7428
 8135TIP3   OH245895   1.594   6.427   5.536  0.0912  0.4070  0.2563
 8135TIP3    H145896   1.514   6.379   5.516  2.2763 -2.5573 -2.0004
 8135TIP3    H245897   1.596   6.498   5.472 -0.9154  0.7064  0.5562
 8136TIP3   OH245898   1.111   2.276   4.874  0.1022  0.6836  0.0540
 8136TIP3    H145899   1.166   2.314   4.805 -1.7831 -0.2356 -2.0293
 8136TIP3    H245900   1.151   2.191   4.893  0.1526  0.5785 -0.5165
 8137TIP3   OH245901   0.103   5.552  13.819  0.0479  0.2005  0.7505
 8137TIP3    H145902   0.198   5.558  13.812  0.1251 -0.4269  1.1933
 8137TIP3    H245903   0.078   5.491  13.749 -0.0060  0.2170  0.7559
 8138TIP3   OH245904   4.982   2.309   0.717  0.1240  0.4493  0.0208
 8138TIP3    H145905   4.992   2.276   0.806  2.3330  0.3754 -0.2174
 8138TIP3    H245906   5.055   2.270   0.669 -2.5048 -1.6208 -2.4792
 8139TIP3   OH245907   6.546   5.464  15.838  0.3903  0.1813  0.1606
 8139TIP3    H145908   6.554   5.527  15.766 -0.2934 -0.4617 -0.4906
 8139TIP3    H245909   6.520   5.516  15.913 -1.4350  0.4944 -0.6814
 8140TIP3   OH245910   6.378   6.171   0.010  0.2895  0.1639  0.1381
 8140TIP3    H145911   6.361   6.115  -0.066 -2.0194 -0.3648  0.9904
 8140TIP3    H245912   6.466   6.205  -0.004  0.9991 -2.1836 -1.3404
 8141TIP3   OH245913   6.300   5.772  12.255 -0.1414 -0.3526  0.3424
 8141TIP3    H145914   6.308   5.689  12.209 -0.0866 -0.7398  1.0302
 8141TIP3    H245915   6.357   5.832  12.208  0.5018 -0.9403  0.3635
 8142TIP3   OH245916   1.947   2.088   1.736 -0.1936  0.4046 -0.1735
 8142TIP3    H145917   1.880   2.072   1.670 -1.5753 -0.6592  1.4276
 8142TIP3    H245918   1.955   2.184   1.740 -0.7335  0.4921 -1.2398
 8143TIP3   OH245919   5.737   1.898  14.691  0.3563  0.5521  0.0240
 8143TIP3    H145920   5.773   1.810  14.680  2.2151  1.4083 -1.0062
 8143TIP3    H245921   5.653   1.885  14.736  0.1480 -1.8032 -1.0159
 8144TIP3   OH245922   2.657   2.066   0.486 -0.2256  0.3183  0.1851
 8144TIP3    H145923   2.585   2.003   0.479 -0.3027  0.3953  0.2686
 8144TIP3    H245924   2.618   2.149   0.456  0.4059 -0.0617 -1.7715
 8145TIP3   OH245925   6.615   4.125  13.766  0.2046  0.5008 -0.0560
 8145TIP3    H145926   6.657   4.140  13.681 -1.0482  1.6082 -0.5096
 8145TIP3    H245927   6.685   4.094  13.823  1.2651  0.6559 -1.2508
 8146TIP3   OH245928   0.767   3.092  10.886 -0.2004  0.2370 -0.1141
 8146TIP3    H145929   0.809   3.011  10.857 -0.0194  0.5389 -0.6950
 8146TIP3    H245930   0.678   3.086  10.853 -0.5150 -0.2162  0.7742
 8147TIP3   OH245931   1.074   6.088   5.081 -0.2547 -0.0812 -0.0009
 8147TIP3    H145932   1.001   6.089   5.143 -0.3803 -0.8217 -0.1307
 8147TIP3    H245933   1.141   6.034   5.124 -0.3346 -0.5809 -0.4939
 8148TIP3   OH245934   6.477   2.221   6.482 -0.0141  0.3832 -0.0539
 8148TIP3    H145935   6.500   2.129   6.492  0.5492  0.6182  0.8630
 8148TIP3    H245936   6.386   2.220   6.454 -0.5613 -0.4015  1.7310
 8149TIP3   OH245937   1.570   1.977   0.590 -0.1470  0.2130 -0.1423
 8149TIP3    H145938   1.630   2.050   0.572 -1.5660  1.5067  0.2148
 8149TIP3    H245939   1.540   1.949   0.504  1.0489 -0.5377 -0.3333
 8150TIP3   OH245940   1.116   5.861   0.476  0.0283  0.3219  0.0852
 8150TIP3    H145941   1.203   5.842   0.441  0.3233  0.4562  0.7376
 8150TIP3    H245942   1.073   5.776   0.480 -0.4608  0.4638 -1.7876
 8151TIP3   OH245943   6.172   0.031  14.513 -0.2331  0.7181  0.1545
 8151TIP3    H145944   6.196   0.078  14.433  0.2059  1.6121  0.8018
 8151TIP3    H245945   6.134   0.098  14.569 -0.6635  0.0660  0.6475
 8152TIP3   OH245946   0.345   0.236   4.320  0.5813 -0.3031 -0.6316
 8152TIP3    H145947   0.352   0.331   4.318  1.2435 -0.2902  1.7842
 8152TIP3    H245948   0.436   0.205   4.319  0.3659 -0.9458 -1.8187
 8153TIP3   OH245949   0.948   4.037  13.145 -0.0775  0.6010 -0.2124
 8153TIP3    H145950   0.945   4.001  13.233 -1.3234  1.7595  0.2333
 8153TIP3    H245951   1.017   4.103  13.148 -0.4408  0.9714  0.0310
 8154TIP3   OH245952   0.628   2.120  11.355  0.8034 -0.0572 -0.1899
 8154TIP3    H145953   0.631   2.055  11.284 -1.2923  0.9727 -1.2640
 8154TIP3    H245954   0.602   2.201  11.311 -0.0583  0.7085  1.7079
 8155TIP3   OH245955   3.093   4.793  16.442  0.9298  0.2268 -0.5416
 8155TIP3    H145956   3.115   4.720  16.384  0.7638 -1.1062  1.0383
 8155TIP3    H245957   3.081   4.753  16.528  0.5866  2.0872  0.3088
 8156TIP3   OH245958   1.819   3.877  13.508 -0.2583  0.1312  0.6376
 8156TIP3    H145959   1.835   3.864  13.415 -1.1646  1.9899  0.2038
 8156TIP3    H245960   1.900   3.847  13.551  0.7815  0.7446 -0.8525
 8157TIP3   OH245961   5.477   2.248  16.676 -0.2535 -0.0166 -0.0710
 8157TIP3    H145962   5.470   2.154  16.661 -0.1291 -0.2550  1.2725
 8157TIP3    H245963   5.532   2.256  16.754 -3.0760  1.0096  1.8950
 8158TIP3   OH245964   5.581   6.133   4.055  0.0310 -0.6281  0.6302
 8158TIP3    H145965   5.673   6.138   4.029 -0.2281  0.1897 -0.1677
 8158TIP3    H245966   5.576   6.177   4.140  0.3203 -0.3814  0.5173
 8159TIP3   OH245967   4.049   2.819  14.081  0.2094 -0.0241 -0.0529
 8159TIP3    H145968   4.122   2.847  14.027  0.7439 -0.0311  0.6570
 8159TIP3    H245969   3.971   2.846  14.032  0.6821 -0.1125 -0.8567
 8160TIP3   OH245970   5.860   3.024   0.932  0.2018 -0.1876  0.2902
 8160TIP3    H145971   5.916   3.101   0.942 -1.9601  1.5948 -0.7450
 8160TIP3    H245972   5.786   3.041   0.991 -0.0337 -1.7152  0.4494
 8161TIP3   OH245973   4.379   5.201  12.370 -0.2299  0.3926 -0.0229
 8161TIP3    H145974   4.459   5.255  12.372 -1.0706  1.6376  0.5413
 8161TIP3    H245975   4.358   5.188  12.462 -0.1772 -0.6973 -0.1645
 8162TIP3   OH245976   4.011   1.924  13.026  0.1626 -0.5513  0.3282
 8162TIP3    H145977   3.974   1.999  13.073  1.4027  0.8717 -0.9056
 8162TIP3    H245978   3.955   1.914  12.949  0.2558 -0.6296  0.2702
 8163TIP3   OH245979   4.441   3.171   5.563  0.0000  0.3619  0.1953
 8163TIP3    H145980   4.529   3.177   5.599 -0.0868 -0.6899  0.5841
 8163TIP3    H245981   4.404   3.092   5.601 -1.6980  1.6381  1.2860
 8164TIP3   OH245982   3.901   5.333  16.726 -0.1690  0.4367  0.2800
 8164TIP3    H145983   3.925   5.253  16.679  1.4043  0.5298  0.8910
 8164TIP3    H245984   3.979   5.388  16.720 -1.0173  1.6700  0.4267
 8165TIP3   OH245985   1.244   6.518   6.582 -0.4121 -0.1031 -0.0297
 8165TIP3    H145986   1.228   6.542   6.673  0.1881 -1.6763  0.5128
 8165TIP3    H245987   1.186   6.443   6.567  0.3536 -0.6005 -0.5599
 8166TIP3   OH245988   0.271   2.516  15.190 -0.0791 -0.1687 -0.2484
 8166TIP3    H145989   0.366   2.528  15.190 -0.1574  0.6757 -1.6246
 8166TIP3    H245990   0.253   2.476  15.104 -0.8704 -1.1916  0.3898
 8167TIP3   OH245991   1.109   2.518  14.797 -0.0933  0.0386  0.0393
 8167TIP3    H145992   1.182   2.547  14.853  0.4767  1.2091 -1.2533
 8167TIP3    H245993   1.152   2.481  14.720 -0.8699 -0.2010 -0.2777
 8168TIP3   OH245994   1.199   0.024  16.322 -0.3935 -0.4330  0.0879
 8168TIP3    H145995   1.274  -0.020  16.362 -0.9358 -0.3483  1.2236
 8168TIP3    H245996   1.230   0.113  16.303 -0.1120 -0.4963  0.2538
 8169TIP3   OH245997   3.287   3.039   4.929  0.2078 -0.1992  0.2586
 8169TIP3    H145998   3.322   2.954   4.903 -0.7762 -1.3057  2.4439
 8169TIP3    H245999   3.308   3.047   5.022 -0.3774  1.6086  0.2590
 8170TIP3   OH246000   0.762   6.645  13.987 -0.3899  0.1164  0.2592
 8170TIP3    H146001   0.707   6.721  14.008  0.0299  0.5453 -0.1940
 8170TIP3    H246002   0.702   6.583  13.946 -0.7155  0.2404  0.5410
 8171TIP3   OH246003   0.328   6.533   0.601  0.3359  0.6119 -0.0547
 8171TIP3    H146004   0.301   6.479   0.526  0.5821 -2.8859  2.2498
 8171TIP3    H246005   0.255   6.592   0.615 -0.7531 -0.3194 -1.5901
 8172TIP3   OH246006   4.795   3.049   5.416 -0.1909  0.3553  0.4705
 8172TIP3    H146007   4.874   3.034   5.466 -0.3302  0.3575  0.6934
 8172TIP3    H246008   4.789   2.974   5.357 -0.5416 -0.1396  1.1308
 8173TIP3   OH246009   6.463   0.240   0.465  0.0035 -0.1350  0.4692
 8173TIP3    H146010   6.484   0.168   0.405 -0.1409  1.0915 -1.0612
 8173TIP3    H246011   6.530   0.306   0.448 -2.0862  1.7122 -0.8903
 8174TIP3   OH246012   6.730   2.593  11.353 -0.6870 -0.1154  0.7753
 8174TIP3    H146013   6.794   2.534  11.392 -2.0828 -0.8101  2.0890
 8174TIP3    H246014   6.726   2.568  11.260 -0.0346 -0.9463  0.9741
 8175TIP3   OH246015   6.804   4.230  11.633  0.5708  0.5133  0.2712
 8175TIP3    H146016   6.799   4.135  11.624 -0.8910  0.6427 -0.4232
 8175TIP3    H246017   6.807   4.263  11.543 -1.2174  1.2216  0.4466
 8176TIP3   OH246018   0.145   1.516   3.460  0.1842  0.3934  0.6135
 8176TIP3    H146019   0.053   1.493   3.445  0.4028  0.9607 -1.7278
 8176TIP3    H246020   0.155   1.603   3.421  2.3184 -0.7255 -1.4330
 8177TIP3   OH246021   2.663   3.901  17.035 -0.1081 -0.2177 -0.2542
 8177TIP3    H146022   2.701   3.872  16.953  1.4228  1.3563 -0.1364
 8177TIP3    H246023   2.572   3.874  17.031 -0.4066  1.0831 -3.0758
 8178TIP3   OH246024   0.980   5.494  15.891  0.1235  0.1596  0.0631
 8178TIP3    H146025   0.931   5.438  15.831 -0.0453  0.6783 -0.2858
 8178TIP3    H246026   1.011   5.434  15.959 -0.2855 -0.3130 -0.1591
 8179TIP3   OH246027   5.573   4.980   5.647 -0.4299 -0.0195 -0.6121
 8179TIP3    H146028   5.614   4.993   5.732 -0.0665  0.5284 -0.8672
 8179TIP3    H246029   5.591   5.061   5.599 -4.5387  1.6168  0.3692
 8180TIP3   OH246030   4.148   0.367  14.538  0.1436 -0.1208 -0.0920
 8180TIP3    H146031   4.115   0.446  14.496 -0.5822 -0.4675 -0.1728
 8180TIP3    H246032   4.125   0.296  14.478 -0.8773 -0.6189  0.8711
 8181TIP3   OH246033   5.953   6.312   3.926 -0.0038  0.4596 -0.1680
 8181TIP3    H146034   6.015   6.366   3.877  0.5848  0.1442  0.2107
 8181TIP3    H246035   6.009   6.249   3.972 -0.6022  0.2586  0.2830
 8182TIP3   OH246036   0.159   4.221   5.407  0.4327 -0.5345 -0.1695
 8182TIP3    H146037   0.095   4.202   5.338  0.3171  1.9240 -0.8045
 8182TIP3    H246038   0.108   4.218   5.488 -0.1546 -0.1622 -0.5176
 8183TIP3   OH246039   1.675   3.908   5.872  0.0692 -0.1944 -0.2492
 8183TIP3    H146040   1.725   3.832   5.900  0.4396  0.4487  0.8962
 8183TIP3    H246041   1.643   3.947   5.954 -0.0161  0.9378 -0.8022
 8184TIP3   OH246042   4.405   5.669  14.855 -0.1971 -0.4377 -0.0492
 8184TIP3    H146043   4.407   5.617  14.775  0.2877 -0.8880  0.2497
 8184TIP3    H246044   4.496   5.699  14.867 -0.3640  0.0295  0.0729
 8185TIP3   OH246045   3.165   2.264  13.862 -0.8909 -0.1000  0.4789
 8185TIP3    H146046   3.133   2.202  13.796 -0.3555  1.7838 -1.6335
 8185TIP3    H246047   3.256   2.237  13.877 -1.0120 -0.5302  0.4631
 8186TIP3   OH246048   0.578   4.275  16.998 -0.0964 -0.4332 -0.0768
 8186TIP3    H146049   0.573   4.180  16.997 -0.9096 -0.3935  0.0672
 8186TIP3    H246050   0.490   4.304  16.975  0.4446  0.2797 -1.2956
 8187TIP3   OH246051   4.810   5.109   4.088 -0.3758  0.1807  0.0910
 8187TIP3    H146052   4.775   5.021   4.073 -0.9626  0.2504  1.0396
 8187TIP3    H246053   4.737   5.168   4.072 -0.9834  0.2719  2.9311
 8188TIP3   OH246054   4.541   6.108   1.193 -0.0834  0.3697  0.3274
 8188TIP3    H146055   4.632   6.086   1.213  0.1815 -0.6418 -1.9029
 8188TIP3    H246056   4.502   6.129   1.278  1.9856 -0.0913  1.4061
 8189TIP3   OH246057   3.929   2.070  12.626  0.1991 -0.2499 -0.3126
 8189TIP3    H146058   3.906   2.161  12.607 -0.4608 -0.5246 -0.8286
 8189TIP3    H246059   3.991   2.076  12.699 -1.7741  0.4842  1.3524
 8190TIP3   OH246060   1.981   3.469  13.533  0.7439  0.0014  0.7766
 8190TIP3    H146061   1.916   3.507  13.475  0.6512  0.0948  0.9394
 8190TIP3    H246062   1.966   3.375  13.530  1.2928 -0.0625 -0.0067
 8191TIP3   OH246063   0.582   2.512  12.908  0.0186 -0.2492 -0.5699
 8191TIP3    H146064   0.498   2.470  12.888  0.4525 -1.8450  0.8845
 8191TIP3    H246065   0.645   2.464  12.854  0.1671  0.1835 -0.7810
 8192TIP3   OH246066   4.284   1.134   2.806  0.1230 -0.1784  0.3351
 8192TIP3    H146067   4.319   1.082   2.734 -0.0476  0.8663 -0.5095
 8192TIP3    H246068   4.189   1.125   2.799  0.1352 -0.9862  1.1162
 8193TIP3   OH246069   4.304   4.523   2.355 -0.1509 -0.4156 -0.3755
 8193TIP3    H146070   4.361   4.518   2.278  0.2173 -0.0791 -0.1247
 8193TIP3    H246071   4.330   4.449   2.410 -0.2001 -0.4685 -0.4221
 8194TIP3   OH246072   6.485   3.551  14.665 -0.6010  0.4052  0.3306
 8194TIP3    H146073   6.540   3.472  14.663  0.6982  1.2506  1.7688
 8194TIP3    H246074   6.450   3.554  14.753 -1.5575  0.8396 -0.0615
 8195TIP3   OH246075   1.751   6.712  11.869  0.4332  0.0803 -0.0157
 8195TIP3    H146076   1.675   6.654  11.858 -1.8032  2.9013  0.0292
 8195TIP3    H246077   1.776   6.735  11.780  0.5115  0.0623  0.0016
 8196TIP3   OH246078   4.926   0.721  13.951 -0.6706 -0.5349  0.0526
 8196TIP3    H146079   5.019   0.716  13.931 -1.0301 -0.6437 -1.6624
 8196TIP3    H246080   4.883   0.678  13.878 -2.0411 -1.1611  1.1949
 8197TIP3   OH246081   1.852   0.503  14.274 -1.0345  0.0432 -0.4021
 8197TIP3    H146082   1.803   0.524  14.194  0.2456 -4.4444 -2.4961
 8197TIP3    H246083   1.797   0.441  14.321  0.5053 -1.3811 -0.4360
 8198TIP3   OH246084   1.286   4.308   3.325  0.1225  0.1516 -0.4265
 8198TIP3    H146085   1.321   4.229   3.284  2.3188  0.4182  0.8296
 8198TIP3    H246086   1.303   4.378   3.261  0.2377 -0.0291 -0.5937
 8199TIP3   OH246087   1.418   3.124  15.663  0.3123  0.1867  0.3519
 8199TIP3    H146088   1.464   3.161  15.587  0.4978 -0.7357  0.0057
 8199TIP3    H246089   1.424   3.030  15.650 -2.0302  0.0381  0.0877
 8200TIP3   OH246090   5.227   0.687   4.095 -0.2152  0.2268 -0.3573
 8200TIP3    H146091   5.188   0.602   4.073 -0.9059  0.1700  1.0610
 8200TIP3    H246092   5.277   0.671   4.175 -0.7384  1.2754  0.1808
 8201TIP3   OH246093   4.661   1.497   1.244 -0.2267  0.2850  0.1174
 8201TIP3    H146094   4.652   1.458   1.330  0.3341 -0.4341 -0.1422
 8201TIP3    H246095   4.575   1.488   1.203 -0.3294  0.0934  0.3797
 8202TIP3   OH246096   1.893   0.050  10.581 -0.3798  0.3538 -0.9563
 8202TIP3    H146097   1.960   0.100  10.626  0.0688 -0.4169 -0.7628
 8202TIP3    H246098   1.862  -0.013  10.647 -0.7626  0.2111 -1.2704
 8203TIP3   OH246099   6.385   5.256  15.683 -0.2785  0.1800 -0.5026
 8203TIP3    H146100   6.458   5.211  15.641  0.1981 -0.7713  1.2744
 8203TIP3    H246101   6.425   5.331  15.726 -0.6919  0.8989 -1.3636
 8204TIP3   OH246102   3.955   0.132   4.154  0.1612 -0.4805 -0.3082
 8204TIP3    H146103   4.018   0.119   4.225  0.9972 -0.9884 -1.1370
 8204TIP3    H246104   3.971   0.221   4.123  0.4598 -0.6030 -0.5057
 8205TIP3   OH246105   3.511   5.227   0.657 -0.1847  0.7614  0.2214
 8205TIP3    H146106   3.473   5.154   0.607  0.5322 -0.0639  0.8731
 8205TIP3    H246107   3.546   5.285   0.591 -1.6229  1.0022 -0.3535
 8206TIP3   OH246108   0.097   1.376  11.028 -0.2251 -0.1461  0.4450
 8206TIP3    H146109   0.089   1.471  11.037 -1.9184  0.0298 -2.3837
 8206TIP3    H246110   0.143   1.364  10.945  0.8555 -1.8206  1.2533
 8207TIP3   OH246111   6.175   0.335   5.499  0.2393  0.0993  0.0065
 8207TIP3    H146112   6.210   0.323   5.587  1.2022  0.7631 -0.2826
 8207TIP3    H246113   6.082   0.311   5.507  0.0111  1.4014  1.5019
 8208TIP3   OH246114   3.000   1.990  14.362 -0.3826  0.4696  0.6612
 8208TIP3    H146115   3.070   2.052  14.381 -0.3321  0.4499  0.5432
 8208TIP3    H246116   3.029   1.908  14.402 -0.0630  0.3101  0.1115
 8209TIP3   OH246117   1.821   6.664   4.961  0.1900 -0.0165  0.1485
 8209TIP3    H146118   1.759   6.724   4.919  0.5906 -0.2855 -0.8352
 8209TIP3    H246119   1.785   6.577   4.943 -0.5001 -0.0716  1.7466
 8210TIP3   OH246120   2.352   5.265   0.688 -0.3290  0.6096 -0.0693
 8210TIP3    H146121   2.300   5.305   0.758 -1.4451  1.8570 -1.5906
 8210TIP3    H246122   2.320   5.306   0.608  1.7055  0.0056 -1.2203
 8211TIP3   OH246123   4.849   0.894   2.498 -0.2235  0.0104  0.5934
 8211TIP3    H146124   4.766   0.889   2.450  0.4725  1.8033 -0.8629
 8211TIP3    H246125   4.894   0.813   2.475 -0.7575 -0.0859 -0.1617
 8212TIP3   OH246126   1.561   2.586  17.251  0.3963  0.1009  0.5821
 8212TIP3    H146127   1.496   2.570  17.183  0.2576 -0.0719  0.7575
 8212TIP3    H246128   1.513   2.577  17.333  1.0227 -1.8687  0.7698
 8213TIP3   OH246129   3.714   1.180  11.823 -0.7254  0.0877  0.4464
 8213TIP3    H146130   3.778   1.109  11.823  1.1507  1.7546  1.1664
 8213TIP3    H246131   3.663   1.166  11.903  1.3162  1.0416  1.9201
 8214TIP3   OH246132   3.498   0.080  16.675 -0.1143 -0.2746  0.1887
 8214TIP3    H146133   3.462  -0.004  16.647 -0.8722 -0.0425  0.4392
 8214TIP3    H246134   3.520   0.067  16.767  1.2741 -0.6805 -0.1886
 8215TIP3   OH246135   1.615   2.161  16.762 -0.5632  0.1163  0.4219
 8215TIP3    H146136   1.684   2.121  16.815  0.0082  0.9046  0.2818
 8215TIP3    H246137   1.568   2.086  16.725 -0.5933 -0.4353  1.5502
 8216TIP3   OH246138   4.955   4.549   1.912 -0.5091  0.5681  0.2098
 8216TIP3    H146139   5.038   4.548   1.960 -0.6059 -0.8561  0.3876
 8216TIP3    H246140   4.959   4.627   1.858  1.4282 -0.0586 -0.6114
 8217TIP3   OH246141   1.035   5.080   4.439  0.1112  0.4083 -0.2212
 8217TIP3    H146142   1.118   5.061   4.484  0.7219  0.7172 -1.2020
 8217TIP3    H246143   0.985   4.998   4.446 -0.1765  0.7258  1.7931
 8218TIP3   OH246144   5.050   5.305  11.631  0.3337 -0.4402  0.1842
 8218TIP3    H146145   5.051   5.217  11.592  0.7319  0.5659 -2.1542
 8218TIP3    H246146   5.076   5.291  11.722  2.0875 -2.5486 -0.5886
 8219TIP3   OH246147   1.446   3.851  15.755  0.1769  0.1080  0.1970
 8219TIP3    H146148   1.528   3.805  15.773  0.6324  1.4935  1.8766
 8219TIP3    H246149   1.393   3.837  15.834 -0.1709  1.3639  0.2022
 8220TIP3   OH246150   0.739   1.397   4.717 -0.0826  0.2530  0.3253
 8220TIP3    H146151   0.835   1.397   4.724 -0.0955  0.9571  0.5731
 8220TIP3    H246152   0.721   1.351   4.635  0.5269  1.4788 -0.5024
 8221TIP3   OH246153   1.786   2.600   3.978 -0.0171  0.0680  0.2794
 8221TIP3    H146154   1.842   2.552   3.918  0.6907  1.2587 -0.0177
 8221TIP3    H246155   1.792   2.692   3.950 -2.5314  0.1686 -0.1214
 8222TIP3   OH246156   1.279   4.663  15.247  0.2125  0.2904 -0.3375
 8222TIP3    H146157   1.357   4.705  15.285 -0.2058  0.6505  0.1375
 8222TIP3    H246158   1.306   4.573  15.229  1.2531  0.8722 -1.7575
 8223TIP3   OH246159   6.202   0.170   0.315 -0.4796  0.3831 -0.6631
 8223TIP3    H146160   6.284   0.185   0.362 -1.0879  2.3087 -0.1932
 8223TIP3    H246161   6.184   0.076   0.327  0.8843  0.2554  0.4560
 8224TIP3   OH246162   2.998   5.574   3.018 -1.1582 -0.7435  0.0766
 8224TIP3    H146163   3.021   5.566   2.926 -1.4222 -2.3956  0.1318
 8224TIP3    H246164   2.913   5.531   3.025 -0.2840 -2.3152  1.4246
 8225TIP3   OH246165   2.350   6.292  17.110 -0.6965  0.2005  0.3874
 8225TIP3    H146166   2.439   6.315  17.135 -0.1108 -3.7405  2.3446
 8225TIP3    H246167   2.360   6.249  17.024 -0.9016  0.9833 -0.0319
 8226TIP3   OH246168   0.210   5.742   6.188 -0.0036 -0.1737 -0.2316
 8226TIP3    H146169   0.233   5.747   6.281 -1.4082  0.6203  0.0893
 8226TIP3    H246170   0.294   5.737   6.143  0.7694  1.3334  0.9794
 8227TIP3   OH246171   1.283   1.668  14.760 -0.1601 -0.1807  0.2402
 8227TIP3    H146172   1.358   1.618  14.726 -0.7649 -1.7231  1.1442
 8227TIP3    H246173   1.225   1.678  14.684  0.0606 -0.6684  0.0041
 8228TIP3   OH246174   4.503   2.360   5.436  0.2438 -0.0197 -0.0920
 8228TIP3    H146175   4.513   2.404   5.351 -0.3599  0.4789  0.0905
 8228TIP3    H246176   4.541   2.422   5.499  0.5824 -0.3362  0.0126
 8229TIP3   OH246177   3.972   3.182  13.413 -0.0605 -0.4104  0.0107
 8229TIP3    H146178   4.009   3.094  13.408 -1.1900 -1.0444  2.3956
 8229TIP3    H246179   3.899   3.180  13.350 -0.3898 -1.3360  0.4120
 8230TIP3   OH246180   0.196   1.586   0.676 -0.3711  0.6717 -0.1416
 8230TIP3    H146181   0.125   1.596   0.739 -2.2696 -1.5989 -1.8367
 8230TIP3    H246182   0.213   1.675   0.645 -1.0859  1.4900  1.7791
 8231TIP3   OH246183   4.569   1.722   0.737  0.2223 -0.8697 -0.0327
 8231TIP3    H146184   4.628   1.754   0.805  0.7437 -1.2408 -0.3099
 8231TIP3    H246185   4.542   1.635   0.768 -2.0123  0.2169  1.2375
 8232TIP3   OH246186   0.593   4.118   1.354  0.0798 -0.1872  0.5584
 8232TIP3    H146187   0.568   4.042   1.300  3.5086 -0.2891 -1.0615
 8232TIP3    H246188   0.617   4.081   1.438  1.3750 -0.8970 -0.1077
 8233TIP3   OH246189   6.438   4.662  17.003  0.1263 -0.0281 -0.3064
 8233TIP3    H146190   6.451   4.584  16.949 -2.0178  0.1331 -1.1018
 8233TIP3    H246191   6.343   4.672  17.009  0.3587  2.8795 -0.7366
 8234TIP3   OH246192   5.605   6.243   1.277  0.3840  0.6266 -0.3712
 8234TIP3    H146193   5.563   6.203   1.200 -0.0990 -0.2459  0.3319
 8234TIP3    H246194   5.595   6.177   1.346  1.1493  1.2514  0.3359
 8235TIP3   OH246195   0.639   1.675  14.260 -0.0808  0.4810 -0.5954
 8235TIP3    H146196   0.585   1.600  14.232 -0.2556  0.4794 -0.2486
 8235TIP3    H246197   0.596   1.751  14.222 -1.6750  0.7297  1.6371
 8236TIP3   OH246198   5.531   0.254   5.045 -0.8758 -0.6730 -0.4532
 8236TIP3    H146199   5.457   0.313   5.058 -0.2275 -0.0070  0.3254
 8236TIP3    H246200   5.500   0.169   5.074 -1.2761 -0.3558  0.0564
 8237TIP3   OH246201   6.499   4.009  11.892  0.6972  0.3374 -0.0555
 8237TIP3    H146202   6.428   4.073  11.889 -0.4933 -0.9524  0.4234
 8237TIP3    H246203   6.499   3.977  11.982  1.8034  0.2289 -0.0812
 8238TIP3   OH246204   3.383   6.553   5.135  0.4873  0.5070 -0.5289
 8238TIP3    H146205   3.294   6.518   5.133  0.6205  0.1775 -0.7332
 8238TIP3    H246206   3.408   6.548   5.227  0.6979 -0.4344 -0.6285
 8239TIP3   OH246207   5.306   6.047  11.227 -0.5782 -0.6646 -0.2407
 8239TIP3    H146208   5.342   6.025  11.142  1.0922  1.3749 -0.0950
 8239TIP3    H246209   5.338   6.136  11.245 -1.2065 -0.9111  2.3328
 8240TIP3   OH246210   1.192   2.810   4.747 -0.2715  0.3912  0.0867
 8240TIP3    H146211   1.142   2.809   4.666  0.7088 -0.7482 -0.5237
 8240TIP3    H246212   1.132   2.846   4.812 -1.4794  0.1217 -0.8692
 8241TIP3   OH246213   3.320   1.598   5.499  0.3254 -0.7002 -0.2764
 8241TIP3    H146214   3.277   1.570   5.418 -1.4459 -0.7488  0.6555
 8241TIP3    H246215   3.283   1.684   5.517  1.8521 -0.0199 -0.3156
 8242TIP3   OH246216   0.581   0.671   3.564 -0.2720 -0.1230 -0.2841
 8242TIP3    H146217   0.596   0.724   3.642 -1.1857 -1.4962  0.8424
 8242TIP3    H246218   0.491   0.691   3.538 -1.5925 -3.0358  1.7175
 8243TIP3   OH246219   5.711   4.912  13.458  0.1089  0.1886  0.1366
 8243TIP3    H146220   5.797   4.931  13.419 -0.4067 -0.0376 -1.1351
 8243TIP3    H246221   5.688   4.993  13.504  0.2149  0.9030 -1.0229
 8244TIP3   OH246222   6.136   4.418  11.699  0.1568 -0.1744 -0.0055
 8244TIP3    H146223   6.147   4.502  11.654 -1.7442  0.1664  0.1320
 8244TIP3    H246224   6.225   4.392  11.724  0.8115  1.5563 -0.4914
 8245TIP3   OH246225   4.888   6.748  14.449  0.2739 -0.0851 -0.1811
 8245TIP3    H146226   4.859   6.686  14.516  1.1289  1.0411  1.2746
 8245TIP3    H246227   4.814   6.807  14.436  0.0314 -0.4335 -0.3787
 8246TIP3   OH246228   4.431   3.350   2.916 -0.5333 -0.2177 -0.2400
 8246TIP3    H146229   4.478   3.279   2.959 -0.0500  0.6619  0.7218
 8246TIP3    H246230   4.434   3.328   2.823 -1.2145 -1.9264  0.1338
 8247TIP3   OH246231   3.333   5.814   6.022 -0.2949 -0.0433 -0.5980
 8247TIP3    H146232   3.286   5.896   6.008  0.9716  1.0361  1.3575
 8247TIP3    H246233   3.420   5.829   5.984  0.0066 -0.4070 -0.0644
 8248TIP3   OH246234   0.333   6.632   4.577 -0.2468  0.3449  0.1558
 8248TIP3    H146235   0.369   6.585   4.652 -0.8995  0.1064  0.3214
 8248TIP3    H246236   0.346   6.724   4.598 -1.2515  0.3094  0.9833
 8249TIP3   OH246237   5.644   3.449   5.305  0.0563 -0.2612 -0.0095
 8249TIP3    H146238   5.611   3.379   5.248  1.3563 -0.4644 -0.5213
 8249TIP3    H246239   5.602   3.432   5.390  0.4372 -1.7180 -0.1057
 8250TIP3   OH246240   4.581   1.012  11.619  0.0151 -0.3557  0.2324
 8250TIP3    H146241   4.657   1.020  11.677  0.1390 -0.0336  0.0209
 8250TIP3    H246242   4.618   1.000  11.532 -0.1763 -0.0189  0.1051
 8251TIP3   OH246243   1.267   3.032   4.489  0.6384  0.1005  0.4182
 8251TIP3    H146244   1.345   3.011   4.540 -0.4629 -0.6732  1.8156
 8251TIP3    H246245   1.198   2.978   4.527 -0.4702  0.3708 -1.1499
 8252TIP3   OH246246   1.256   0.285  16.208 -0.4625 -0.0324  0.3524
 8252TIP3    H146247   1.219   0.345  16.143  1.5443 -0.5327 -1.2823
 8252TIP3    H246248   1.267   0.339  16.287 -2.4825  0.6967  0.1679
 8253TIP3   OH246249   4.344   5.533  11.558  0.9342 -0.0828  0.3116
 8253TIP3    H146250   4.276   5.476  11.595  0.0450 -0.4784 -1.8415
 8253TIP3    H246251   4.401   5.473  11.509  1.4266  0.5758  0.0806
 8254TIP3   OH246252   0.225   0.292  11.090 -0.0515  1.0459 -0.0006
 8254TIP3    H146253   0.241   0.198  11.096 -0.8845  0.8527 -0.6306
 8254TIP3    H246254   0.256   0.327  11.173  1.3313  0.3763 -0.2230
 8255TIP3   OH246255   1.853   6.207   3.357  0.2540 -0.1443 -0.4507
 8255TIP3    H146256   1.824   6.254   3.279  0.1565 -1.2010 -1.0571
 8255TIP3    H246257   1.864   6.117   3.328 -0.8036 -0.7682  0.9986
 8256TIP3   OH246258   1.388   1.475  10.712  0.3736 -0.1781 -0.3024
 8256TIP3    H146259   1.296   1.464  10.735  0.9465 -1.8390  1.2603
 8256TIP3    H246260   1.406   1.405  10.649  0.2722  0.9177 -1.5890
 8257TIP3   OH246261   5.752   5.143  14.979  0.4374 -1.0429  0.1758
 8257TIP3    H146262   5.743   5.056  14.940 -0.8693 -1.0005  0.3703
 8257TIP3    H246263   5.673   5.154  15.031  0.0806  0.6936 -0.7166
 8258TIP3   OH246264   0.945   5.598   1.858  0.0859 -0.0918 -0.3970
 8258TIP3    H146265   1.006   5.650   1.806 -1.7788  1.8628 -0.6611
 8258TIP3    H246266   0.895   5.548   1.793 -0.4724  0.3911 -0.3407
 8259TIP3   OH246267   5.012   6.064   2.642  0.2998 -0.7513  0.2928
 8259TIP3    H146268   4.968   5.980   2.628 -0.9661  0.1435 -1.2847
 8259TIP3    H246269   4.993   6.114   2.563  1.9959  0.6212  0.7313
 8260TIP3   OH246270   2.781   0.469   2.473  0.0209 -0.2757  0.3220
 8260TIP3    H146271   2.859   0.524   2.479 -0.3926  0.3250  0.1901
 8260TIP3    H246272   2.789   0.409   2.547  2.1330 -2.1994 -1.3902
 8261TIP3   OH246273   1.667   0.120  12.014  0.0328  0.2595 -0.0048
 8261TIP3    H146274   1.661   0.031  11.980 -1.2353  0.2980  0.0836
 8261TIP3    H246275   1.711   0.112  12.098  0.2269 -0.2454 -0.1601
 8262TIP3   OH246276   1.621   4.631  17.015  0.4285 -0.0980 -0.2578
 8262TIP3    H146277   1.569   4.698  17.060 -0.1797 -0.9339  0.2951
 8262TIP3    H246278   1.566   4.604  16.942  0.7787  0.1698 -0.6242
 8263TIP3   OH246279   2.823   6.306  16.237  0.5268  0.0037  0.0266
 8263TIP3    H146280   2.873   6.230  16.209 -0.1606 -0.1710 -0.7457
 8263TIP3    H246281   2.760   6.320  16.167  0.4801  1.1280  0.2946
 8264TIP3   OH246282   3.922   3.006   5.786  0.4730 -0.1065  0.0385
 8264TIP3    H146283   3.985   3.010   5.859  1.8101 -1.6332 -0.9936
 8264TIP3    H246284   3.975   3.027   5.709 -0.0017 -2.6774 -1.0040
 8265TIP3   OH246285   1.981   4.647   4.978 -0.4414 -0.3304 -0.0487
 8265TIP3    H146286   2.038   4.572   4.992 -0.8087 -0.4878  0.6070
 8265TIP3    H246287   2.041   4.721   4.969 -0.1535 -0.3357  1.6320
 8266TIP3   OH246288   0.023   0.088   1.781 -0.4256  0.0899  0.1268
 8266TIP3    H146289  -0.066   0.109   1.808 -0.9200 -2.0763  0.2456
 8266TIP3    H246290   0.015   0.051   1.693  0.7433  3.0566 -1.2973
 8267TIP3   OH246291   5.607   5.010   1.944  0.1224  0.3720  0.4445
 8267TIP3    H146292   5.603   4.917   1.922  1.0895  0.5405 -0.4699
 8267TIP3    H246293   5.524   5.046   1.911 -1.9585 -0.8057  4.0515
 8268TIP3   OH246294   4.599   3.902   0.124  0.2117  0.1118 -0.6882
 8268TIP3    H146295   4.539   3.888   0.050 -0.2756 -0.7015 -0.1511
 8268TIP3    H246296   4.669   3.957   0.088 -1.0323  1.3714 -1.2260
 8269TIP3   OH246297   1.542   1.001  10.354  0.6364  0.3248  0.2949
 8269TIP3    H146298   1.538   1.076  10.295 -0.7596 -0.6548 -0.8782
 8269TIP3    H246299   1.608   1.025  10.419  0.3065  2.5007 -0.1533
 8270TIP3   OH246300   2.112   2.955   2.752  0.0901  0.4678 -0.1787
 8270TIP3    H146301   2.124   2.860   2.761 -0.1528  0.5683  1.2684
 8270TIP3    H246302   2.201   2.990   2.744  0.3177  0.3613  1.8001
 8271TIP3   OH246303   4.394   0.743   2.732  0.0049 -0.0244  0.1917
 8271TIP3    H146304   4.372   0.656   2.765  0.8318 -0.8430 -1.3622
 8271TIP3    H246305   4.485   0.736   2.703 -0.3554  0.9502 -1.2412
 8272TIP3   OH246306   1.280   6.519   2.833  0.3027 -0.2702 -0.9249
 8272TIP3    H146307   1.269   6.448   2.895  0.7180 -1.0374 -1.7179
 8272TIP3    H246308   1.285   6.476   2.747 -1.2025  0.8240 -1.5889
 8273TIP3   OH246309   2.706   0.276  16.936 -0.5742 -0.5895  0.1839
 8273TIP3    H146310   2.776   0.290  17.000 -0.2813  0.4384 -0.3413
 8273TIP3    H246311   2.743   0.214  16.873  0.0985  0.4205 -0.4293
 8274TIP3   OH246312   0.997   0.777   4.245 -0.1118 -0.1893  0.0252
 8274TIP3    H146313   0.928   0.725   4.203 -0.1686  1.5497 -2.1317
 8274TIP3    H246314   1.061   0.792   4.176 -0.6632  3.5921  0.2163
 8275TIP3   OH246315   4.678   2.919  15.982  0.0103  0.5427  0.0994
 8275TIP3    H146316   4.750   2.968  16.022  1.9680 -0.5371 -2.0058
 8275TIP3    H246317   4.631   2.985  15.930  1.2992  0.6858 -0.9243
 8276TIP3   OH246318   2.227   6.687  17.143 -0.1485  0.4848 -0.1075
 8276TIP3    H146319   2.242   6.653  17.231 -4.5792  2.7797  1.7223
 8276TIP3    H246320   2.277   6.769  17.140  2.5267 -1.1391 -0.9218
 8277TIP3   OH246321   1.669   2.929   0.895 -0.1475  0.1184  0.0063
 8277TIP3    H146322   1.636   2.856   0.948 -1.4485  0.1870 -0.6762
 8277TIP3    H246323   1.739   2.967   0.948  1.1647 -2.1572 -0.0111
 8278TIP3   OH246324   4.146   2.885  15.366  0.2668  0.7889 -0.0570
 8278TIP3    H146325   4.113   2.796  15.357 -1.3562  1.6078 -2.5237
 8278TIP3    H246326   4.072   2.934  15.402 -0.1600  1.9006 -2.3416
 8279TIP3   OH246327   0.692   3.329  16.843 -0.4097 -0.1537 -0.0065
 8279TIP3    H146328   0.704   3.377  16.760  0.2892  0.7796  0.6199
 8279TIP3    H246329   0.676   3.398  16.908  0.2864 -0.8013  0.8574
 8280TIP3   OH246330   4.774   2.308   6.169  0.3220 -0.2904  0.2854
 8280TIP3    H146331   4.868   2.316   6.184  0.2867  1.8637 -0.3669
 8280TIP3    H246332   4.766   2.292   6.075 -0.0271  2.1178 -0.1270
 8281TIP3   OH246333   0.364   5.589   6.789  0.2388 -0.2799  0.6128
 8281TIP3    H146334   0.438   5.593   6.850 -0.1809  0.3168  1.0878
 8281TIP3    H246335   0.327   5.677   6.791 -0.4062 -0.5458  0.2784
 8282TIP3   OH246336   6.803   0.465  11.417 -0.0811 -0.1921 -0.5908
 8282TIP3    H146337   6.825   0.378  11.450 -1.2224  0.1157  1.0636
 8282TIP3    H246338   6.736   0.497  11.478  1.0090  2.2191 -0.6035
 8283TIP3   OH246339   3.995   1.443  12.002 -0.0367  0.3675  0.8901
 8283TIP3    H146340   4.042   1.364  11.975 -0.3776 -0.2851  2.1804
 8283TIP3    H246341   4.040   1.471  12.082  0.4330  1.8019  0.1376
 8284TIP3   OH246342   4.653   1.616  14.945 -0.5624  0.0930 -0.1716
 8284TIP3    H146343   4.616   1.664  14.871  0.4173 -0.9676 -1.3802
 8284TIP3    H246344   4.725   1.566  14.907  0.1165 -0.2752  1.5600
 8285TIP3   OH246345   4.153   0.987   0.175 -0.1791  0.1403 -0.0527
 8285TIP3    H146346   4.134   0.989   0.081 -1.2032  2.0098  0.1677
 8285TIP3    H246347   4.243   0.956   0.181  0.0064  0.3286 -1.6858
 8286TIP3   OH246348   4.999   2.215  13.991  0.6290  0.4289 -0.4076
 8286TIP3    H146349   5.062   2.146  13.970  0.6939 -0.0120  1.1951
 8286TIP3    H246350   5.042   2.267  14.059 -1.3403 -0.8042  1.8363
 8287TIP3   OH246351   3.505   1.741  15.013  0.4168  0.2739 -0.3166
 8287TIP3    H146352   3.573   1.754  15.078  0.5477  0.2298 -0.4428
 8287TIP3    H246353   3.542   1.677  14.952 -0.4524 -1.2270  0.6712
 8288TIP3   OH246354   0.303   5.139   5.023  0.1086 -0.3527  0.1130
 8288TIP3    H146355   0.282   5.046   5.038  1.7300 -0.6905  0.4423
 8288TIP3    H246356   0.231   5.187   5.064 -0.4664 -1.4589  0.4211
 8289TIP3   OH246357   0.785   0.549   0.477 -0.2742 -0.4106 -0.0421
 8289TIP3    H146358   0.772   0.465   0.520 -1.6710  0.3104  0.9953
 8289TIP3    H246359   0.711   0.556   0.416 -0.9822  0.7041  0.9308
 8290TIP3   OH246360   0.548   5.936  15.979 -0.1494 -0.2462  0.0907
 8290TIP3    H146361   0.549   6.032  15.984  1.2861 -0.2573  0.4044
 8290TIP3    H246362   0.567   5.907  16.068 -1.1457 -0.8340  0.1198
 8291TIP3   OH246363   6.179   1.681  12.517  0.1553 -0.4899  0.1328
 8291TIP3    H146364   6.114   1.616  12.492 -0.2232 -0.6053  1.3709
 8291TIP3    H246365   6.128   1.753  12.553  0.6757 -0.3829  0.6660
 8292TIP3   OH246366   0.782   2.984   0.946 -0.2048 -0.4592  0.2215
 8292TIP3    H146367   0.835   3.007   0.869 -0.4473  0.1650  0.2481
 8292TIP3    H246368   0.692   2.986   0.915 -0.3081 -0.1350  0.5449
 8293TIP3   OH246369   2.867   5.313   1.331 -0.0792  0.2802  0.3671
 8293TIP3    H146370   2.897   5.367   1.404  1.3419 -0.3072  0.2371
 8293TIP3    H246371   2.933   5.244   1.324 -0.3449  0.1907 -1.3121
 8294TIP3   OH246372   5.572   1.408  14.553  0.7208  0.0494 -0.1277
 8294TIP3    H146373   5.500   1.443  14.605  0.3183  0.9938 -1.2954
 8294TIP3    H246374   5.547   1.425  14.463  1.6931 -1.0287 -0.6156
 8295TIP3   OH246375   5.421   5.421   5.212 -0.2154 -0.3917 -0.1040
 8295TIP3    H146376   5.352   5.354   5.210 -0.0072 -0.6549  1.4796
 8295TIP3    H246377   5.377   5.500   5.242 -0.1531 -0.1554 -0.6218
 8296TIP3   OH246378   3.200   5.221   3.919 -0.2527 -0.8340 -0.0739
 8296TIP3    H146379   3.202   5.248   4.011  1.5937 -0.0749 -0.3109
 8296TIP3    H246380   3.162   5.133   3.920 -0.2438 -0.8235  1.4183
 8297TIP3   OH246381   2.329   4.128   5.135  0.1833 -0.4622 -0.2037
 8297TIP3    H146382   2.418   4.159   5.117  0.6621 -2.9321 -2.3223
 8297TIP3    H246383   2.340   4.041   5.171 -1.3872 -0.6196 -0.0671
 8298TIP3   OH246384   4.992   3.971   4.009 -0.6799  0.1008 -0.4453
 8298TIP3    H146385   4.954   3.884   4.009 -0.9114  0.1951  0.5631
 8298TIP3    H246386   5.012   3.989   3.917 -2.8493 -0.0567 -0.9870
 8299TIP3   OH246387   1.588   3.135  12.508 -0.2132  1.2129 -0.1743
 8299TIP3    H146388   1.494   3.116  12.506 -0.0970  0.3142  1.7566
 8299TIP3    H246389   1.614   3.122  12.599  1.8302  1.2947 -0.7039
 8300TIP3   OH246390   5.721   6.124   3.533  0.3183  0.3185 -0.0925
 8300TIP3    H146391   5.654   6.114   3.466  0.7160 -0.9697 -0.3168
 8300TIP3    H246392   5.711   6.048   3.590  1.8535 -0.1314 -0.3844
 8301TIP3   OH246393   1.026   1.640   3.665 -0.0804  0.2022 -0.3394
 8301TIP3    H146394   0.978   1.653   3.746 -1.6770  0.5695 -1.3268
 8301TIP3    H246395   1.048   1.546   3.665  2.7523  0.8072  2.0139
 8302TIP3   OH246396   3.344   2.150  11.757  0.1106 -0.5321  0.2386
 8302TIP3    H146397   3.410   2.084  11.776  0.6398 -0.5208 -1.5296
 8302TIP3    H246398   3.368   2.224  11.813  1.3233 -0.6996 -0.0387
 8303TIP3   OH246399   4.418   3.579  12.754 -0.2037 -0.1933  0.2285
 8303TIP3    H146400   4.414   3.506  12.817  0.3192  1.0406  1.7227
 8303TIP3    H246401   4.487   3.553  12.692  0.4195 -0.6823  1.1143
 8304TIP3   OH246402   6.582   5.803   5.330  0.0884 -0.3538  0.0146
 8304TIP3    H146403   6.642   5.757   5.389  3.1440  0.6826 -2.0990
 8304TIP3    H246404   6.571   5.889   5.370  1.9165  0.2454 -0.6939
 8305TIP3   OH246405   0.116   6.458  11.828 -0.2115 -0.4491 -0.5136
 8305TIP3    H146406   0.075   6.459  11.742  0.4765 -1.3919 -0.8615
 8305TIP3    H246407   0.206   6.487  11.813  0.0740 -1.1459 -0.2134
 8306TIP3   OH246408   3.732   5.399   5.525 -0.0749  0.2439 -0.0803
 8306TIP3    H146409   3.648   5.424   5.487 -0.8871 -1.1252  0.7816
 8306TIP3    H246410   3.792   5.468   5.497 -0.7856 -0.3441 -3.3218
 8307TIP3   OH246411   5.336   1.510  11.581 -0.2062  0.0499  0.3097
 8307TIP3    H146412   5.372   1.428  11.548  2.1973  1.6294 -1.1388
 8307TIP3    H246413   5.241   1.498  11.577  0.0709 -1.4182 -3.1236
 8308TIP3   OH246414   4.148   0.380  13.341 -0.0647 -0.4326  0.3162
 8308TIP3    H146415   4.214   0.421  13.285 -1.7189  1.4908 -0.2910
 8308TIP3    H246416   4.103   0.454  13.382 -0.2628 -1.7706  2.5776
 8309TIP3   OH246417   4.049   4.844   0.910  0.5106 -0.4103 -0.4372
 8309TIP3    H146418   4.059   4.929   0.953 -0.0401 -0.8358  0.5159
 8309TIP3    H246419   4.138   4.822   0.881  0.5588  0.7833 -1.2652
 8310TIP3   OH246420   0.311   4.320   2.448  0.2763  0.4021 -0.4406
 8310TIP3    H146421   0.261   4.324   2.367 -1.2574  1.3659  0.5475
 8310TIP3    H246422   0.318   4.227   2.467 -2.9537  0.2908  0.4966
 8311TIP3   OH246423   5.449   6.731   1.501 -0.1218 -0.3657  0.2192
 8311TIP3    H146424   5.480   6.706   1.414 -0.3754 -1.2268  0.3757
 8311TIP3    H246425   5.492   6.815   1.518 -0.1405 -0.1504 -0.7704
 8312TIP3   OH246426   4.489   2.934  11.159  0.0256 -0.0872 -0.3227
 8312TIP3    H146427   4.472   2.865  11.095  1.6318 -1.5437  0.7894
 8312TIP3    H246428   4.477   2.892  11.244 -1.0010  1.5436  0.3730
 8313TIP3   OH246429   5.254   6.330   1.392  0.1304 -0.4225  0.2346
 8313TIP3    H146430   5.337   6.372   1.368 -1.0350  2.3513  0.9472
 8313TIP3    H246431   5.218   6.299   1.309  0.5896  0.7641 -0.4127
 8314TIP3   OH246432   3.171   0.207  12.597  0.3907  0.1444  0.3628
 8314TIP3    H146433   3.238   0.258  12.550  0.0208 -0.2147 -0.5627
 8314TIP3    H246434   3.150   0.134  12.538 -1.5643  0.8196  0.1911
 8315TIP3   OH246435   6.681   6.666   3.513  0.0072  0.0326  0.8034
 8315TIP3    H146436   6.771   6.635   3.507  0.2532  0.4622  2.1168
 8315TIP3    H246437   6.649   6.666   3.423  1.7441  1.1230  0.1679
 8316TIP3   OH246438   1.420   2.509   0.202 -0.4864 -0.3173 -0.1479
 8316TIP3    H146439   1.328   2.510   0.231 -1.2071  2.4336 -2.3446
 8316TIP3    H246440   1.460   2.583   0.246  0.0464 -0.0377 -1.0928
 8317TIP3   OH246441   6.374   6.380  13.917 -0.1813 -0.0530 -0.4845
 8317TIP3    H146442   6.383   6.475  13.917  0.0895 -0.0682 -2.1881
 8317TIP3    H246443   6.329   6.360  13.835 -0.5969 -1.3713  0.0462
 8318TIP3   OH246444   4.239   4.088  16.346  0.8143 -0.1625  0.2501
 8318TIP3    H146445   4.305   4.056  16.284 -0.2008 -1.1544 -0.3499
 8318TIP3    H246446   4.211   4.172  16.310  1.7132  0.2393  0.4825
 8319TIP3   OH246447   5.825   3.601  12.049  0.3327 -0.2430 -0.5888
 8319TIP3    H146448   5.830   3.507  12.068 -1.0148 -0.0570  0.8226
 8319TIP3    H246449   5.811   3.606  11.955 -2.6192 -1.6068 -0.2769
 8320TIP3   OH246450   3.615   0.902  14.714  0.0940  0.3405 -0.3217
 8320TIP3    H146451   3.586   0.956  14.787  2.2546  0.2672  0.6100
 8320TIP3    H246452   3.624   0.814  14.751 -0.5538 -0.0771 -1.1299
 8321TIP3   OH246453   3.075   0.657   3.166 -0.2640 -0.0289 -0.0197
 8321TIP3    H146454   3.093   0.632   3.075  0.2378  1.1535 -0.2618
 8321TIP3    H246455   3.104   0.582   3.218 -1.0726 -0.9342 -0.8667
 8322TIP3   OH246456   2.579   0.705   5.023 -0.5817 -0.2917 -0.2483
 8322TIP3    H146457   2.625   0.663   4.950  0.3116 -1.0145  0.7096
 8322TIP3    H246458   2.575   0.637   5.091 -0.8897  0.5582  0.5925
 8323TIP3   OH246459   3.550   6.393   2.388 -0.5798  0.1869  0.1203
 8323TIP3    H146460   3.560   6.452   2.314 -2.1696  0.3529  0.0372
 8323TIP3    H246461   3.474   6.339   2.367  0.5383 -1.5732  0.4294
 8324TIP3   OH246462   5.782   4.555  12.291  0.1025 -0.0396 -0.0416
 8324TIP3    H146463   5.862   4.503  12.281 -1.3127 -1.9284 -1.9984
 8324TIP3    H246464   5.733   4.510  12.360  0.1359  0.3917  0.2703
 8325TIP3   OH246465   3.107   0.016   1.874 -0.1476  0.7198  0.0054
 8325TIP3    H146466   3.015   0.040   1.861 -0.5191 -0.0707  1.0942
 8325TIP3    H246467   3.147   0.096   1.909 -0.4040  1.0977 -0.5647
 8326TIP3   OH246468   0.525   5.886   4.448  0.4567 -0.3514 -0.0832
 8326TIP3    H146469   0.467   5.874   4.523 -1.9955 -0.7022 -1.9460
 8326TIP3    H246470   0.603   5.834   4.469 -1.3909 -2.8195  0.9768
 8327TIP3   OH246471   6.369   1.534  17.200  0.2079 -0.5322 -0.0759
 8327TIP3    H146472   6.339   1.479  17.272  0.5504  0.3762  0.7686
 8327TIP3    H246473   6.298   1.596  17.186  1.3267  1.1599  1.4469
 8328TIP3   OH246474   1.543   5.057  17.109  0.6347  0.2591 -0.4416
 8328TIP3    H146475   1.539   5.022  17.021  0.8006 -0.3787 -0.1944
 8328TIP3    H246476   1.513   5.148  17.100  2.4343  0.7934 -1.4616
 8329TIP3   OH246477   2.999   4.023  10.622 -0.0892  0.2641  0.3668
 8329TIP3    H146478   3.092   4.032  10.644  0.0834 -1.0596  0.2141
 8329TIP3    H246479   2.980   4.100  10.569  1.1449  0.1445 -0.2893
 8330TIP3   OH246480   5.798   4.466   1.869 -0.9582  0.1277 -0.5011
 8330TIP3    H146481   5.749   4.396   1.826  0.1822  1.1723 -3.6517
 8330TIP3    H246482   5.890   4.449   1.845 -0.3854  1.1839  0.8967
 8331TIP3   OH246483   6.546   5.887  15.624  0.1727  0.5241 -0.1443
 8331TIP3    H146484   6.628   5.920  15.588 -0.5208  1.5475 -0.8185
 8331TIP3    H246485   6.497   5.965  15.649 -0.6620 -0.0607  0.0867
 8332TIP3   OH246486   5.953   0.074  13.306  0.2628  0.0467 -0.0921
 8332TIP3    H146487   5.965   0.027  13.224  0.2111  1.1987 -0.7618
 8332TIP3    H246488   6.033   0.056  13.356  0.1440 -0.9329 -0.2404
 8333TIP3   OH246489   3.827   5.204  16.193 -0.6256  0.1976 -0.5393
 8333TIP3    H146490   3.768   5.147  16.242  0.3739 -1.2872 -1.0116
 8333TIP3    H246491   3.773   5.279  16.169 -1.8577 -0.3296  0.4892
 8334TIP3   OH246492   3.426   5.625  12.676 -0.3974  0.1488 -0.1385
 8334TIP3    H146493   3.382   5.656  12.755 -0.2494  0.6116 -0.2370
 8334TIP3    H246494   3.430   5.530  12.687 -1.5385  0.0913 -0.1971
 8335TIP3   OH246495   4.725   0.006  15.416 -0.7239 -0.8867  0.0669
 8335TIP3    H146496   4.802  -0.026  15.368 -0.2495 -0.7738  0.7427
 8335TIP3    H246497   4.682   0.066  15.355  1.1883  1.1208  0.6413
 8336TIP3   OH246498   3.351   2.643  12.477  0.0515  0.1092 -0.2176
 8336TIP3    H146499   3.427   2.604  12.434  0.2853  1.9560 -1.5388
 8336TIP3    H246500   3.284   2.647  12.409 -1.0178 -0.8950  0.7608
 8337TIP3   OH246501   3.611   1.642   2.623  0.3538  0.2426 -0.6280
 8337TIP3    H146502   3.564   1.722   2.648 -0.5584 -1.7308  4.4065
 8337TIP3    H246503   3.553   1.571   2.651  2.6704 -2.2237 -1.9638
 8338TIP3   OH246504   4.798   3.124  16.578 -0.2266  0.1590 -0.2157
 8338TIP3    H146505   4.858   3.066  16.530 -0.1418  1.2438 -1.4576
 8338TIP3    H246506   4.721   3.130  16.522  0.2759  2.2521 -0.7486
 8339TIP3   OH246507   2.831   5.457  13.584 -0.4880 -0.4932  0.7596
 8339TIP3    H146508   2.804   5.544  13.553 -0.8587 -1.2842 -1.2406
 8339TIP3    H246509   2.766   5.433  13.649 -2.2636 -0.6303 -1.0420
 8340TIP3   OH246510   1.195   4.540   5.075  0.2381 -0.1547 -0.0866
 8340TIP3    H146511   1.198   4.635   5.087 -0.7947 -0.2278  0.8192
 8340TIP3    H246512   1.268   4.521   5.017 -0.2923  1.3527 -1.2881
 8341TIP3   OH246513   1.975   1.213   6.763 -0.3680 -0.2240  0.4164
 8341TIP3    H146514   1.946   1.166   6.685  2.0858 -0.5527 -0.3454
 8341TIP3    H246515   1.903   1.202   6.826 -0.9943 -2.7389 -0.6583
 8342TIP3   OH246516   3.759   5.894   4.251 -0.1854  0.9330  0.7124
 8342TIP3    H146517   3.761   5.818   4.310 -0.2161  0.7252  0.4516
 8342TIP3    H246518   3.692   5.951   4.287 -2.1770 -0.4586 -0.6411
 8343TIP3   OH246519   5.922   3.881   6.405 -0.0171 -0.1280 -0.3812
 8343TIP3    H146520   5.993   3.819   6.418 -0.6079 -0.6834  0.2411
 8343TIP3    H246521   5.935   3.947   6.473  0.5229  0.3571 -0.9479
 8344TIP3   OH246522   5.494   6.249  12.107  0.6931  0.1201 -0.2230
 8344TIP3    H146523   5.526   6.233  12.018 -2.1109  1.2212 -1.4827
 8344TIP3    H246524   5.414   6.196  12.113  0.6559  0.3533  1.5050
 8345TIP3   OH246525   4.770   3.462   1.275 -0.1423 -0.2749 -0.2006
 8345TIP3    H146526   4.842   3.516   1.243  0.1648 -1.6536 -1.9000
 8345TIP3    H246527   4.694   3.491   1.226  0.0754 -1.5488 -1.3047
 8346TIP3   OH246528   2.425   5.370  13.957  0.4252 -0.1717 -0.5953
 8346TIP3    H146529   2.404   5.463  13.970  0.9709 -0.2845  1.3221
 8346TIP3    H246530   2.357   5.324  14.007  1.3974 -0.7289  0.2293
 8347TIP3   OH246531   4.600   2.714   4.724  0.2024  0.3852  0.6499
 8347TIP3    H146532   4.541   2.788   4.737  1.4362  1.5977 -0.4735
 8347TIP3    H246533   4.569   2.671   4.644  0.5183  0.7026  0.3570
 8348TIP3   OH246534   6.130   3.990   0.905  0.3978  0.0425 -0.0510
 8348TIP3    H146535   6.081   3.913   0.877 -0.7438  0.8580 -0.3673
 8348TIP3    H246536   6.179   4.017   0.827  0.1910  0.0874 -0.1656
 8349TIP3   OH246537   2.547   3.315  10.510  0.3178  0.0107  0.3136
 8349TIP3    H146538   2.641   3.300  10.517 -0.2064 -2.2447  4.4273
 8349TIP3    H246539   2.513   3.236  10.468  0.2762  1.0317 -1.6123
 8350TIP3   OH246540   4.174   6.200  13.532 -0.1168  0.2564 -0.4803
 8350TIP3    H146541   4.207   6.166  13.615 -1.2155 -0.9825 -0.5445
 8350TIP3    H246542   4.230   6.276  13.514  0.4155  0.2836  1.1650
 8351TIP3   OH246543   6.314   1.670   5.239  0.5785 -0.5868 -0.2356
 8351TIP3    H146544   6.285   1.717   5.161  1.2877  0.7418  0.2805
 8351TIP3    H246545   6.273   1.584   5.232 -1.8632  0.5686 -0.5241
 8352TIP3   OH246546   2.673   4.784  11.437 -0.0831  0.3470 -0.1441
 8352TIP3    H146547   2.757   4.772  11.481 -0.0868 -0.9599 -0.4609
 8352TIP3    H246548   2.615   4.818  11.505  0.5551  0.7442  0.2148
 8353TIP3   OH246549   3.897   0.983  15.534 -0.0576  0.2575  0.0857
 8353TIP3    H146550   3.966   1.018  15.478  1.1867 -1.1748  0.6994
 8353TIP3    H246551   3.943   0.951  15.612 -1.2872 -1.7127  0.0390
 8354TIP3   OH246552   6.251   1.199   5.391 -0.0370  0.1831 -0.8682
 8354TIP3    H146553   6.221   1.111   5.414  0.0672  0.1410 -0.8905
 8354TIP3    H246554   6.228   1.253   5.466  1.4736 -0.2147 -0.0980
 8355TIP3   OH246555   5.740   4.502  14.177 -0.0781  0.1693  0.0245
 8355TIP3    H146556   5.645   4.506  14.164 -0.2828  0.3374  1.4683
 8355TIP3    H246557   5.756   4.412  14.207 -0.0439  0.6913  1.6355
 8356TIP3   OH246558   4.268   4.745   0.744  0.2311  0.5527  0.1770
 8356TIP3    H146559   4.352   4.703   0.763 -0.4986  0.2351  2.9388
 8356TIP3    H246560   4.206   4.672   0.738 -0.0613  0.8642 -0.5481
 8357TIP3   OH246561   4.612   2.551   6.528 -0.2839  0.1355 -0.0745
 8357TIP3    H146562   4.553   2.623   6.547 -0.5708 -0.3639  0.9162
 8357TIP3    H246563   4.572   2.505   6.454 -0.5976  0.4052 -0.0706
 8358TIP3   OH246564   0.876   5.243  11.686 -0.3746 -0.3210  0.2763
 8358TIP3    H146565   0.913   5.311  11.742 -0.5181  0.1274 -0.1712
 8358TIP3    H246566   0.902   5.161  11.728 -0.8976  0.0119  1.2804
 8359TIP3   OH246567   1.804   2.907  12.088 -0.0299  0.4634 -0.3410
 8359TIP3    H146568   1.736   2.972  12.103 -0.4307  0.0912 -0.5409
 8359TIP3    H246569   1.874   2.955  12.043 -0.6319  0.5885 -1.1512
 8360TIP3   OH246570   0.474   0.482   3.816  0.4415  0.2012 -0.5621
 8360TIP3    H146571   0.433   0.567   3.835 -0.7183 -0.7967  1.5674
 8360TIP3    H246572   0.528   0.465   3.893 -1.4619 -2.2579  0.2818
 8361TIP3   OH246573   4.770   3.377   5.980 -0.2004 -0.1168 -0.1632
 8361TIP3    H146574   4.742   3.312   6.045 -4.2525 -1.6428 -3.2413
 8361TIP3    H246575   4.855   3.346   5.951  0.5058 -0.8266  2.4770
 8362TIP3   OH246576   2.660   6.668  16.510 -0.0061 -0.2032  0.3764
 8362TIP3    H146577   2.653   6.727  16.435  0.1096 -0.6309  0.0256
 8362TIP3    H246578   2.577   6.677  16.556 -0.5268 -0.8013 -0.4499
 8363TIP3   OH246579   0.292   6.039  16.353  0.2757  0.1135  0.1418
 8363TIP3    H146580   0.326   6.120  16.390  0.6993 -0.0082  0.0216
 8363TIP3    H246581   0.333   6.032  16.267 -0.8922  0.5219 -0.4567
 8364TIP3   OH246582   1.773   1.192  17.139 -0.0112  0.0614 -0.1107
 8364TIP3    H146583   1.756   1.161  17.228  0.4623  1.1978  0.3849
 8364TIP3    H246584   1.736   1.280  17.137  2.2476  1.0427 -0.2365
 8365TIP3   OH246585   1.662   6.619   5.313  0.2008 -0.1777 -0.0595
 8365TIP3    H146586   1.648   6.714   5.323  2.0460  0.4358 -2.6407
 8365TIP3    H246587   1.585   6.588   5.265  1.0914  0.6793 -2.1435
 8366TIP3   OH246588   1.151   2.077  12.004  0.2160 -0.1515  0.0117
 8366TIP3    H146589   1.222   2.094  12.066  1.1263  0.0516 -1.0749
 8366TIP3    H246590   1.152   1.982  11.992 -0.3759 -0.2632  0.7816
 8367TIP3   OH246591   5.418   3.078  12.930 -0.6530  0.3303  0.1563
 8367TIP3    H146592   5.456   3.005  12.881  1.2454  1.2858  0.1710
 8367TIP3    H246593   5.352   3.114  12.871  2.6118  2.3915 -2.4213
 8368TIP3   OH246594   6.791   0.240  15.199  0.2791  0.3694  0.2447
 8368TIP3    H146595   6.756   0.239  15.288 -1.9605 -0.4741 -0.5900
 8368TIP3    H246596   6.869   0.185  15.204  0.8390  1.2709  1.9142
 8369TIP3   OH246597   3.022   5.951  13.388  0.2554  0.4500  0.3089
 8369TIP3    H146598   3.043   5.908  13.306  0.9161  1.3914 -0.0197
 8369TIP3    H246599   2.996   5.880  13.447 -0.2899 -0.2194 -0.7268
 8370TIP3   OH246600   4.153   3.843  14.099 -0.3783  0.0659 -0.6343
 8370TIP3    H146601   4.215   3.807  14.036 -0.2264 -0.7331 -0.0308
 8370TIP3    H246602   4.074   3.790  14.087 -0.4140  0.0421 -0.2764
 8371TIP3   OH246603   3.015   3.736   4.755 -0.3022  0.5417  0.0891
 8371TIP3    H146604   3.071   3.741   4.678 -1.7522 -0.7237 -1.0921
 8371TIP3    H246605   2.949   3.670   4.732 -1.2518  0.7586  2.0937
 8372TIP3   OH246606   2.308   3.752   4.443 -0.1776 -0.6175 -0.0556
 8372TIP3    H146607   2.392   3.789   4.472  0.3567 -2.0143  0.2095
 8372TIP3    H246608   2.292   3.680   4.504 -1.3133 -0.6892 -0.4388
 8373TIP3   OH246609   6.602   3.425   0.892  0.2586  0.1705  0.7118
 8373TIP3    H146610   6.648   3.503   0.923  1.1853 -0.2830  0.4991
 8373TIP3    H246611   6.661   3.387   0.828  0.0217 -0.9718  1.1674
 8374TIP3   OH246612   2.486   0.004   0.907  0.5562 -0.3714 -0.0593
 8374TIP3    H146613   2.455  -0.025   0.822  1.8335  0.3078 -0.7695
 8374TIP3    H246614   2.536   0.084   0.889 -0.6486  0.7825  1.5449
 8375TIP3   OH246615   1.625   0.074   5.306  0.7184  0.1387  0.1684
 8375TIP3    H146616   1.631   0.155   5.255  1.8860  0.2513  0.4854
 8375TIP3    H246617   1.583   0.100   5.388  1.2872  0.4625  0.3574
 8376TIP3   OH246618   1.625   3.109   1.986  0.4334  0.1117  0.1630
 8376TIP3    H146619   1.538   3.103   1.946 -0.4767  2.7619  1.6804
 8376TIP3    H246620   1.685   3.116   1.911 -0.9856  1.9740 -0.8469
 8377TIP3   OH246621   1.323   0.188   5.712 -0.4000  0.1684  0.8327
 8377TIP3    H146622   1.359   0.129   5.779 -0.1041  1.4145  1.7961
 8377TIP3    H246623   1.233   0.204   5.740  0.0305  1.4797  1.4827
 8378TIP3   OH246624   2.300   2.225  13.361  0.6377  0.2803  0.4872
 8378TIP3    H146625   2.323   2.141  13.402 -0.8634 -0.1559  0.4520
 8378TIP3    H246626   2.366   2.236  13.292  0.5661 -1.1162  0.1738
 8379TIP3   OH246627   3.991   6.679   2.849  0.0075 -0.2779 -0.2003
 8379TIP3    H146628   3.982   6.676   2.945 -0.7126 -1.5963 -0.2932
 8379TIP3    H246629   3.989   6.587   2.822 -0.7105  0.1242 -1.5601
 8380TIP3   OH246630   5.645   2.837  14.893  0.4348 -0.3034  0.0064
 8380TIP3    H146631   5.676   2.803  14.810  0.5258  0.6666 -0.3648
 8380TIP3    H246632   5.563   2.792  14.909  0.5314 -0.6525 -0.5015
 8381TIP3   OH246633   6.558   4.116  16.422  0.2443  0.3131  0.7435
 8381TIP3    H146634   6.511   4.052  16.475 -0.7000  0.8616  0.5921
 8381TIP3    H246635   6.648   4.084  16.419 -0.4783 -1.6887 -0.4104
 8382TIP3   OH246636   4.741   1.871  10.418  0.2577 -0.6362  0.2227
 8382TIP3    H146637   4.715   1.957  10.385  0.6618 -0.2957  0.7779
 8382TIP3    H246638   4.690   1.809  10.366 -0.1518 -0.0568 -0.0762
 8383TIP3   OH246639   4.390   5.620  13.419 -0.1211  0.1816 -0.4659
 8383TIP3    H146640   4.302   5.655  13.429 -0.4999 -0.2586 -2.0802
 8383TIP3    H246641   4.448   5.695  13.430 -0.6018  0.2530  1.8919
 8384TIP3   OH246642   4.317   2.946   3.425  0.1973  0.5575  0.3179
 8384TIP3    H146643   4.236   2.901   3.402  0.6555 -0.6168  0.9565
 8384TIP3    H246644   4.298   2.985   3.511  0.8665 -1.1653  1.2569
 8385TIP3   OH246645   2.755   5.903   1.706 -0.1209 -0.0355  0.6036
 8385TIP3    H146646   2.711   5.946   1.633  1.3190 -2.0901 -1.5627
 8385TIP3    H246647   2.834   5.865   1.667  1.7927  0.5996  3.6664
 8386TIP3   OH246648   4.476   4.099   6.199 -0.0542  0.0052  0.0791
 8386TIP3    H146649   4.550   4.157   6.185  0.9676 -0.9935  1.1491
 8386TIP3    H246650   4.493   4.024   6.142 -0.1347 -0.3086  0.4651
 8387TIP3   OH246651   1.324   6.332   0.527  0.4226  0.1997  0.6475
 8387TIP3    H146652   1.290   6.385   0.599 -1.6601 -0.2291 -0.0004
 8387TIP3    H246653   1.274   6.361   0.451  0.0368 -1.9059  0.0790
 8388TIP3   OH246654   5.457   1.790   0.519 -0.1466  0.5827 -0.1370
 8388TIP3    H146655   5.405   1.710   0.510 -1.8076  1.4207  1.7600
 8388TIP3    H246656   5.527   1.767   0.580  1.0432 -0.1908 -1.7471
 8389TIP3   OH246657   0.918   6.607   0.758 -0.0400  0.1321  0.3267
 8389TIP3    H146658   0.945   6.518   0.735  0.2770 -0.4493  2.7303
 8389TIP3    H246659   1.000   6.656   0.764 -0.3214  1.0124 -2.5197
 8390TIP3   OH246660   0.865   6.091  16.184 -0.3653  0.0293  0.4017
 8390TIP3    H146661   0.950   6.134  16.182  2.3949 -5.0722 -1.8246
 8390TIP3    H246662   0.858   6.057  16.273  0.8595 -1.1736  0.0536
 8391TIP3   OH246663   2.979   2.331  14.468 -0.3198 -0.2039 -0.0556
 8391TIP3    H146664   3.049   2.271  14.494 -0.1619 -0.6413 -1.4820
 8391TIP3    H246665   3.012   2.417  14.493  0.3108 -0.5044  0.1776
 8392TIP3   OH246666   1.928   6.338   0.784  0.0861  0.1578  0.2219
 8392TIP3    H146667   1.856   6.290   0.742 -0.1430  1.0417 -0.3988
 8392TIP3    H246668   2.007   6.292   0.755 -0.2388 -1.0764  1.2436
 8393TIP3   OH246669   0.753   0.114  16.950 -0.4275 -0.2642  0.0388
 8393TIP3    H146670   0.716   0.027  16.968  0.4609 -0.4774  0.8515
 8393TIP3    H246671   0.815   0.099  16.879 -1.7118  0.0584 -1.1857
 8394TIP3   OH246672   0.054   6.430   4.557  0.6735 -0.6157  0.1686
 8394TIP3    H146673   0.018   6.452   4.643 -0.2159 -2.3804  0.2573
 8394TIP3    H246674   0.138   6.387   4.577 -0.4143 -2.7708  0.2742
 8395TIP3   OH246675   6.187   0.393   0.056 -0.0526  0.2411  0.0703
 8395TIP3    H146676   6.231   0.332  -0.004 -1.7683  1.3379 -2.4073
 8395TIP3    H246677   6.249   0.466   0.064  1.3095 -1.0670  1.7652
 8396TIP3   OH246678   1.806   1.216  16.588  0.1638 -0.0364  0.2587
 8396TIP3    H146679   1.868   1.188  16.655  2.0968  0.0238 -1.4488
 8396TIP3    H246680   1.819   1.311  16.581  0.1458 -0.0793 -0.3735
 8397TIP3   OH246681   2.597   1.567   3.505  0.3693 -0.1409  0.8141
 8397TIP3    H146682   2.533   1.524   3.562 -3.0291  3.9478  0.3390
 8397TIP3    H246683   2.652   1.617   3.565 -1.2742  1.7206  0.8366
 8398TIP3   OH246684   3.785   5.765   4.870 -0.4109 -0.4353 -0.0015
 8398TIP3    H146685   3.849   5.706   4.830 -2.5521 -2.3528 -0.6769
 8398TIP3    H246686   3.809   5.767   4.963  1.7588  0.3843 -0.5407
 8399TIP3   OH246687   2.671   3.288  14.208  0.0685 -0.2864  0.0305
 8399TIP3    H146688   2.629   3.348  14.147  0.6121 -0.3530 -0.4062
 8399TIP3    H246689   2.622   3.299  14.290 -1.0761 -0.6903 -0.5988
 8400TIP3   OH246690   2.024   1.808  12.341  0.6008 -0.7371  0.3481
 8400TIP3    H146691   2.088   1.737  12.350  1.9027 -0.0909 -3.1389
 8400TIP3    H246692   1.981   1.791  12.258 -0.1705  1.7109  0.2188
 8401TIP3   OH246693   3.131   4.663   1.124 -0.2696 -0.3304  0.3829
 8401TIP3    H146694   3.122   4.628   1.036  2.8794 -0.6719  0.1526
 8401TIP3    H246695   3.110   4.589   1.182  0.0175 -0.7667 -0.0750
 8402TIP3   OH246696   6.461   1.989  11.059 -0.2225 -0.1791  0.0004
 8402TIP3    H146697   6.536   2.040  11.091 -1.1281  1.6787 -0.8046
 8402TIP3    H246698   6.478   1.900  11.091  0.2797  1.0369  3.3680
 8403TIP3   OH246699   6.322   0.324  11.144  0.5928  0.1452 -0.2588
 8403TIP3    H146700   6.248   0.373  11.179  0.0149 -0.5141 -0.5456
 8403TIP3    H246701   6.388   0.391  11.126  0.5600  0.5988  1.2009
 8404TIP3   OH246702   1.732   0.657   2.791 -0.1662  0.2119 -0.6123
 8404TIP3    H146703   1.656   0.637   2.846  0.7209 -0.2469  0.4756
 8404TIP3    H246704   1.800   0.680   2.853  0.2293  1.8641 -1.6510
 8405TIP3   OH246705   2.501   5.713   2.395  0.2726 -0.0468 -0.0942
 8405TIP3    H146706   2.444   5.708   2.318 -0.3800  1.1463  0.3097
 8405TIP3    H246707   2.527   5.805   2.400 -0.3863  0.0582  1.6111
 8406TIP3   OH246708   6.485   3.244  13.929 -0.4422  0.6191 -0.3433
 8406TIP3    H146709   6.536   3.282  13.857  0.4645 -1.3841 -0.7765
 8406TIP3    H246710   6.395   3.242  13.896 -0.3385  1.4354 -0.6979
 8407TIP3   OH246711   1.384   1.191  12.685  0.2207  0.1983 -0.0877
 8407TIP3    H146712   1.448   1.168  12.753  0.4765 -2.6031 -1.2158
 8407TIP3    H246713   1.430   1.176  12.603 -1.7989 -1.7472 -0.9196
 8408TIP3   OH246714   3.778   5.141  15.510 -0.2733 -0.3164 -0.3065
 8408TIP3    H146715   3.730   5.112  15.433 -1.5134  0.4950  0.1364
 8408TIP3    H246716   3.783   5.064  15.566  0.4458 -0.8506 -1.0867
 8409TIP3   OH246717   2.135   3.452  16.323 -0.0499 -0.2985 -0.4324
 8409TIP3    H146718   2.198   3.488  16.260 -1.6843  0.7243 -1.5140
 8409TIP3    H246719   2.160   3.491  16.407  0.1495  0.9121 -1.0367
 8410TIP3   OH246720   2.543   1.978   1.575 -0.1905  0.0033  0.1898
 8410TIP3    H146721   2.577   1.903   1.528 -0.8005 -0.3756  0.3436
 8410TIP3    H246722   2.453   1.953   1.599 -0.2020  0.5492  0.7383
 8411TIP3   OH246723   4.200   4.451  11.155 -0.2070 -1.0225 -0.1755
 8411TIP3    H146724   4.217   4.369  11.201  1.0043  0.7279  2.6259
 8411TIP3    H246725   4.153   4.505  11.218 -0.8726  0.4985 -1.9317
 8412TIP3   OH246726   3.283   2.755  16.316 -0.3607 -0.2180  0.0480
 8412TIP3    H146727   3.256   2.698  16.244 -0.4146  0.6970 -0.6720
 8412TIP3    H246728   3.211   2.817  16.326 -0.5547 -0.6246  1.1997
 8413TIP3   OH246729   1.792   6.559  17.013  0.3684  0.8393 -0.5340
 8413TIP3    H146730   1.860   6.511  16.966  1.0245  0.3752  0.8506
 8413TIP3    H246731   1.840   6.618  17.071 -0.4276  2.0098 -1.0637
 8414TIP3   OH246732   5.735   1.944   2.791  0.3251 -0.1419 -0.5088
 8414TIP3    H146733   5.822   1.982   2.779  1.3600 -2.4520 -0.5232
 8414TIP3    H246734   5.717   1.897   2.710 -1.0990  0.6105 -0.6450
 8415TIP3   OH246735   4.781   5.490   6.061 -0.0129 -0.2819 -0.4436
 8415TIP3    H146736   4.695   5.503   6.023 -0.2017  0.5865  0.2595
 8415TIP3    H246737   4.835   5.561   6.026  0.1629 -0.2704 -0.1598
 8416TIP3   OH246738   5.298   4.614  12.308  0.0653  0.9243 -0.0039
 8416TIP3    H146739   5.302   4.697  12.356 -3.0386  1.9014 -1.3128
 8416TIP3    H246740   5.281   4.640  12.217 -0.5981 -1.1289 -0.4882
 8417TIP3   OH246741   4.354   4.891   5.052 -0.1550 -0.2588  0.2204
 8417TIP3    H146742   4.303   4.831   5.107  1.9690 -1.4481  0.9356
 8417TIP3    H246743   4.416   4.931   5.113  0.5977  0.2565 -0.8754
 8418TIP3   OH246744   4.674   0.388   5.162 -0.0553 -0.4964 -0.2466
 8418TIP3    H146745   4.712   0.350   5.241  0.8066 -1.1108 -0.9573
 8418TIP3    H246746   4.627   0.466   5.193 -0.8389 -1.4610  1.0560
 8419TIP3   OH246747   2.983   6.532   5.542  0.3024 -0.1020  0.3927
 8419TIP3    H146748   2.972   6.438   5.528 -2.1802  0.0293  1.3083
 8419TIP3    H246749   3.033   6.538   5.624  0.2042 -0.6234  0.4946
 8420TIP3   OH246750   6.534   0.792  16.786  0.5424  0.3302  0.1843
 8420TIP3    H146751   6.557   0.822  16.698  1.1037 -0.1103  0.1790
 8420TIP3    H246752   6.499   0.870  16.829  0.2464  0.5430 -0.4324
 8421TIP3   OH246753   3.884   2.487  17.148 -0.0214  0.3036 -0.0988
 8421TIP3    H146754   3.806   2.458  17.102 -0.6499  2.0871 -0.2032
 8421TIP3    H246755   3.926   2.548  17.087 -0.2432  1.7828  1.1974
 8422TIP3   OH246756   3.005   5.118  14.811  0.3478 -0.0739 -0.0537
 8422TIP3    H146757   3.099   5.139  14.812  0.2820  0.3664 -1.8702
 8422TIP3    H246758   2.994   5.065  14.732 -0.8202 -0.7256  0.5417
 8423TIP3   OH246759   6.751   2.290  14.544 -0.6650 -0.2594 -0.9218
 8423TIP3    H146760   6.747   2.382  14.570  1.2027  0.1199 -1.8418
 8423TIP3    H246761   6.660   2.261  14.540 -1.2576  1.5477 -0.5661
 8424TIP3   OH246762   1.509   2.739   0.303 -0.1322  0.0033 -0.1087
 8424TIP3    H146763   1.511   2.729   0.398  0.5445  0.1455 -0.1102
 8424TIP3    H246764   1.543   2.827   0.287 -0.2147 -0.0323 -0.4856
 8425TIP3   OH246765   2.358   6.402  13.138  0.1068 -0.0734 -0.3261
 8425TIP3    H146766   2.427   6.357  13.090  0.5156  0.0116  0.1764
 8425TIP3    H246767   2.384   6.395  13.230 -1.2456 -1.2340 -0.0049
 8426TIP3   OH246768   2.787   2.469  12.714  0.1301  0.0112  0.4270
 8426TIP3    H146769   2.709   2.523  12.727  0.2485  0.0355  1.0523
 8426TIP3    H246770   2.845   2.492  12.787 -0.0456 -1.3601  1.0306
 8427TIP3   OH246771   0.824   1.085  12.994  0.6700  0.3558 -0.0716
 8427TIP3    H146772   0.883   1.153  12.959  0.5122  0.3345 -0.3842
 8427TIP3    H246773   0.859   1.065  13.080 -0.3911  2.2178  0.8152
 8428TIP3   OH246774   6.800   5.774  11.488 -0.0623 -0.2566  0.4246
 8428TIP3    H146775   6.750   5.842  11.534  2.5745  1.1441  1.2949
 8428TIP3    H246776   6.760   5.771  11.401 -2.2702  0.1308  1.3726
 8429TIP3   OH246777   5.788   0.759   2.023 -0.1239  0.8161  0.5894
 8429TIP3    H146778   5.852   0.823   2.055 -1.0975  1.7911  0.5940
 8429TIP3    H246779   5.709   0.810   2.007 -0.7881 -0.3239  0.2157
 8430TIP3   OH246780   5.780   3.544   3.427  0.0150 -0.0900  0.2244
 8430TIP3    H146781   5.773   3.517   3.519 -1.3681 -0.9821 -0.1099
 8430TIP3    H246782   5.827   3.627   3.429 -0.8789  0.4001  1.8289
 8431TIP3   OH246783   3.267   0.615  16.690 -0.2254  0.0565  0.6925
 8431TIP3    H146784   3.183   0.589  16.727 -1.0446  1.6913  0.0438
 8431TIP3    H246785   3.298   0.685  16.748 -1.0069  1.8830 -1.0174
 8432TIP3   OH246786   0.427   6.558  12.542  0.2758  0.3836  0.2249
 8432TIP3    H146787   0.516   6.576  12.514  0.5713  0.4970  1.2035
 8432TIP3    H246788   0.419   6.462  12.539 -0.0074  0.4445 -1.1464
 8433TIP3   OH246789   6.337   5.270  16.539 -0.3098  0.0667 -0.3295
 8433TIP3    H146790   6.258   5.216  16.536 -0.7158  0.6626 -0.3324
 8433TIP3    H246791   6.408   5.207  16.545 -0.8159 -0.4617  0.1773
 8434TIP3   OH246792   3.184   0.283   1.941  0.0714  0.1709  0.2591
 8434TIP3    H146793   3.101   0.330   1.939 -0.9982 -1.7077 -1.6647
 8434TIP3    H246794   3.251   0.351   1.944 -1.4551  1.7707 -1.4339
 8435TIP3   OH246795   6.650   1.284   3.074  0.3126 -1.0425  0.3026
 8435TIP3    H146796   6.623   1.298   2.984  0.6907  0.9727  0.4901
 8435TIP3    H246797   6.672   1.371   3.107 -0.6277 -1.6355  2.6014
 8436TIP3   OH246798   2.066   2.339   3.316 -0.3058  0.2561  0.5803
 8436TIP3    H146799   2.066   2.309   3.225 -1.0334  1.6044  0.1266
 8436TIP3    H246800   2.072   2.434   3.310  0.8685  0.2824  1.9831
 8437TIP3   OH246801   2.617   5.801   1.250  0.2168 -0.0830 -0.4386
 8437TIP3    H146802   2.644   5.760   1.168  1.8921 -1.3406  0.6964
 8437TIP3    H246803   2.685   5.866   1.268  0.2793 -0.3420  0.3120
 8438TIP3   OH246804   5.769   6.001   5.415  0.1572  0.0968 -0.4325
 8438TIP3    H146805   5.770   5.997   5.319 -0.2786 -0.2897 -0.4217
 8438TIP3    H246806   5.701   5.939   5.441  1.0534 -0.6360  0.1816
 8439TIP3   OH246807   2.001   5.456  16.275  0.4091  0.6433 -0.4691
 8439TIP3    H146808   2.074   5.394  16.280 -0.2757 -0.3395 -2.1779
 8439TIP3    H246809   2.037   5.532  16.229  0.7851  0.8096  0.0996
 8440TIP3   OH246810   1.580   2.058   5.252  0.6264 -0.3973 -0.1177
 8440TIP3    H146811   1.543   2.077   5.338  0.7029  3.1270 -0.7768
 8440TIP3    H246812   1.667   2.023   5.271  0.1164 -0.9371  1.2618
 8441TIP3   OH246813   5.230   0.007  13.871 -0.1906 -0.6040 -0.4469
 8441TIP3    H146814   5.137   0.025  13.857 -0.4198 -0.5875  0.9750
 8441TIP3    H246815   5.243  -0.080  13.834 -1.4712 -1.8777  1.9645
 8442TIP3   OH246816   0.138   3.415  14.420 -0.1166 -0.3286  0.3297
 8442TIP3    H146817   0.233   3.403  14.417 -0.3236 -2.0956  0.4219
 8442TIP3    H246818   0.126   3.498  14.467  1.4020  0.4764 -0.6387
 8443TIP3   OH246819   4.498   3.911  12.158  0.2426 -0.2749 -0.6616
 8443TIP3    H146820   4.550   3.875  12.086  0.6955 -0.0080 -0.4653
 8443TIP3    H246821   4.560   3.925  12.229 -0.4592 -1.9818  0.3262
 8444TIP3   OH246822   5.161   3.591   0.323 -0.5204  0.0043 -0.3990
 8444TIP3    H146823   5.068   3.583   0.345 -0.6566  1.0415 -0.5937
 8444TIP3    H246824   5.198   3.506   0.347 -1.5050 -0.3943 -0.2631
 8445TIP3   OH246825   5.028   0.333   4.876  0.3723  0.2888 -0.5756
 8445TIP3    H146826   5.102   0.372   4.829  0.0478  1.4127 -0.1612
 8445TIP3    H246827   4.974   0.407   4.901  0.6716 -0.2556  1.8136
 8446TIP3   OH246828   1.590   6.785  12.898 -0.3426 -0.5668 -0.6205
 8446TIP3    H146829   1.598   6.879  12.885  0.2472 -0.4737  0.3305
 8446TIP3    H246830   1.575   6.749  12.810  1.6146  0.1988 -1.3039
 8447TIP3   OH246831   6.214   6.234  12.152 -0.0393 -0.3777  0.2286
 8447TIP3    H146832   6.286   6.275  12.104 -1.4596  1.1176 -0.6832
 8447TIP3    H246833   6.240   6.240  12.244 -0.5066  3.3260  0.2000
 8448TIP3   OH246834   0.880   3.679  12.787  0.1533 -0.2808  0.2760
 8448TIP3    H146835   0.799   3.630  12.771 -0.6648  0.9208  0.7565
 8448TIP3    H246836   0.852   3.765  12.816  1.5953  0.5647 -0.7591
 8449TIP3   OH246837   4.781   1.867  16.694  0.4262 -0.6342 -0.1416
 8449TIP3    H146838   4.792   1.805  16.766  1.1877 -0.8580 -0.4402
 8449TIP3    H246839   4.847   1.935  16.710  0.7051 -0.7676 -0.7075
 8450TIP3   OH246840   4.188   3.176   0.349  0.1240  0.1543  0.1535
 8450TIP3    H146841   4.212   3.256   0.301 -1.7364  0.0210 -1.0570
 8450TIP3    H246842   4.102   3.195   0.385 -0.5023 -1.4420 -0.4645
 8451TIP3   OH246843   2.313   1.386  13.336 -0.0265  0.2674 -0.4424
 8451TIP3    H146844   2.281   1.434  13.260  0.4987 -1.1975 -1.5915
 8451TIP3    H246845   2.274   1.299  13.328  0.4798 -0.0782  0.6759
 8452TIP3   OH246846   3.089   6.731   0.577 -0.6628 -0.4267 -0.1409
 8452TIP3    H146847   3.078   6.661   0.641  0.2109  0.2503  0.7614
 8452TIP3    H246848   3.183   6.751   0.578 -0.7576  0.1232 -1.0639
 8453TIP3   OH246849   0.675   2.339   0.753  0.0201  0.3906  0.1864
 8453TIP3    H146850   0.757   2.342   0.703 -1.9281  0.4129 -3.1870
 8453TIP3    H246851   0.638   2.253   0.734 -0.7257  0.3527  1.7334
 8454TIP3   OH246852   3.618   1.000   2.286 -0.2988  0.5653 -0.2895
 8454TIP3    H146853   3.591   1.004   2.377  1.6766 -0.2032  0.3799
 8454TIP3    H246854   3.686   1.067   2.278  1.0961 -0.8188 -0.5668
 8455TIP3   OH246855   1.184   3.562   4.427  0.6310  0.1163 -0.6114
 8455TIP3    H146856   1.241   3.486   4.424  0.7656  0.2598 -1.7558
 8455TIP3    H246857   1.096   3.526   4.418  0.7427  0.1470 -1.9838
 8456TIP3   OH246858   6.660   5.967  16.603 -0.4838 -0.0604  0.4916
 8456TIP3    H146859   6.583   6.014  16.634 -0.1786  2.0081 -1.6961
 8456TIP3    H246860   6.626   5.902  16.541 -0.5899 -0.1007  0.5927
 8457TIP3   OH246861   3.802   0.492  13.195  0.1220 -0.0371 -0.0809
 8457TIP3    H146862   3.815   0.497  13.290  1.9460  0.6828 -0.3375
 8457TIP3    H246863   3.833   0.405  13.172  1.2168  0.3672 -0.2031
 8458TIP3   OH246864   3.145   6.074   0.609 -0.1993 -0.4808  0.3386
 8458TIP3    H146865   3.156   6.107   0.698 -2.8702  0.5467  0.3593
 8458TIP3    H246866   3.154   6.151   0.554 -0.2190 -0.8121 -0.1269
 8459TIP3   OH246867   1.121   1.380   4.926  0.2263  0.0974 -0.1429
 8459TIP3    H146868   1.201   1.346   4.966  0.2035  1.7250  1.3888
 8459TIP3    H246869   1.059   1.387   4.999 -1.0535 -0.4136 -1.1679
 8460TIP3   OH246870   0.147   6.799  15.473 -0.0002  0.1969 -0.1930
 8460TIP3    H146871   0.213   6.829  15.410 -1.3546  1.2324 -1.1710
 8460TIP3    H246872   0.068   6.849  15.450 -1.2349 -1.3055  0.6767
 8461TIP3   OH246873   1.137   2.132  10.892 -0.4412  0.3569  0.7118
 8461TIP3    H146874   1.101   2.190  10.826 -1.5173  1.0416  1.9027
 8461TIP3    H246875   1.209   2.181  10.931 -0.6523  0.4567  0.9710
 8462TIP3   OH246876   4.804   1.953  14.565  0.4063 -0.2402 -0.4328
 8462TIP3    H146877   4.803   2.006  14.645 -1.9927  0.0843 -0.6427
 8462TIP3    H246878   4.748   2.000  14.504  3.5317  0.3885 -2.9391
 8463TIP3   OH246879   2.035   4.631  15.990  0.4513 -0.1039 -0.6937
 8463TIP3    H146880   1.989   4.567  15.935 -1.6524  2.0823 -1.6024
 8463TIP3    H246881   1.970   4.657  16.055  1.8698 -0.1950  0.7873
 8464TIP3   OH246882   2.769   5.798   0.828 -1.1748  0.0024  0.1799
 8464TIP3    H146883   2.800   5.800   0.738 -0.2309 -1.2643  0.4613
 8464TIP3    H246884   2.827   5.736   0.872 -2.4589 -0.4052  1.3393
 8465TIP3   OH246885   0.641   3.796   5.841  0.5268  0.1067 -0.4725
 8465TIP3    H146886   0.689   3.879   5.840  0.1075  0.3592 -3.8523
 8465TIP3    H246887   0.702   3.733   5.802  0.3191 -0.9067  0.7976
 8466TIP3   OH246888   4.790   1.520  11.833 -0.4112  0.3784  0.2013
 8466TIP3    H146889   4.699   1.552  11.832 -0.8192 -0.7583 -0.8113
 8466TIP3    H246890   4.843   1.598  11.820 -1.1214  1.3971  2.9478
 8467TIP3   OH246891   2.620   5.653  12.579 -0.5774 -0.3578  0.2399
 8467TIP3    H146892   2.686   5.601  12.532 -0.8765 -0.0256 -0.5566
 8467TIP3    H246893   2.593   5.597  12.651  1.1915 -0.1774  1.0832
 8468TIP3   OH246894   4.286   6.787  14.858 -0.2330 -0.1237  0.6012
 8468TIP3    H146895   4.221   6.735  14.906 -1.8491  1.4106  0.1361
 8468TIP3    H246896   4.246   6.803  14.773  1.5149 -0.6112 -0.3322
 8469TIP3   OH246897   4.154   1.577  11.172  0.7067 -0.4637 -0.0877
 8469TIP3    H146898   4.091   1.649  11.170  1.0620 -0.0891  1.2419
 8469TIP3    H246899   4.119   1.512  11.112  0.4404  0.8821 -1.4106
 8470TIP3   OH246900   6.014   4.379  15.141 -0.3247  1.0802 -0.6629
 8470TIP3    H146901   5.921   4.385  15.164 -0.3931 -0.7547 -0.3899
 8470TIP3    H246902   6.059   4.372  15.225 -0.1169 -0.1031 -0.8732
 8471TIP3   OH246903   0.588   2.966   4.102 -0.0655  0.3651 -0.0676
 8471TIP3    H146904   0.671   3.002   4.132  0.6394 -0.3632 -1.1042
 8471TIP3    H246905   0.610   2.880   4.067 -1.0501  0.6671 -1.4771
 8472TIP3   OH246906   2.276   4.375  10.951 -0.4724 -0.6214 -0.2688
 8472TIP3    H146907   2.356   4.369  10.900 -1.6907 -0.8844 -2.2027
 8472TIP3    H246908   2.245   4.284  10.958 -0.1850 -0.6246  1.1796
 8473TIP3   OH246909   5.057   6.323  12.380  0.2217 -0.1072 -0.6611
 8473TIP3    H146910   4.966   6.353  12.388 -0.0568 -0.1054 -3.3997
 8473TIP3    H246911   5.082   6.298  12.469 -2.1488  0.7850  0.2883
 8474TIP3   OH246912   3.766   0.465  12.542 -0.1766  0.3341  0.3142
 8474TIP3    H146913   3.854   0.454  12.506 -0.3894  2.7786 -1.0943
 8474TIP3    H246914   3.716   0.502  12.469 -2.4477 -1.2837  1.0233
 8475TIP3   OH246915   5.026   0.917  17.244 -0.2094 -0.4555 -0.6566
 8475TIP3    H146916   5.040   0.981  17.173 -0.1193 -0.8841 -1.0249
 8475TIP3    H246917   5.040   0.967  17.324  0.5910 -0.1862 -0.9660
 8476TIP3   OH246918   2.961   5.536  15.517 -0.1919 -0.3698 -0.1794
 8476TIP3    H146919   2.965   5.583  15.601 -0.5473 -0.5493 -0.0607
 8476TIP3    H246920   2.976   5.445  15.540 -1.4419 -0.5776 -0.1597
 8477TIP3   OH246921   0.624   1.368   5.384  0.2790  0.0772 -0.7794
 8477TIP3    H146922   0.529   1.380   5.386  0.4499  1.6322 -0.9994
 8477TIP3    H246923   0.638   1.282   5.423 -1.0766  0.6460  1.0512
 8478TIP3   OH246924   1.589   0.796   5.027 -0.5016 -0.5237  0.0370
 8478TIP3    H146925   1.648   0.861   5.065 -1.3450  1.0320 -1.2635
 8478TIP3    H246926   1.647   0.730   4.990  0.4117  0.5883 -0.5378
 8479TIP3   OH246927   0.925   0.134  14.214  0.5487  0.0883 -0.0910
 8479TIP3    H146928   0.943   0.041  14.199  1.0554  0.3209 -1.0043
 8479TIP3    H246929   0.854   0.135  14.278 -2.6326 -1.0211 -3.4113
 8480TIP3   OH246930   5.208   4.701   0.320  0.2791  0.1275  0.3324
 8480TIP3    H146931   5.297   4.673   0.343  0.1215  0.2009  1.0670
 8480TIP3    H246932   5.214   4.795   0.309  0.3150  0.1196  0.2857
 8481TIP3   OH246933   3.243   1.142   5.231 -0.3646 -0.0599  0.0692
 8481TIP3    H146934   3.220   1.154   5.323  0.1806 -0.5774  0.2775
 8481TIP3    H246935   3.176   1.189   5.183 -1.5983 -1.1540  0.6845
 8482TIP3   OH246936   0.500   4.978   4.500  0.1952 -0.3408  0.8759
 8482TIP3    H146937   0.538   4.909   4.554  0.0469 -0.1076  1.2809
 8482TIP3    H246938   0.513   5.059   4.551  1.7220  0.1502 -0.2740
 8483TIP3   OH246939   1.358   2.395  16.770 -0.8240 -0.0105  0.5341
 8483TIP3    H146940   1.339   2.457  16.699 -0.1297  1.3583  1.5015
 8483TIP3    H246941   1.302   2.320  16.752 -2.6601  1.4307 -0.0015
 8484TIP3   OH246942   3.659   4.114  11.243  0.5521 -0.2139  0.4776
 8484TIP3    H146943   3.731   4.094  11.183 -1.0466 -0.8070 -1.3125
 8484TIP3    H246944   3.661   4.044  11.308  1.3874 -0.4197  0.2363
 8485TIP3   OH246945   5.160   3.172   5.607  0.1483 -0.0350  0.0842
 8485TIP3    H146946   5.077   3.152   5.650  0.2348 -0.1596  0.1949
 8485TIP3    H246947   5.218   3.199   5.678  0.4158 -0.6501  0.1083
 8486TIP3   OH246948   2.979   5.101  13.886 -0.8014  0.6497 -0.0101
 8486TIP3    H146949   3.067   5.084  13.920 -0.4129  2.3572 -0.1338
 8486TIP3    H246950   2.962   5.026  13.828 -0.5048 -1.0200  1.9946
 8487TIP3   OH246951   4.097   2.570  13.069  0.4731  0.0101  0.2524
 8487TIP3    H146952   4.014   2.546  13.027  0.1412  1.4760  0.0434
 8487TIP3    H246953   4.090   2.664  13.083  1.5916 -0.0709  1.3915
 8488TIP3   OH246954   4.366   1.994   2.339  0.3528  0.4324 -0.5302
 8488TIP3    H146955   4.442   1.974   2.286  1.2121 -0.0973  0.8771
 8488TIP3    H246956   4.377   2.086   2.364  0.2333  0.5206 -0.8022
 8489TIP3   OH246957   1.081   3.769  14.517  0.7607  0.5448 -0.1191
 8489TIP3    H146958   1.113   3.749  14.429  0.0021 -0.5333 -0.1702
 8489TIP3    H246959   1.067   3.683  14.557  1.0450  1.0301  1.0383
 8490TIP3   OH246960   2.901   2.073   3.304 -0.0197 -0.7533  0.0680
 8490TIP3    H146961   2.893   1.992   3.353  3.1659 -1.8507 -1.0796
 8490TIP3    H246962   2.972   2.120   3.347 -0.3171  0.3993 -0.6722
 8491TIP3   OH246963   0.597   4.757   4.601 -0.5842 -0.0232  0.4783
 8491TIP3    H146964   0.551   4.682   4.638 -1.4382 -0.7755 -1.9965
 8491TIP3    H246965   0.678   4.720   4.565 -0.8587  0.2914 -0.4680
 8492TIP3   OH246966   1.429   1.564   1.595 -0.2033  0.4620 -0.3562
 8492TIP3    H146967   1.456   1.655   1.584 -0.7642  0.3727 -2.7522
 8492TIP3    H246968   1.367   1.566   1.668 -0.6036  2.0869 -0.7233
 8493TIP3   OH246969   0.345   0.419  12.282  0.1368 -0.5612  0.2726
 8493TIP3    H146970   0.311   0.369  12.355  0.2030 -1.9549 -0.6412
 8493TIP3    H246971   0.268   0.455  12.238 -0.0822 -2.3254 -0.8085
 8494TIP3   OH246972   3.904   5.436  13.500 -0.3287  0.3154  0.2891
 8494TIP3    H146973   3.876   5.468  13.586 -1.3909  1.4312 -0.4630
 8494TIP3    H246974   3.899   5.341  13.508 -1.4142  0.4341  1.1444
 8495TIP3   OH246975   3.705   2.387   5.244  0.2569 -0.3191 -0.4195
 8495TIP3    H146976   3.799   2.403   5.256  0.4219 -0.8587 -0.9622
 8495TIP3    H246977   3.690   2.301   5.283  0.0683 -0.4174 -0.7083
 8496TIP3   OH246978   0.750   2.996   4.722  0.3199  0.1278  0.0370
 8496TIP3    H146979   0.663   2.973   4.755 -0.0153  1.9787  0.5290
 8496TIP3    H246980   0.774   3.074   4.772  1.7005  0.4094 -1.0360
 8497TIP3   OH246981   3.430   3.556   1.402 -0.5528  0.1601 -0.5824
 8497TIP3    H146982   3.350   3.578   1.353 -1.2943 -0.5952  0.2573
 8497TIP3    H246983   3.403   3.485   1.460  0.8047 -0.2738 -0.4577
 8498TIP3   OH246984   1.859   1.112  15.852  0.1730  0.2100  0.3384
 8498TIP3    H146985   1.818   1.151  15.930 -1.0162 -0.7929  0.2265
 8498TIP3    H246986   1.946   1.086  15.882 -0.9800 -1.9920  1.9264
 8499TIP3   OH246987   4.634   3.395   5.575 -0.4041 -0.6071  0.3093
 8499TIP3    H146988   4.695   3.355   5.513 -1.1834 -1.4932  0.1012
 8499TIP3    H246989   4.590   3.464   5.526  0.6384  0.2451  0.5477
 8500TIP3   OH246990   6.675   4.950   4.102  0.0762 -0.4145 -0.0912
 8500TIP3    H146991   6.696   4.971   4.193 -0.1493 -0.9977  0.1035
 8500TIP3    H246992   6.681   4.854   4.099  0.0041 -0.3981 -0.6707
 8501TIP3   OH246993   2.277   3.771  12.279  0.3297 -0.3258  0.3599
 8501TIP3    H146994   2.262   3.696  12.221  1.2282 -0.6258  0.5161
 8501TIP3    H246995   2.189   3.800  12.303 -0.0277 -1.6328  0.6950
 8502TIP3   OH246996   5.299   5.349   5.571 -0.5867  0.2393 -0.0007
 8502TIP3    H146997   5.229   5.363   5.507 -0.1261  1.0057 -0.3392
 8502TIP3    H246998   5.286   5.260   5.602 -1.5599  0.2902 -0.2590
 8503TIP3   OH246999   6.365   0.340  13.730 -0.5073 -0.0535 -0.8233
 8503TIP3    H147000   6.280   0.328  13.686 -0.7735 -1.2291  0.0042
 8503TIP3    H247001   6.404   0.252  13.731  0.3911  0.3456 -0.5088
 8504TIP3   OH247002   6.447   0.121   1.636 -0.1841  0.1083 -0.0738
 8504TIP3    H147003   6.539   0.140   1.655 -0.0214  0.9204 -1.5645
 8504TIP3    H247004   6.423   0.053   1.699  0.5440  1.9998  2.3424
 8505TIP3   OH247005   6.229   5.957   2.349 -0.4865  0.2741  0.2048
 8505TIP3    H147006   6.150   5.992   2.307 -1.6334 -2.6535 -0.2146
 8505TIP3    H247007   6.196   5.906   2.423  0.9326 -1.8182 -0.5582
 8506TIP3   OH247008   4.123   5.292   1.315  0.1412  0.1402  0.0903
 8506TIP3    H147009   4.047   5.349   1.307 -0.0269 -0.1829 -0.6800
 8506TIP3    H247010   4.186   5.326   1.252 -0.7994 -1.8213 -1.9704
 8507TIP3   OH247011   3.836   4.901  16.168  0.2372  0.0462  0.5472
 8507TIP3    H147012   3.747   4.913  16.203 -1.0721 -0.9835 -2.2206
 8507TIP3    H247013   3.850   4.977  16.112 -0.0513 -1.1502 -1.2013
 8508TIP3   OH247014   3.346   1.224  13.445 -0.0849  0.0381 -0.3983
 8508TIP3    H147015   3.358   1.181  13.361 -1.9307 -0.2288 -0.5351
 8508TIP3    H247016   3.253   1.244  13.450  0.2603  1.4667  0.9059
 8509TIP3   OH247017   1.303   2.125   4.221  0.2236 -0.4412  0.0654
 8509TIP3    H147018   1.229   2.184   4.234 -1.0872 -1.6450 -1.7430
 8509TIP3    H247019   1.372   2.161   4.277 -0.8695  2.2360 -0.2065
 8510TIP3   OH247020   5.642   4.028   4.922  0.4194  0.5111 -0.2051
 8510TIP3    H147021   5.563   4.022   4.975  1.7672  1.5191  1.9876
 8510TIP3    H247022   5.671   3.938   4.911  0.4462  0.3178  1.3330
 8511TIP3   OH247023   3.883   6.027  15.029  0.6681  0.3677  0.1666
 8511TIP3    H147024   3.904   5.961  14.963 -0.9860 -0.1967  0.1902
 8511TIP3    H247025   3.946   6.012  15.099 -1.8985 -3.6008  1.8155
 8512TIP3   OH247026   5.897   5.159  14.403  0.2361 -0.1374 -0.2273
 8512TIP3    H147027   5.898   5.090  14.469 -1.0769 -0.7457 -0.8395
 8512TIP3    H247028   5.989   5.186  14.396  0.7899 -1.9362 -0.1149
 8513TIP3   OH247029   3.583   6.478  15.269  0.2368  0.3799 -0.2080
 8513TIP3    H147030   3.597   6.540  15.197  1.4077 -0.6153 -0.8640
 8513TIP3    H247031   3.635   6.513  15.341 -0.0289  0.7769 -0.2078
 8514TIP3   OH247032   2.703   6.744   2.789  0.2977 -0.3088  0.0350
 8514TIP3    H147033   2.794   6.720   2.770 -0.2612 -1.9534 -0.6525
 8514TIP3    H247034   2.652   6.669   2.759 -1.3979  1.1250 -0.7278
 8515TIP3   OH247035   6.455   2.521   4.482  0.2805 -0.2025  0.5961
 8515TIP3    H147036   6.391   2.592   4.488  0.2099 -0.2090 -0.0481
 8515TIP3    H247037   6.478   2.517   4.389  1.4460 -0.0016  0.8712
 8516TIP3   OH247038   3.095   3.725  12.654 -0.6732 -0.0322  0.3324
 8516TIP3    H147039   3.036   3.651  12.640  1.5571 -2.0891  1.3035
 8516TIP3    H247040   3.154   3.723  12.578 -1.1857  1.3541 -0.1192
 8517TIP3   OH247041   0.190   3.658  12.630 -0.2299  0.7469  0.2115
 8517TIP3    H147042   0.167   3.574  12.670  0.5030  1.2315  1.6691
 8517TIP3    H247043   0.168   3.647  12.538  0.1615 -1.1734  0.3210
 8518TIP3   OH247044   4.705   0.554  12.484  0.3824  1.0730 -0.5229
 8518TIP3    H147045   4.777   0.561  12.421  1.3947 -1.0191  0.3236
 8518TIP3    H247046   4.721   0.470  12.528 -1.9449  1.1262  0.4794
 8519TIP3   OH247047   6.146   2.336  15.051 -0.0399 -0.2339  0.3965
 8519TIP3    H147048   6.233   2.373  15.037  0.0986 -0.5496  0.4178
 8519TIP3    H247049   6.155   2.244  15.030 -0.1236 -0.4675  1.3546
 8520TIP3   OH247050   5.300   1.863   2.083  0.0994  0.1637 -0.2468
 8520TIP3    H147051   5.216   1.891   2.047 -0.2249 -0.8178 -0.2779
 8520TIP3    H247052   5.315   1.921   2.158 -0.9189 -0.0641  0.1451
 8521TIP3   OH247053   6.298   6.453   0.397  0.1110 -0.0576 -0.5936
 8521TIP3    H147054   6.314   6.382   0.335 -1.3842 -0.2965 -0.7066
 8521TIP3    H247055   6.314   6.414   0.483  4.6670  0.9133 -0.8519
 8522TIP3   OH247056   1.635   4.371   1.571  0.1540  0.3315  0.5287
 8522TIP3    H147057   1.695   4.387   1.499  0.0516 -1.2647  0.0601
 8522TIP3    H247058   1.558   4.331   1.530 -0.3605  0.4374  1.3773
 8523TIP3   OH247059   4.377   1.205   0.009 -0.0899 -0.1490 -0.2976
 8523TIP3    H147060   4.315   1.213  -0.063 -0.2580 -1.3018 -0.2915
 8523TIP3    H247061   4.327   1.233   0.086 -0.8115 -1.7068 -0.1918
 8524TIP3   OH247062   4.006   1.240   0.218  0.3212  0.8696 -1.0051
 8524TIP3    H147063   4.086   1.191   0.237 -0.3615 -0.3432 -1.2761
 8524TIP3    H247064   3.994   1.296   0.296  0.1044 -0.7078  0.1092
 8525TIP3   OH247065   3.281   2.923   0.166  0.2329 -0.4283  0.6952
 8525TIP3    H147066   3.281   2.971   0.249 -1.2266 -0.8431  0.9491
 8525TIP3    H247067   3.196   2.942   0.127  0.4541 -1.1526 -0.1626
 8526TIP3   OH247068   0.204   1.305  16.951  0.5120  0.0576 -0.1033
 8526TIP3    H147069   0.127   1.349  16.989 -0.1078  0.3983 -1.7260
 8526TIP3    H247070   0.244   1.370  16.894  1.6839 -0.3172  0.2751
 8527TIP3   OH247071   4.060   6.325  12.500 -0.2998  0.7212  0.1090
 8527TIP3    H147072   4.048   6.354  12.410 -1.7330  1.5247  0.5433
 8527TIP3    H247073   3.992   6.371  12.550  1.6068  1.7025  1.9005
 8528TIP3   OH247074   6.167   0.460  16.215  0.4076 -0.2308  0.3046
 8528TIP3    H147075   6.103   0.516  16.172 -0.1615 -0.4456  0.8664
 8528TIP3    H247076   6.170   0.492  16.305  0.4218 -0.8018  0.5071
 8529TIP3   OH247077   4.881   1.487  12.485 -0.5581 -0.0556  0.3430
 8529TIP3    H147078   4.947   1.485  12.554 -1.5114 -2.2818  1.2176
 8529TIP3    H247079   4.798   1.498  12.532 -0.8148  3.4590 -0.7849
 8530TIP3   OH247080   6.602   3.384   3.189  0.3023 -0.1251 -0.0537
 8530TIP3    H147081   6.586   3.477   3.205 -0.6525 -0.3741  0.4909
 8530TIP3    H247082   6.638   3.351   3.272 -0.8822 -0.5783  0.2834
 8531TIP3   OH247083   0.879   6.630   3.924  0.7144  0.0414  0.0968
 8531TIP3    H147084   0.963   6.584   3.931  0.0416 -1.4175 -1.1808
 8531TIP3    H247085   0.835   6.614   4.008  0.0944 -2.4562 -0.6757
 8532TIP3   OH247086   5.789   3.884   3.860  0.1635  0.8778  0.1323
 8532TIP3    H147087   5.852   3.932   3.915  1.1796 -1.6512  1.2455
 8532TIP3    H247088   5.703   3.918   3.887  0.7870  1.2635  1.7099
 8533TIP3   OH247089   2.749   4.231  15.532  0.4708 -0.0583  0.3594
 8533TIP3    H147090   2.830   4.272  15.501  1.4143 -2.1081  0.0734
 8533TIP3    H247091   2.707   4.199  15.452 -0.0875  0.0269  0.6166
 8534TIP3   OH247092   5.466   5.594  15.802 -0.1261  0.4515 -0.1724
 8534TIP3    H147093   5.464   5.591  15.898  0.3190  1.4206 -0.1306
 8534TIP3    H247094   5.460   5.502  15.775 -0.9990  0.2258  0.7706
 8535TIP3   OH247095   5.678   4.831  12.322 -0.4940 -0.0913  0.7432
 8535TIP3    H147096   5.726   4.748  12.320 -1.1424 -0.4842  1.1671
 8535TIP3    H247097   5.659   4.845  12.415  1.1760  1.4509  0.8791
 8536TIP3   OH247098   3.251   5.250  10.474 -0.3816  0.1140 -0.5551
 8536TIP3    H147099   3.299   5.199  10.409 -1.5212 -1.6365 -0.0620
 8536TIP3    H247100   3.179   5.290  10.425 -1.3677 -1.3785 -0.3741
 8537TIP3   OH247101   1.067   1.815   3.180  0.5965  0.4197 -0.1672
 8537TIP3    H147102   1.130   1.805   3.252 -0.1600  0.3323  0.4963
 8537TIP3    H247103   1.116   1.792   3.101  0.6770 -2.3203  0.6300
 8538TIP3   OH247104   3.854   3.655   6.541 -0.7428 -0.2495 -0.6402
 8538TIP3    H147105   3.779   3.715   6.541 -2.1197 -1.9137  0.3782
 8538TIP3    H247106   3.854   3.618   6.629  0.1535 -1.6495 -1.2238
 8539TIP3   OH247107   4.537   3.746  15.716  0.2567 -1.2965 -0.0087
 8539TIP3    H147108   4.526   3.763  15.809 -0.5655 -0.3007 -0.2711
 8539TIP3    H247109   4.580   3.661  15.711 -0.8220 -1.9204  1.2502
 8540TIP3   OH247110   3.029   1.991   2.378  0.1078 -0.1914  0.2854
 8540TIP3    H147111   3.040   2.085   2.367  2.1180 -0.5239 -0.9548
 8540TIP3    H247112   3.064   1.954   2.296 -1.1504 -1.9737  0.5322
 8541TIP3   OH247113   4.227   3.968   3.568 -0.6462  0.1727  0.3516
 8541TIP3    H147114   4.282   4.013   3.504 -0.1223 -0.3220  0.4525
 8541TIP3    H247115   4.259   3.999   3.653  0.6290 -1.4251  0.4686
 8542TIP3   OH247116   3.990   4.454  17.042 -0.7150  0.2391  0.4880
 8542TIP3    H147117   4.004   4.546  17.019 -0.9259  0.1868  0.1314
 8542TIP3    H247118   3.930   4.422  16.974  1.3754 -0.8435 -0.8852
 8543TIP3   OH247119   6.405   0.180   5.844 -0.3411  0.3598  0.1841
 8543TIP3    H147120   6.402   0.168   5.749  1.1247 -0.5982  0.2501
 8543TIP3    H247121   6.360   0.104   5.880 -1.3953  1.0006  0.2622
 8544TIP3   OH247122   4.372   2.848  13.043  0.0158  0.2694  0.2963
 8544TIP3    H147123   4.332   2.795  12.975 -0.5608  1.4237 -0.2828
 8544TIP3    H247124   4.304   2.857  13.110  0.3660 -0.3362  0.7372
 8545TIP3   OH247125   3.754   0.580   1.469 -0.2273  0.0580 -0.1206
 8545TIP3    H147126   3.688   0.541   1.413 -0.8848  1.4230 -0.3112
 8545TIP3    H247127   3.781   0.509   1.528 -1.1700 -0.7499 -0.6546
 8546TIP3   OH247128   3.436   0.427   0.591 -0.2039  1.1908 -0.2403
 8546TIP3    H147129   3.447   0.509   0.639 -1.4165  1.5449 -0.5570
 8546TIP3    H247130   3.454   0.451   0.500  0.6381  0.8402 -0.1682
 8547TIP3   OH247131   1.899   1.616  15.790  0.3658  0.3505  0.7207
 8547TIP3    H147132   1.886   1.613  15.695  2.6584  0.1250  0.3937
 8547TIP3    H247133   1.930   1.528  15.812  0.4139  0.5917  1.6027
 8548TIP3   OH247134   1.638   2.745   2.989 -0.1458 -0.2314  0.2531
 8548TIP3    H147135   1.697   2.803   3.038 -1.8240  0.8226  1.0786
 8548TIP3    H247136   1.551   2.784   3.000 -0.8646 -1.1484 -1.8361
 8549TIP3   OH247137   3.694   1.927  15.460 -0.1629  0.1115  0.3485
 8549TIP3    H147138   3.670   2.008  15.415  0.6831  0.3650  0.3526
 8549TIP3    H247139   3.628   1.863  15.431 -0.3505  0.5881 -0.2815
 8550TIP3   OH247140   3.302   6.181   2.697  0.6645 -0.2508 -0.3938
 8550TIP3    H147141   3.296   6.110   2.633  1.9510 -0.2827 -0.4814
 8550TIP3    H247142   3.394   6.184   2.722  0.3765  0.4934  0.6355
 8551TIP3   OH247143   0.209   1.328  15.508 -0.0028  0.2510 -0.4833
 8551TIP3    H147144   0.288   1.356  15.462  0.1000  2.3835  0.9530
 8551TIP3    H247145   0.139   1.337  15.443  0.4071  1.5755 -0.7438
 8552TIP3   OH247146   2.740   3.049  13.197 -0.3206  0.1624 -0.0473
 8552TIP3    H147147   2.676   3.120  13.197 -0.3253  0.1615 -0.3537
 8552TIP3    H247148   2.697   2.979  13.147  0.8009  0.9744 -2.2329
 8553TIP3   OH247149   4.085   1.603   4.876  0.1628  0.0265  0.1924
 8553TIP3    H147150   4.147   1.628   4.807 -0.3290 -0.3914 -0.4115
 8553TIP3    H247151   4.140   1.563   4.944  0.7511  1.1743  0.4068
 8554TIP3   OH247152   1.341   0.194  13.695  0.5013  0.3382  0.0780
 8554TIP3    H147153   1.309   0.119  13.745  0.4937  0.3418  0.0791
 8554TIP3    H247154   1.421   0.220  13.740  0.5406  0.2877  0.0377
 8555TIP3   OH247155   5.940   6.295   0.686 -0.0996 -0.1228 -0.4772
 8555TIP3    H147156   5.932   6.384   0.720  0.6247  0.2975 -1.3827
 8555TIP3    H247157   5.966   6.307   0.594 -0.5006 -1.2598 -0.7442
 8556TIP3   OH247158   3.229   2.351  11.949  0.0184  0.4115  0.0308
 8556TIP3    H147159   3.204   2.443  11.941 -0.0719  0.6208  2.3854
 8556TIP3    H247160   3.145   2.304  11.954  0.0635  0.3259 -0.0291
 8557TIP3   OH247161   3.326   6.703  15.200  0.2706 -1.1368  0.2409
 8557TIP3    H147162   3.383   6.683  15.274  1.6918  1.9255  0.0801
 8557TIP3    H247163   3.387   6.719  15.127 -0.9628 -1.1451 -0.8047
 8558TIP3   OH247164   5.499   5.136   4.645 -0.0896 -0.4532 -0.7394
 8558TIP3    H147165   5.416   5.177   4.620  0.4758  0.6547 -0.8199
 8558TIP3    H247166   5.512   5.162   4.736 -0.3250 -1.4632 -0.4065
 8559TIP3   OH247167   0.156   4.978   4.236 -0.5868  0.1665 -0.1654
 8559TIP3    H147168   0.134   4.950   4.325 -0.0495  1.4866  0.3997
 8559TIP3    H247169   0.197   5.064   4.248  0.2092  0.0031 -1.6159
 8560TIP3   OH247170   0.423   6.129   0.746  0.6009  0.4385 -0.1262
 8560TIP3    H147171   0.345   6.182   0.730 -0.8401 -1.3986  0.6216
 8560TIP3    H247172   0.418   6.058   0.682  1.5021  0.1525  0.1053
 8561TIP3   OH247173   6.377   2.350  10.499  0.0424 -0.3620 -0.0348
 8561TIP3    H147174   6.344   2.402  10.572  0.5756  0.7882 -0.6033
 8561TIP3    H247175   6.299   2.306  10.464  0.1103 -2.6476  2.5581
 8562TIP3   OH247176   5.168   5.198  14.516 -0.0582  0.4432 -0.2155
 8562TIP3    H147177   5.171   5.199  14.611  1.5422 -0.0661 -0.2617
 8562TIP3    H247178   5.155   5.106  14.493  3.4497 -0.0125 -0.5848
 8563TIP3   OH247179   2.565   4.137   2.550  0.8034 -0.2271 -0.1099
 8563TIP3    H147180   2.643   4.123   2.496 -0.6417 -1.8443 -1.8396
 8563TIP3    H247181   2.567   4.067   2.614  0.6716 -0.3848 -0.2777
 8564TIP3   OH247182   4.732   4.183  10.802 -0.2422  0.8231  0.2594
 8564TIP3    H147183   4.713   4.213  10.713 -0.1928 -1.0480 -0.3903
 8564TIP3    H247184   4.815   4.227  10.825 -0.4197  1.5542 -0.4796
 8565TIP3   OH247185   4.798   2.206   3.203  0.0319  0.3072 -0.4779
 8565TIP3    H147186   4.707   2.178   3.194 -0.2439  1.0132  0.0369
 8565TIP3    H247187   4.835   2.195   3.116 -0.6196  0.2586 -0.7546
 8566TIP3   OH247188   4.466   2.414  12.859 -0.5527  0.3791 -0.3728
 8566TIP3    H147189   4.514   2.334  12.882 -0.3414  0.0493 -1.9492
 8566TIP3    H247190   4.454   2.459  12.943  1.6092 -0.0398  0.1985
 8567TIP3   OH247191   1.013   2.905  12.589  0.1424  0.1402  0.0223
 8567TIP3    H147192   0.946   2.864  12.644 -0.2675  1.5476  0.5921
 8567TIP3    H247193   1.040   2.983  12.638  0.5236  0.8537 -1.2991
 8568TIP3   OH247194   6.404   0.832   2.179  0.1645  0.2107 -0.2366
 8568TIP3    H147195   6.351   0.902   2.216 -0.6935 -0.2397 -0.6162
 8568TIP3    H247196   6.492   0.847   2.216  0.1912  1.9765 -0.9746
 8569TIP3   OH247197   3.744   6.660   2.362  0.1094 -0.3246  0.1580
 8569TIP3    H147198   3.770   6.601   2.291 -0.6973 -1.5241  0.8538
 8569TIP3    H247199   3.799   6.634   2.436 -1.7015 -1.6195  1.0821
 8570TIP3   OH247200   2.204   5.171   3.115 -0.1157  0.0767  0.0937
 8570TIP3    H147201   2.269   5.241   3.124 -0.5023  0.2172  2.3422
 8570TIP3    H247202   2.250   5.091   3.141 -0.3492 -0.0895 -0.0036
 8571TIP3   OH247203   5.036   0.015   5.770 -1.4360  0.6072 -0.1527
 8571TIP3    H147204   5.038   0.043   5.861 -1.8150  0.2729 -0.0401
 8571TIP3    H247205   5.103  -0.054   5.764 -0.2747  1.7560 -0.5072
 8572TIP3   OH247206   5.577   5.207   5.171  0.6278  0.6853  0.0645
 8572TIP3    H147207   5.538   5.295   5.180  0.5768  0.9432 -2.4550
 8572TIP3    H247208   5.671   5.223   5.166  0.7837  0.4002  1.7146
 8573TIP3   OH247209   1.182   1.531  12.347  0.7062  0.3080 -0.1521
 8573TIP3    H147210   1.180   1.470  12.421 -0.2839 -0.4417 -0.7988
 8573TIP3    H247211   1.262   1.507  12.300 -1.2726 -2.6814 -2.2063
 8574TIP3   OH247212   1.690   3.477  15.754  0.4637  0.7334  0.1314
 8574TIP3    H147213   1.695   3.553  15.811  0.6263 -0.6275  1.9929
 8574TIP3    H247214   1.607   3.486  15.707 -0.5356  0.9824  1.9135
 8575TIP3   OH247215   6.096   1.809  16.812  0.0235  0.1222 -1.0027
 8575TIP3    H147216   6.121   1.727  16.855  0.1731  0.1591 -1.0190
 8575TIP3    H247217   6.088   1.786  16.719  0.1711  0.1490 -1.0240
 8576TIP3   OH247218   6.042   5.566   3.501 -0.2674 -0.3701 -0.3781
 8576TIP3    H147219   6.015   5.650   3.465 -0.6890 -0.0787  0.5967
 8576TIP3    H247220   5.961   5.527   3.534  0.0497 -0.8093 -0.1180
 8577TIP3   OH247221   4.160   5.524   2.882 -0.4122 -0.2136  0.1161
 8577TIP3    H147222   4.219   5.450   2.892 -0.4483 -0.1227  1.0601
 8577TIP3    H247223   4.080   5.486   2.846 -0.0819 -0.4684 -0.3608
 8578TIP3   OH247224   2.857   5.636   5.162  0.2754 -0.4709 -0.0431
 8578TIP3    H147225   2.800   5.657   5.088  0.7298  0.4473 -0.1374
 8578TIP3    H247226   2.905   5.558   5.133  0.1734 -0.3461 -0.5685
 8579TIP3   OH247227   5.920   0.740   2.531 -0.1057 -0.4268 -0.0714
 8579TIP3    H147228   5.871   0.658   2.528 -0.7978 -0.1115  1.8770
 8579TIP3    H247229   5.982   0.734   2.457 -2.4807 -1.1777 -2.0627
 8580TIP3   OH247230   0.491   6.771  14.862 -0.3569 -0.1710 -0.0171
 8580TIP3    H147231   0.519   6.854  14.901  1.2055 -0.3491 -0.7040
 8580TIP3    H247232   0.439   6.728  14.930 -0.0997  0.8073  0.8084
 8581TIP3   OH247233   6.527   2.276   1.336  0.2749  0.1104  0.0367
 8581TIP3    H147234   6.479   2.338   1.390  0.5246 -0.3501  0.7901
 8581TIP3    H247235   6.460   2.218   1.300  0.1680  0.0442  0.3401
 8582TIP3   OH247236   1.835   5.541  12.944 -0.1988 -0.0087  0.0832
 8582TIP3    H147237   1.928   5.562  12.949 -0.4442  1.4023 -0.8817
 8582TIP3    H247238   1.824   5.467  13.003  1.1444  1.1955  1.9202
 8583TIP3   OH247239   6.563   6.227  11.154  0.0471 -0.2330  0.2512
 8583TIP3    H147240   6.552   6.173  11.232 -0.2124  1.1906  1.2139
 8583TIP3    H247241   6.653   6.208  11.125 -0.7632 -2.8144 -0.7054
 8584TIP3   OH247242   5.708   0.322  16.228 -0.4732  0.4291  0.4638
 8584TIP3    H147243   5.724   0.271  16.308  3.3067  1.0729  0.1788
 8584TIP3    H247244   5.738   0.410  16.250 -0.4279  0.8659 -1.3247
 8585TIP3   OH247245   1.392   5.598   0.857 -0.2752 -0.1024  0.0654
 8585TIP3    H147246   1.462   5.589   0.792 -0.4863  0.7819 -0.2876
 8585TIP3    H247247   1.375   5.509   0.887  2.4416 -0.1344  1.6826
 8586TIP3   OH247248   1.527   1.040   3.980 -0.0298 -0.0660 -0.1255
 8586TIP3    H147249   1.459   1.054   3.915 -1.3728 -1.3465  0.9550
 8586TIP3    H247250   1.577   0.965   3.947 -0.9715 -0.9861  0.4887
 8587TIP3   OH247251   1.575   1.797  17.039 -0.0749  0.1540 -0.1013
 8587TIP3    H147252   1.533   1.858  16.979 -0.0444 -1.9142 -2.3265
 8587TIP3    H247253   1.511   1.783  17.109 -0.8715  1.2095 -0.6187
 8588TIP3   OH247254   6.442   4.226  14.080 -0.0031 -0.2460 -0.2342
 8588TIP3    H147255   6.393   4.169  14.139 -0.2087  0.5879  0.4089
 8588TIP3    H247256   6.381   4.247  14.010  0.2851 -1.3509 -0.8393
 8589TIP3   OH247257   4.780   3.817   5.498 -0.1191  0.7557  0.2759
 8589TIP3    H147258   4.851   3.878   5.515  0.2151  0.2539  0.6672
 8589TIP3    H247259   4.708   3.873   5.467  1.3641  1.0021 -2.9744
 8590TIP3   OH247260   3.811   0.195  14.540 -0.8637 -0.1528  0.3585
 8590TIP3    H147261   3.733   0.143  14.521 -1.5987  0.2719  2.0755
 8590TIP3    H247262   3.787   0.248  14.616  1.2952 -0.4374  1.2799
 8591TIP3   OH247263   1.971   6.201   6.154 -0.5923  0.2571  0.2614
 8591TIP3    H147264   2.052   6.223   6.108  1.1081 -0.6902  2.6456
 8591TIP3    H247265   1.916   6.160   6.088  0.8569  1.0000 -1.4419
 8592TIP3   OH247266   5.798   2.189  15.919 -0.6440  0.3458  0.0683
 8592TIP3    H147267   5.799   2.242  15.999 -0.8014  0.2607  0.1287
 8592TIP3    H247268   5.832   2.104  15.945 -0.3396  0.4343 -0.0385
 8593TIP3   OH247269   3.828   0.035  15.859  0.1582 -0.0885  0.2223
 8593TIP3    H147270   3.898   0.099  15.854 -0.8171  0.8724 -1.4596
 8593TIP3    H247271   3.778   0.059  15.937 -0.8566  1.9206 -1.0040
 8594TIP3   OH247272   0.669   3.671  13.732  0.4008 -0.5922 -0.5819
 8594TIP3    H147273   0.594   3.615  13.754  1.4332 -1.6245  0.4667
 8594TIP3    H247274   0.724   3.669  13.811  2.3867 -1.2859 -1.9273
 8595TIP3   OH247275   0.210   2.901   5.201 -0.0257  0.0079  0.0274
 8595TIP3    H147276   0.290   2.927   5.245 -0.1099  2.5791 -1.2371
 8595TIP3    H247277   0.140   2.923   5.263 -0.0060  1.7103 -0.5278
 8596TIP3   OH247278   1.979   4.219  12.932 -0.0354  0.3278 -0.5228
 8596TIP3    H147279   2.039   4.187  12.865  0.3962  2.1370 -1.0283
 8596TIP3    H247280   1.899   4.168  12.919  1.6012 -2.6376  0.6559
 8597TIP3   OH247281   3.490   4.112   0.889  0.1296  0.0017  0.2725
 8597TIP3    H147282   3.536   4.103   0.805  0.7054 -0.8977  0.6716
 8597TIP3    H247283   3.425   4.042   0.889 -0.7763  0.8252  0.0210
 8598TIP3   OH247284   3.399   3.479   4.099 -0.2292 -0.3392 -0.5278
 8598TIP3    H147285   3.316   3.440   4.071  0.1014 -2.4881  1.2804
 8598TIP3    H247286   3.434   3.416   4.163  1.3436  2.0067  0.9748
 8599TIP3   OH247287   0.917   4.025   4.804 -0.1916  0.3338  0.5458
 8599TIP3    H147288   0.958   4.055   4.885  0.0659  2.4770 -0.3472
 8599TIP3    H247289   0.891   4.106   4.759 -0.1988 -0.8185 -1.5657
 8600TIP3   OH247290   2.954   5.908   5.099  0.3976 -0.3171 -0.3985
 8600TIP3    H147291   3.046   5.891   5.121 -0.1598 -1.6154  1.0009
 8600TIP3    H247292   2.920   5.822   5.072 -0.5495  0.0347 -0.3390
 8601TIP3   OH247293   0.030   4.370   3.739 -0.3113 -0.0370  0.0379
 8601TIP3    H147294   0.063   4.292   3.695  1.5853  1.7481 -1.8456
 8601TIP3    H247295   0.072   4.369   3.825 -0.2899 -1.0776  0.0158
 8602TIP3   OH247296   5.463   0.010   2.512 -0.4142  0.1115 -0.1671
 8602TIP3    H147297   5.414  -0.031   2.583  1.1231  0.6934  1.2434
 8602TIP3    H247298   5.423   0.096   2.503 -1.2725 -0.3288 -0.7159
 8603TIP3   OH247299   6.316   2.112   0.814 -0.3698 -0.2251  0.1995
 8603TIP3    H147300   6.352   2.064   0.740 -0.7586 -0.3889  0.1119
 8603TIP3    H247301   6.374   2.187   0.825 -0.7082  0.1860 -0.7192
 8604TIP3   OH247302   1.439   1.384   4.219  0.4809  0.0446 -0.2540
 8604TIP3    H147303   1.392   1.372   4.137 -1.0482  1.4192  0.3731
 8604TIP3    H247304   1.399   1.462   4.258 -0.9918 -2.3336  3.2464
 8605TIP3   OH247305   1.062   4.845  16.467 -0.0821  0.0089  0.3254
 8605TIP3    H147306   1.131   4.899  16.507 -1.3604  1.0584  1.1725
 8605TIP3    H247307   1.105   4.762  16.447  1.0981  0.1592  2.1007
 8606TIP3   OH247308   1.346   0.394  13.065  0.3684  0.3102 -0.4647
 8606TIP3    H147309   1.408   0.462  13.035 -1.6851  1.8659 -1.2882
 8606TIP3    H247310   1.313   0.427  13.148  0.9261 -0.7329  0.1866
 8607TIP3   OH247311   6.708   2.348   1.124 -0.2171 -0.3436 -0.0855
 8607TIP3    H147312   6.753   2.264   1.118 -0.9442 -0.8351  1.1284
 8607TIP3    H247313   6.650   2.339   1.200  0.6170  1.7093  0.8366
 8608TIP3   OH247314   0.690   4.163  11.979  0.1486  0.2085 -0.2286
 8608TIP3    H147315   0.674   4.078  12.020 -0.5139  1.2697  1.7719
 8608TIP3    H247316   0.605   4.190  11.944 -0.1605  1.0503  1.1265
 8609TIP3   OH247317   3.360   0.591  11.246  0.0822 -0.2189  0.1070
 8609TIP3    H147318   3.390   0.596  11.155  0.5479 -1.1399  0.2052
 8609TIP3    H247319   3.278   0.542  11.241 -1.4997  2.3791 -0.1734
 8610TIP3   OH247320   3.854   1.137  16.686  0.4071  0.2076 -0.3079
 8610TIP3    H147321   3.760   1.136  16.700  0.3967 -1.1743 -0.4191
 8610TIP3    H247322   3.869   1.212  16.628 -0.3593  1.7026  1.3899
 8611TIP3   OH247323   4.797   3.086   5.007 -0.2423 -0.3519  0.2130
 8611TIP3    H147324   4.838   3.169   5.029  0.5060 -0.7499  0.3066
 8611TIP3    H247325   4.703   3.102   5.018 -0.1503  0.7187 -0.5659
 8612TIP3   OH247326   4.547   1.494  12.955 -0.4056  0.1056  0.0632
 8612TIP3    H147327   4.566   1.519  12.864 -1.8864  1.4197  0.0853
 8612TIP3    H247328   4.517   1.403  12.949  1.9635 -0.6743 -0.4263
 8613TIP3   OH247329   1.507   2.262   0.387  0.2050  0.6114 -0.6951
 8613TIP3    H147330   1.566   2.326   0.349  0.8542  0.4439  0.0154
 8613TIP3    H247331   1.471   2.306   0.464 -1.7533  1.2678 -1.9500
 8614TIP3   OH247332   2.916   1.041  15.160  0.1512  0.5857  0.0767
 8614TIP3    H147333   2.985   1.026  15.224  0.1923  1.6723  0.2965
 8614TIP3    H247334   2.849   0.975  15.182  0.4115  0.5784  0.8868
 8615TIP3   OH247335   6.068   0.822  16.597 -0.6536  0.0738 -0.2758
 8615TIP3    H147336   6.040   0.765  16.668  0.0998  0.0376  0.0035
 8615TIP3    H247337   6.153   0.856  16.626 -0.2106 -0.1591 -1.2870
 8616TIP3   OH247338   0.279   1.917   3.108  0.5018  0.7581 -0.0341
 8616TIP3    H147339   0.320   1.994   3.146  0.5515  1.5464 -1.6706
 8616TIP3    H247340   0.311   1.913   3.018  0.3324 -1.0475 -0.0363
 8617TIP3   OH247341   2.989   0.242   5.594 -0.0831 -0.5679  0.3185
 8617TIP3    H147342   3.041   0.291   5.530  0.4135  0.5859  1.5863
 8617TIP3    H247343   3.051   0.182   5.634 -0.1717 -0.5976  0.4109
 8618TIP3   OH247344   4.380   1.236   4.012  0.3402  0.5422 -0.1309
 8618TIP3    H147345   4.299   1.197   4.044 -0.2013  0.7023 -1.2936
 8618TIP3    H247346   4.411   1.177   3.944  1.1408  0.5442  0.2190
 8619TIP3   OH247347   6.318   1.449  14.210  0.3915  0.4656  0.0291
 8619TIP3    H147348   6.253   1.480  14.148  0.1644 -1.5555 -0.8018
 8619TIP3    H247349   6.284   1.364  14.239  1.4311  0.5222  1.4770
 8620TIP3   OH247350   2.784   5.272   1.058  0.9885  0.1654  0.0991
 8620TIP3    H147351   2.697   5.297   1.028  1.8084  1.1265 -1.5753
 8620TIP3    H247352   2.781   5.280   1.153 -0.6965  0.3319  0.0416
 8621TIP3   OH247353   5.424   6.265  12.533 -0.8807 -0.0839  0.3341
 8621TIP3    H147354   5.441   6.352  12.498 -2.4187  0.0523 -0.1230
 8621TIP3    H247355   5.499   6.212  12.505 -1.5096  0.2909 -2.1918
 8622TIP3   OH247356   6.732   1.375  11.478 -0.1158  0.4205  0.1576
 8622TIP3    H147357   6.724   1.284  11.507  0.0563  0.2878 -0.2110
 8622TIP3    H247358   6.669   1.383  11.406 -0.3161  0.6642  0.3569
 8623TIP3   OH247359   5.334   2.988  10.874 -0.3643  0.2833  0.0119
 8623TIP3    H147360   5.326   2.950  10.787 -0.8696 -2.7143  1.3185
 8623TIP3    H247361   5.428   2.984  10.894 -0.3523  0.2557 -0.0509
 8624TIP3   OH247362   4.620   1.820  17.105  0.6247  0.3527 -0.3140
 8624TIP3    H147363   4.667   1.885  17.159  1.0925 -0.7425  0.6156
 8624TIP3    H247364   4.557   1.780  17.165 -0.2188  0.4972 -1.0919
 8625TIP3   OH247365   6.333   4.025   5.265  0.3149 -0.4260 -0.4112
 8625TIP3    H147366   6.245   4.036   5.302  0.3020 -0.1318 -0.5269
 8625TIP3    H247367   6.325   4.055   5.175  0.8255  0.8006 -0.0624
 8626TIP3   OH247368   4.170   2.356  12.780  0.1236 -0.6240  0.6508
 8626TIP3    H147369   4.191   2.423  12.715  0.4405 -1.7527 -0.4314
 8626TIP3    H247370   4.226   2.377  12.855 -0.5090  0.9027  0.7218
 8627TIP3   OH247371   1.616   6.332   1.022  0.1255  0.3178  0.5158
 8627TIP3    H147372   1.543   6.292   0.975  0.1828 -0.1771  0.8377
 8627TIP3    H247373   1.658   6.389   0.958  1.7904 -2.3440 -0.8707
 8628TIP3   OH247374   0.932   1.527  12.898 -0.3248 -0.8981  0.8954
 8628TIP3    H147375   0.890   1.514  12.813  1.1351 -0.2529  0.0580
 8628TIP3    H247376   0.924   1.442  12.942 -0.3521 -1.4854 -0.2259
 8629TIP3   OH247377   3.857   5.659  15.463 -0.4376 -0.1263 -0.4171
 8629TIP3    H147378   3.819   5.647  15.550  1.0865 -0.6352  0.1974
 8629TIP3    H247379   3.846   5.753  15.445  0.2710  0.2012  0.8180
 8630TIP3   OH247380   4.285   0.877   4.602 -0.0940  1.1613  0.6483
 8630TIP3    H147381   4.297   0.786   4.628 -0.7350  0.9030  0.0546
 8630TIP3    H247382   4.273   0.874   4.507  0.6335  1.9410  0.5294
 8631TIP3   OH247383   2.448   4.330  12.499  0.6123 -0.0181 -0.5707
 8631TIP3    H147384   2.355   4.308  12.488  0.4922  0.3735 -0.3558
 8631TIP3    H247385   2.475   4.280  12.576 -0.1024  1.8718  0.9665
 8632TIP3   OH247386   0.117   3.958  15.062 -0.3913  0.0943 -0.1148
 8632TIP3    H147387   0.123   3.925  15.152  0.6812  1.6921  0.4137
 8632TIP3    H247388   0.045   4.020  15.063 -0.0758  0.4692 -0.2354
 8633TIP3   OH247389   1.751   6.349   2.009  0.0827  0.1723  0.2486
 8633TIP3    H147390   1.700   6.378   2.084  0.9066 -2.0743  1.7106
 8633TIP3    H247391   1.823   6.412   2.004 -0.1816  0.5512  1.0881
 8634TIP3   OH247392   1.526   6.763   2.261  0.6663  0.1464 -0.4774
 8634TIP3    H147393   1.510   6.856   2.276  1.4773  0.0488  1.1136
 8634TIP3    H247394   1.552   6.729   2.347  0.4007 -1.5461 -1.0460
 8635TIP3   OH247395   3.270   1.620  15.434 -0.5959 -0.7549 -0.3506
 8635TIP3    H147396   3.206   1.635  15.364 -1.9846  1.9195  1.3923
 8635TIP3    H247397   3.216   1.591  15.509  0.6237 -1.5793  0.2228
 8636TIP3   OH247398   5.181   0.510   0.837 -0.7888 -0.2122 -0.4390
 8636TIP3    H147399   5.089   0.501   0.859 -0.3637 -1.3388  0.9145
 8636TIP3    H247400   5.197   0.443   0.770 -0.9743  0.0657 -0.7630
 8637TIP3   OH247401   3.645   3.538   0.887 -0.1330  0.3708  0.1394
 8637TIP3    H147402   3.713   3.537   0.820 -0.8806  0.7485 -0.6310
 8637TIP3    H247403   3.666   3.464   0.944  0.9942  0.5674 -0.0216
 8638TIP3   OH247404   6.700   2.044  17.280 -0.1206  0.0393  0.0161
 8638TIP3    H147405   6.773   2.086  17.326  1.5017 -2.2125 -0.3834
 8638TIP3    H247406   6.666   1.981  17.343 -1.9010  1.2210  0.2697
 8639TIP3   OH247407   4.141   3.125   1.464  0.3711  0.3920  0.1727
 8639TIP3    H147408   4.148   3.217   1.436 -1.5506  1.5584  3.2281
 8639TIP3    H247409   4.196   3.120   1.542 -1.3899 -0.4210  1.3892
 8640TIP3   OH247410   4.310   4.197  13.228 -0.5731 -0.3965  0.3948
 8640TIP3    H147411   4.282   4.197  13.137  0.4621  0.6043  0.0538
 8640TIP3    H247412   4.369   4.122  13.235 -2.3147 -1.7406  0.7937
 8641TIP3   OH247413   5.284   2.345  13.695  0.4910  0.4950 -0.1346
 8641TIP3    H147414   5.299   2.414  13.630  1.9985 -1.3530 -1.8133
 8641TIP3    H247415   5.223   2.285  13.653  0.6585 -0.1794  0.5652
 8642TIP3   OH247416   1.200   3.800  13.962  0.2320 -0.3053  0.0504
 8642TIP3    H147417   1.214   3.870  14.026  0.0322  0.1150 -0.3612
 8642TIP3    H247418   1.286   3.787  13.922  0.0201  0.5252 -0.6975
 8643TIP3   OH247419   3.731   0.157  15.147 -0.2641 -0.3162  0.1453
 8643TIP3    H147420   3.771   0.074  15.171  0.7842  0.1806  0.1712
 8643TIP3    H247421   3.799   0.223  15.167 -0.8190  0.4696 -0.5077
 8644TIP3   OH247422   5.968   4.722  13.480 -0.1692  0.1876 -0.2786
 8644TIP3    H147423   6.051   4.707  13.435 -0.0017  1.2553 -0.3235
 8644TIP3    H247424   5.983   4.801  13.533 -1.4144  0.8580 -0.9150
 8645TIP3   OH247425   4.566   4.647  12.475  0.4282 -0.3888 -0.5271
 8645TIP3    H147426   4.480   4.640  12.515 -0.1754  0.4338 -1.6403
 8645TIP3    H247427   4.552   4.618  12.384  1.6899 -1.9207 -0.2519
 8646TIP3   OH247428   1.992   5.708  15.299 -0.2156  0.7444 -0.1101
 8646TIP3    H147429   2.043   5.659  15.234  2.1380  0.5977  1.7930
 8646TIP3    H247430   2.053   5.772  15.334 -1.1389  0.1388  2.7126
 8647TIP3   OH247431   3.660   0.093  13.741 -0.0097 -0.4551 -0.1677
 8647TIP3    H147432   3.604   0.124  13.812 -0.1684  1.3850 -1.0749
 8647TIP3    H247433   3.606   0.102  13.662  0.5239 -1.5015 -0.6701
 8648TIP3   OH247434   1.613   5.453   0.123 -0.4668 -0.0744 -0.6701
 8648TIP3    H147435   1.683   5.420   0.179 -1.4378 -0.2109  0.5038
 8648TIP3    H247436   1.628   5.548   0.118 -1.4767  0.2362  1.4663
 8649TIP3   OH247437   2.390   1.517   2.668 -0.7640 -0.3666 -0.1676
 8649TIP3    H147438   2.471   1.564   2.692 -0.1036 -2.0035  0.8499
 8649TIP3    H247439   2.344   1.578   2.610  1.1691  0.6241 -0.7090
 8650TIP3   OH247440   0.224   5.022  15.993 -0.2656  0.2799  0.2513
 8650TIP3    H147441   0.295   5.081  16.020 -0.0394 -0.2965  0.9350
 8650TIP3    H247442   0.242   5.005  15.901  1.1390 -0.7425  0.6926
 8651TIP3   OH247443   3.932   6.505   2.510 -0.1656 -0.3292 -0.0379
 8651TIP3    H147444   3.873   6.475   2.580  0.9978  0.3144  1.2447
 8651TIP3    H247445   3.992   6.432   2.497  0.9414  0.3644  1.1380
 8652TIP3   OH247446   3.193   1.115  14.644 -0.3382  0.2259  0.2192
 8652TIP3    H147447   3.229   1.193  14.603 -0.7493  0.8639  1.0610
 8652TIP3    H247448   3.105   1.140  14.673 -0.4389 -0.5083  0.5749
 8653TIP3   OH247449   5.499   6.655   4.183  0.4424  0.0580  0.2163
 8653TIP3    H147450   5.546   6.705   4.116 -0.7079  1.5031  0.4506
 8653TIP3    H247451   5.548   6.574   4.191  2.1091  0.9593 -0.5079
 8654TIP3   OH247452   0.231   6.603   0.314 -0.5261 -0.2704 -0.6619
 8654TIP3    H147453   0.262   6.686   0.352  0.7508 -0.1455 -1.9503
 8654TIP3    H247454   0.144   6.624   0.280 -0.6389  0.2679 -0.0692
 8655TIP3   OH247455   1.327   2.842   5.433 -0.7298  0.0604 -0.3327
 8655TIP3    H147456   1.363   2.790   5.506  0.1826 -0.9254 -1.4457
 8655TIP3    H247457   1.387   2.916   5.425 -2.2818  1.5375  1.5396
 8656TIP3   OH247458   5.652   1.080   4.424 -0.5139  0.0816 -0.4517
 8656TIP3    H147459   5.717   1.107   4.489 -1.1349 -0.7369  0.5246
 8656TIP3    H247460   5.567   1.094   4.467 -0.8778 -2.4553 -0.2695
 8657TIP3   OH247461   4.640   4.424  15.696  0.4497  0.1710  0.5318
 8657TIP3    H147462   4.569   4.361  15.685  0.9160 -0.1902 -0.3966
 8657TIP3    H247463   4.665   4.448  15.607  1.5627  0.2137  0.8509
 8658TIP3   OH247464   0.211   2.442  14.922  0.2240  0.0261 -0.0409
 8658TIP3    H147465   0.147   2.399  14.866 -0.3905 -1.1424  1.5095
 8658TIP3    H247466   0.291   2.391  14.909  0.6572  1.0457 -1.4328
 8659TIP3   OH247467   3.557   1.432  15.969  0.4591  0.1255 -0.3459
 8659TIP3    H147468   3.476   1.394  15.937  0.5927 -1.4155  1.0868
 8659TIP3    H247469   3.530   1.492  16.039  0.5170 -0.0383 -0.1824
 8660TIP3   OH247470   0.249   3.485  11.195 -0.4212  0.5083  0.6074
 8660TIP3    H147471   0.247   3.541  11.117 -1.3840  0.2865  0.4684
 8660TIP3    H247472   0.222   3.543  11.266 -2.2893  0.0127  0.3237
 8661TIP3   OH247473   5.738   2.461   1.806 -0.4547 -0.0372 -0.6240
 8661TIP3    H147474   5.812   2.401   1.821 -0.4981  0.1006  0.1604
 8661TIP3    H247475   5.664   2.404   1.785 -1.1179 -0.4368  2.5746
 8662TIP3   OH247476   0.786   3.119  12.971  0.5225  0.0420 -0.0519
 8662TIP3    H147477   0.709   3.167  13.001 -0.2633 -2.0334  1.4068
 8662TIP3    H247478   0.777   3.116  12.875  0.7437  2.9338 -0.2120
 8663TIP3   OH247479   4.297   6.214  13.799 -0.2452 -0.0815 -0.3272
 8663TIP3    H147480   4.287   6.178  13.887 -2.3429  2.1600  0.3816
 8663TIP3    H247481   4.392   6.221  13.788  0.0454  1.5390  2.5832
 8664TIP3   OH247482   0.132   2.460   3.017 -0.0703  0.2295  0.1875
 8664TIP3    H147483   0.057   2.495   3.065 -1.9852 -0.0914 -2.4958
 8664TIP3    H247484   0.105   2.372   2.992  1.0989  0.2093 -1.0632
 8665TIP3   OH247485   5.418   5.259  15.880 -0.1834 -0.1258  0.0784
 8665TIP3    H147486   5.353   5.204  15.923  0.1515  0.0471  0.8144
 8665TIP3    H247487   5.502   5.219  15.903 -0.0235 -0.2155 -0.6784
 8666TIP3   OH247488   3.308   5.320   4.576 -0.5700  0.1653 -0.0153
 8666TIP3    H147489   3.293   5.233   4.614 -0.7414  0.8201  1.4352
 8666TIP3    H247490   3.372   5.361   4.634 -2.4471  1.9914  0.8670
 8667TIP3   OH247491   3.729   6.638   3.386 -0.4039  0.1075 -0.7539
 8667TIP3    H147492   3.771   6.701   3.445  1.4295 -2.1435  0.4229
 8667TIP3    H247493   3.763   6.659   3.299  1.3270 -0.1642 -0.1621
 8668TIP3   OH247494   3.588   5.797   1.698  0.3955  0.2322  0.1252
 8668TIP3    H147495   3.542   5.719   1.730 -0.6261  1.4628  1.7150
 8668TIP3    H247496   3.671   5.796   1.745 -0.3255  1.0031  1.4714
 8669TIP3   OH247497   2.144   1.906   3.190  0.0526  0.0223  0.1762
 8669TIP3    H147498   2.154   1.961   3.268  0.9339 -0.7621  0.6236
 8669TIP3    H247499   2.203   1.945   3.125  0.5038 -0.2594  0.4175
 8670TIP3   OH247500   3.818   4.164   0.168  0.0241  0.4206  0.1016
 8670TIP3    H147501   3.778   4.101   0.108  1.8634 -0.2587 -0.4677
 8670TIP3    H247502   3.853   4.232   0.110 -1.3033  1.6114  0.6631
 8671TIP3   OH247503   1.206   4.256   2.422  0.4238 -0.2074  0.4829
 8671TIP3    H147504   1.288   4.220   2.455  1.5359  2.6880  1.0880
 8671TIP3    H247505   1.226   4.285   2.333  0.6229  2.0802  1.2258
 8672TIP3   OH247506   3.739   3.121  13.606 -0.5028  0.3602  0.2421
 8672TIP3    H147507   3.830   3.116  13.579 -0.2154  3.2864  0.5163
 8672TIP3    H247508   3.689   3.107  13.526  0.2061 -0.0578 -0.1312
 8673TIP3   OH247509   3.623   1.421   5.197 -0.4666 -0.0754  0.0497
 8673TIP3    H147510   3.677   1.483   5.247  0.1648 -1.4438  1.1124
 8673TIP3    H247511   3.540   1.418   5.245 -1.2164  1.3811 -1.1018
 8674TIP3   OH247512   5.914   0.279   3.135 -0.3914  0.0478 -0.0591
 8674TIP3    H147513   5.927   0.215   3.206  1.1841 -0.4163 -0.7454
 8674TIP3    H247514   5.820   0.280   3.122 -0.5778 -1.0005  1.0155
 8675TIP3   OH247515   2.148   5.881  15.451 -0.5020  0.1900 -0.3034
 8675TIP3    H147516   2.230   5.929  15.461  0.9983 -2.3795  0.0455
 8675TIP3    H247517   2.082   5.938  15.493  1.2702  1.7575  0.4230
 8676TIP3   OH247518   1.899   3.924   1.341 -0.5008 -0.4649 -0.0719
 8676TIP3    H147519   1.874   3.835   1.318  0.2374 -0.6038 -0.3369
 8676TIP3    H247520   1.982   3.915   1.387 -1.6937 -0.1392  2.2102
 8677TIP3   OH247521   3.240   6.638  11.127 -0.1419  0.1921 -0.2391
 8677TIP3    H147522   3.207   6.583  11.056 -0.9853 -0.1404  0.3940
 8677TIP3    H247523   3.203   6.724  11.110  1.1243  0.5594 -1.1934
 8678TIP3   OH247524   0.403   1.951  17.118 -0.1635 -0.1860 -0.3023
 8678TIP3    H147525   0.425   2.043  17.133  0.1936 -0.3556  0.2471
 8678TIP3    H247526   0.431   1.934  17.028  1.2174 -0.1738  0.1161
 8679TIP3   OH247527   2.620   1.616   3.191  0.3491  0.4398 -0.1916
 8679TIP3    H147528   2.573   1.549   3.142  3.5277 -1.3292 -0.9538
 8679TIP3    H247529   2.553   1.657   3.246 -1.8543 -2.7603 -0.3456
 8680TIP3   OH247530   5.818   1.596   2.428  0.3884  0.2673  0.0346
 8680TIP3    H147531   5.816   1.588   2.333 -1.0122 -1.6522  0.1763
 8680TIP3    H247532   5.809   1.506   2.460 -1.2403  1.0537  1.9603
 8681TIP3   OH247533   4.730   1.846   1.420  0.3889 -0.3730 -0.0663
 8681TIP3    H147534   4.794   1.883   1.360 -0.0341  0.3447 -0.0798
 8681TIP3    H247535   4.647   1.889   1.397 -0.1261 -1.3682 -0.1246
 8682TIP3   OH247536   3.364   3.879   3.218 -0.3081 -0.3097 -0.2984
 8682TIP3    H147537   3.335   3.790   3.199 -0.9424 -0.3594  0.9064
 8682TIP3    H247538   3.413   3.872   3.299  1.4504  0.1005 -1.2996
 8683TIP3   OH247539   5.920   3.476   3.971  0.3957  0.8925  0.4872
 8683TIP3    H147540   5.855   3.532   4.014 -1.0612 -1.0519  0.8906
 8683TIP3    H247541   5.873   3.435   3.899  2.2697  2.4719 -1.6918
 8684TIP3   OH247542   5.501   4.557   3.284 -0.4921 -0.4132  0.5554
 8684TIP3    H147543   5.508   4.644   3.323 -2.1121  0.1310 -0.3435
 8684TIP3    H247544   5.411   4.529   3.300 -0.4397 -1.2734 -0.5170
 8685TIP3   OH247545   1.260   2.673  13.095 -0.2515  0.1492 -0.3896
 8685TIP3    H147546   1.219   2.759  13.087  0.3780  0.5558  0.7528
 8685TIP3    H247547   1.348   2.685  13.057 -0.6634 -0.3531 -1.5198
 8686TIP3   OH247548   0.620   4.413   4.342  0.3544 -0.4382 -0.0947
 8686TIP3    H147549   0.615   4.324   4.307  1.4682 -0.2545 -0.7295
 8686TIP3    H247550   0.565   4.465   4.283 -0.9449 -0.8372  0.7416
 8687TIP3   OH247551   1.415   4.943  12.228  0.0421 -0.2954  0.0599
 8687TIP3    H147552   1.488   4.960  12.286 -0.7106  1.7245  0.4470
 8687TIP3    H247553   1.347   5.004  12.255 -2.6308 -3.5916  1.1553
 8688TIP3   OH247554   4.887   3.690   3.739  0.1167  0.3747  0.0842
 8688TIP3    H147555   4.975   3.710   3.772  0.2646 -1.0743  0.5779
 8688TIP3    H247556   4.867   3.763   3.681  1.8421  0.4952 -0.3901
 8689TIP3   OH247557   2.899   5.268   3.879 -0.1127  0.0764 -0.3257
 8689TIP3    H147558   2.954   5.324   3.824 -0.0694 -0.9838 -1.3676
 8689TIP3    H247559   2.914   5.301   3.968 -0.2545  1.8694 -0.9348
 8690TIP3   OH247560   5.486   1.941  15.323 -0.1611  0.1385 -0.8539
 8690TIP3    H147561   5.541   1.994  15.381  0.6070  1.1131 -2.4565
 8690TIP3    H247562   5.462   1.865  15.376  0.3921  1.0862  0.7987
 8691TIP3   OH247563   4.381   1.652  16.820 -0.2072 -0.3578  0.0622
 8691TIP3    H147564   4.337   1.735  16.803 -1.1039 -1.0177 -0.9773
 8691TIP3    H247565   4.311   1.587  16.815  0.7635 -1.3488 -0.8776
 8692TIP3   OH247566   4.852   1.409   3.684 -0.2338  0.4077  0.0376
 8692TIP3    H147567   4.868   1.431   3.776 -0.7258  1.0941 -0.0413
 8692TIP3    H247568   4.868   1.315   3.679  1.6521  0.6970  0.4246
 8693TIP3   OH247569   5.854   4.839   5.859 -0.0263 -0.1877  0.1994
 8693TIP3    H147570   5.805   4.760   5.880  0.2920  0.3391  3.1619
 8693TIP3    H247571   5.830   4.901   5.928  1.6146  1.4647 -0.6764
 8694TIP3   OH247572   2.720   5.824  13.347 -0.2944  0.0230 -0.0484
 8694TIP3    H147573   2.773   5.753  13.309 -1.6683 -1.3576  0.5834
 8694TIP3    H247574   2.726   5.810  13.442  0.5902  1.6139  0.1476
 8695TIP3   OH247575   5.556   5.594  13.403  0.0953 -0.2495  0.4301
 8695TIP3    H147576   5.532   5.645  13.481  1.5809 -1.0041  1.4162
 8695TIP3    H247577   5.619   5.648  13.357 -0.4375 -0.0016 -0.0125
 8696TIP3   OH247578   5.365   2.153  11.940  0.2012  0.1958  0.4482
 8696TIP3    H147579   5.427   2.212  11.898  0.4985  0.9390  1.8880
 8696TIP3    H247580   5.311   2.120  11.868  1.6244  0.3001 -0.6902
 8697TIP3   OH247581   0.919   2.983   0.103  0.4982  0.1141  0.7315
 8697TIP3    H147582   0.875   3.067   0.089  0.4586  0.1728  1.1849
 8697TIP3    H247583   0.989   2.981   0.038 -0.3293 -0.0911 -0.1688
 8698TIP3   OH247584   2.870   2.604  14.545 -0.0812  0.0941  0.7765
 8698TIP3    H147585   2.962   2.594  14.569 -0.1920 -0.1143  1.1202
 8698TIP3    H247586   2.825   2.532  14.589 -0.7079  1.3356  2.2418
 8699TIP3   OH247587   3.182   2.471  10.785 -0.0828 -0.1403 -0.1664
 8699TIP3    H147588   3.174   2.394  10.728 -0.0318  0.9559 -1.7021
 8699TIP3    H247589   3.186   2.545  10.724  0.7246  1.0096  1.2601
 8700TIP3   OH247590   6.579   3.711   2.713  0.2035  0.5885  0.3546
 8700TIP3    H147591   6.596   3.799   2.680  0.0820  0.6588  0.4789
 8700TIP3    H247592   6.662   3.665   2.704 -0.5175 -0.2220 -2.5954
 8701TIP3   OH247593   5.756   5.968  14.199 -0.0715 -0.3165  0.4388
 8701TIP3    H147594   5.847   5.962  14.169 -0.0185 -0.1119  0.5605
 8701TIP3    H247595   5.756   5.926  14.285  0.4650  2.0808  1.6470
 8702TIP3   OH247596   3.938   1.804  15.406 -0.0080  0.3939 -0.2760
 8702TIP3    H147597   3.869   1.857  15.446 -0.4636  0.1262 -0.7039
 8702TIP3    H247598   4.019   1.844  15.436 -0.3425 -0.0754  1.2633
 8703TIP3   OH247599   0.765   6.495  15.580  0.6600 -0.0509 -0.2524
 8703TIP3    H147600   0.691   6.441  15.553  0.0435 -0.0083  1.3218
 8703TIP3    H247601   0.838   6.434  15.591 -0.2161 -0.7030  2.2268
 8704TIP3   OH247602   1.730   2.652   3.601  0.4554  0.2240  0.0314
 8704TIP3    H147603   1.657   2.701   3.639  1.1676  0.7869  0.6853
 8704TIP3    H247604   1.727   2.566   3.643 -2.0002 -1.0132 -2.5459
 8705TIP3   OH247605   4.524   5.718  11.681  0.2344 -0.4764  0.3791
 8705TIP3    H147606   4.592   5.724  11.614  0.3380  1.6563  0.6298
 8705TIP3    H247607   4.462   5.653  11.648 -0.9259  2.1682 -2.8883
 8706TIP3   OH247608   0.213   1.304  11.492  0.0666  0.2914 -0.0354
 8706TIP3    H147609   0.135   1.353  11.519  0.5004  0.9255  0.0878
 8706TIP3    H247610   0.178   1.224  11.452 -0.7088  1.3457 -1.5435
 8707TIP3   OH247611   4.197   2.959   4.093  0.2660 -0.0731  0.0543
 8707TIP3    H147612   4.273   2.977   4.039  0.8220 -1.5215  0.3383
 8707TIP3    H247613   4.181   3.040   4.141  0.8272  0.6483 -0.9753
 8708TIP3   OH247614   6.037   1.263   5.998  0.0484  0.0794  0.3488
 8708TIP3    H147615   6.040   1.223   6.085  3.0098 -1.3507 -0.3491
 8708TIP3    H247616   6.080   1.348   6.009 -1.0799  0.6275  0.6100
 8709TIP3   OH247617   6.217   2.129   2.405 -0.5277  0.0389 -0.4614
 8709TIP3    H147618   6.251   2.159   2.489  0.8702  0.7114 -1.2533
 8709TIP3    H247619   6.125   2.110   2.422 -0.5024  1.1320  0.9782
 8710TIP3   OH247620   2.326   0.122   1.111 -0.3469  0.0703  0.0404
 8710TIP3    H147621   2.388   0.084   1.049 -1.6830 -1.4013 -0.4135
 8710TIP3    H247622   2.240   0.106   1.072 -1.1975 -0.7428  2.1783
 8711TIP3   OH247623   0.289   4.997   2.038 -0.1715 -0.1751  0.2256
 8711TIP3    H147624   0.241   5.014   1.957  1.7809  1.3507 -0.6619
 8711TIP3    H247625   0.358   4.935   2.013 -1.1594 -1.7140  1.2980
 8712TIP3   OH247626   1.473   5.335  17.030  0.3660  0.6275 -0.3039
 8712TIP3    H147627   1.456   5.423  17.064  1.0363  1.1655 -1.3381
 8712TIP3    H247628   1.542   5.348  16.965 -0.4463 -0.4735 -1.3980
 8713TIP3   OH247629   0.393   1.900   2.851 -0.4880 -0.1218  0.2168
 8713TIP3    H147630   0.388   1.838   2.777 -0.8715  0.5309 -0.3078
 8713TIP3    H247631   0.376   1.985   2.812  0.4387  0.3726  0.8757
 8714TIP3   OH247632   4.247   6.533  12.174  0.5229  0.4442 -0.3801
 8714TIP3    H147633   4.319   6.504  12.230  1.2467  1.7903 -0.5766
 8714TIP3    H247634   4.278   6.519  12.085 -0.3259 -0.9792 -0.4656
 8715TIP3   OH247635   2.956   0.300  13.318  0.3830 -0.3874  0.0646
 8715TIP3    H147636   2.871   0.258  13.308  0.1282 -0.0254  0.6972
 8715TIP3    H247637   2.939   0.393  13.307  0.8788 -0.4090 -0.9130
 8716TIP3   OH247638   1.662   0.967  14.272 -0.3700  0.1421  0.0560
 8716TIP3    H147639   1.746   0.922  14.276  0.2482  1.3372  0.6619
 8716TIP3    H247640   1.632   0.954  14.182 -0.2766 -1.5946  0.2673
 8717TIP3   OH247641   1.689   0.794  13.139  0.2620 -0.0485  0.1255
 8717TIP3    H147642   1.773   0.759  13.171  0.6491  0.4558 -0.3320
 8717TIP3    H247643   1.645   0.827  13.217 -0.1750 -1.6920  0.5911
 8718TIP3   OH247644   6.320   5.496   5.139  0.4053 -0.3163 -0.4402
 8718TIP3    H147645   6.350   5.538   5.219 -0.3447  0.2388 -0.4380
 8718TIP3    H247646   6.241   5.546   5.115  1.4477  0.4571 -2.3223
 8719TIP3   OH247647   0.807   0.748  14.692 -0.5579 -0.2231 -0.4484
 8719TIP3    H147648   0.723   0.769  14.732 -0.5260 -2.1028  0.7067
 8719TIP3    H247649   0.865   0.731  14.766 -0.0110 -1.9875 -1.2354
 8720TIP3   OH247650   0.770   6.696  12.245  0.5602  0.1288 -0.1953
 8720TIP3    H147651   0.692   6.747  12.269  1.1165  0.9153 -0.0506
 8720TIP3    H247652   0.765   6.618  12.300 -0.5197 -0.1864 -0.7141
 8721TIP3   OH247653   1.205   6.770   5.109  0.3674 -0.5226 -0.1318
 8721TIP3    H147654   1.202   6.812   5.023  0.5046  0.5922  0.3971
 8721TIP3    H247655   1.226   6.841   5.170 -1.2837 -0.9847  1.0206
 8722TIP3   OH247656   6.288   0.076  13.014  0.1453 -0.0021 -0.0956
 8722TIP3    H147657   6.368   0.040  12.977  0.4062  2.1281 -1.7114
 8722TIP3    H247658   6.221   0.060  12.948  0.2089  2.1429 -0.7204
 8723TIP3   OH247659   2.875   2.414   2.172  0.1611  0.6053 -0.1964
 8723TIP3    H147660   2.882   2.506   2.196 -1.2778  0.7281 -0.1948
 8723TIP3    H247661   2.916   2.366   2.244  2.1741  1.2895 -0.8429
 8724TIP3   OH247662   1.536   1.799   4.904  0.0203 -0.2520 -0.3927
 8724TIP3    H147663   1.511   1.833   4.818  0.3083 -0.0916 -0.4150
 8724TIP3    H247664   1.556   1.707   4.888  0.4169 -0.1364 -0.5681
 8725TIP3   OH247665   6.472   4.397  12.089  0.1000 -0.0734 -0.4937
 8725TIP3    H147666   6.411   4.333  12.052  1.1847 -1.3381 -0.1504
 8725TIP3    H247667   6.519   4.431  12.013  0.2503 -0.4701 -0.5817
 8726TIP3   OH247668   5.342   6.784   5.489 -0.0998 -0.1008 -0.3233
 8726TIP3    H147669   5.257   6.808   5.452  0.0574  1.3285  0.2167
 8726TIP3    H247670   5.332   6.691   5.513 -0.8915 -0.4489 -1.9243
 8727TIP3   OH247671   3.789   1.448  16.600 -0.7363  0.3945 -0.3576
 8727TIP3    H147672   3.759   1.486  16.518 -1.8581  3.2279  1.3174
 8727TIP3    H247673   3.709   1.430  16.649 -0.0148  0.0613  0.7214
 8728TIP3   OH247674   3.909   5.473   6.527  0.0102  0.3719 -0.6736
 8728TIP3    H147675   3.998   5.461   6.492 -0.0952  1.2186 -1.2381
 8728TIP3    H247676   3.904   5.566   6.549 -0.4366  0.1406  0.1995
 8729TIP3   OH247677   4.355   4.517   1.710  0.6032  0.1788 -0.1578
 8729TIP3    H147678   4.412   4.572   1.764  2.4057  0.4025 -2.2092
 8729TIP3    H247679   4.280   4.573   1.689  0.5801  0.5610  0.9234
 8730TIP3   OH247680   0.893   2.696   3.296  0.2078 -0.5970 -0.2907
 8730TIP3    H147681   0.950   2.712   3.372 -0.6355  0.2059  0.1892
 8730TIP3    H247682   0.940   2.735   3.222  0.0768  0.4750  0.1790
 8731TIP3   OH247683   6.626   1.780  11.181  0.0212 -0.1173 -0.2177
 8731TIP3    H147684   6.653   1.691  11.160 -1.5617 -0.7383  0.2672
 8731TIP3    H247685   6.706   1.832  11.175  0.9236 -1.5392 -0.6829
 8732TIP3   OH247686   2.747   3.272  15.451 -0.5572 -0.4608 -0.1145
 8732TIP3    H147687   2.721   3.225  15.372 -0.1203  0.0913 -0.5800
 8732TIP3    H247688   2.818   3.220  15.488  1.7504  1.2378 -2.0566
 8733TIP3   OH247689   0.034   0.882   1.456 -1.1937 -0.5304  0.0031
 8733TIP3    H147690   0.068   0.843   1.537  0.2853  2.6246  0.9882
 8733TIP3    H247691   0.113   0.913   1.410 -2.2542  0.5597 -1.1149
 8734TIP3   OH247692   5.530   5.352  16.184  0.3355  0.1647  0.3259
 8734TIP3    H147693   5.453   5.316  16.140  0.4539  0.7514 -0.3746
 8734TIP3    H247694   5.590   5.278  16.190  0.5208  0.2024 -0.9757
 8735TIP3   OH247695   3.154   0.004  13.539  0.5998 -0.1453  0.3157
 8735TIP3    H147696   3.143   0.085  13.588  0.8907  0.0263  0.0933
 8735TIP3    H247697   3.069  -0.011  13.497 -0.1933 -1.1742  2.2100
 8736TIP3   OH247698   5.990   0.784  14.722 -0.0599 -0.3908  0.5697
 8736TIP3    H147699   5.965   0.747  14.807  0.1970 -0.1323  0.7566
 8736TIP3    H247700   6.018   0.708  14.670 -1.8007 -0.7774  0.1548
 8737TIP3   OH247701   0.025   4.229   5.681 -0.6136 -0.2704 -0.1270
 8737TIP3    H147702  -0.023   4.288   5.739 -0.4469 -1.9083  1.7060
 8737TIP3    H247703   0.117   4.244   5.701 -0.4650  0.4271 -1.2524
 8738TIP3   OH247704   0.022   5.460  12.847  0.0047  0.3525 -0.2790
 8738TIP3    H147705   0.035   5.507  12.765 -1.6455  0.8840 -0.2610
 8738TIP3    H247706  -0.004   5.372  12.821  1.2517 -0.0042 -0.3198
 8739TIP3   OH247707   3.040   2.260   0.731 -0.1241  0.2172 -0.0826
 8739TIP3    H147708   3.070   2.221   0.649 -0.3209  0.7507 -0.4133
 8739TIP3    H247709   2.966   2.316   0.705  0.1599  0.8107  0.3790
 8740TIP3   OH247710   5.950   1.374   5.127  0.0273  0.4877  0.0565
 8740TIP3    H147711   5.911   1.426   5.056 -0.4684  0.5475  0.3727
 8740TIP3    H247712   5.912   1.287   5.116 -0.5857  0.6769  0.6755
 8741TIP3   OH247713   2.507   4.194  17.092  0.6032  0.0322  0.3413
 8741TIP3    H147714   2.539   4.224  17.177  0.2665 -3.1871  1.6733
 8741TIP3    H247715   2.585   4.190  17.037  1.4119 -1.2355  1.5470
 8742TIP3   OH247716   6.660   2.093  14.956  0.0251  0.4768 -0.0661
 8742TIP3    H147717   6.629   2.038  15.028 -1.2761  0.4286 -0.6535
 8742TIP3    H247718   6.582   2.139  14.926  0.8181  1.5239 -0.5683
 8743TIP3   OH247719   4.141   6.455  17.064 -0.0974 -0.1836 -0.1895
 8743TIP3    H147720   4.201   6.523  17.095 -1.3187  0.3911  0.9323
 8743TIP3    H247721   4.054   6.491  17.077 -0.7386 -1.4857 -0.7248
 8744TIP3   OH247722   4.681   1.092  14.730 -0.0139  0.4907 -0.4590
 8744TIP3    H147723   4.607   1.153  14.726 -1.8375 -1.4909  2.0813
 8744TIP3    H247724   4.642   1.006  14.718  1.7906 -0.6471  1.5587
 8745TIP3   OH247725   2.790   3.094   4.351 -0.5105 -0.0055 -0.6033
 8745TIP3    H147726   2.803   3.185   4.376 -1.1288  0.4055 -1.7329
 8745TIP3    H247727   2.863   3.047   4.391  1.3654  1.4055 -2.2489
 8746TIP3   OH247728   2.829   3.730  15.944 -0.8302  0.1857 -0.2779
 8746TIP3    H147729   2.791   3.774  16.021  0.1341 -2.1418  1.5930
 8746TIP3    H247730   2.879   3.658  15.981 -0.3113 -0.9487 -3.1408
 8747TIP3   OH247731   0.931   6.445   2.529  0.3797 -0.1424 -0.5333
 8747TIP3    H147732   0.995   6.382   2.497  0.1673  0.0042 -1.2611
 8747TIP3    H247733   0.847   6.399   2.526  0.1384  0.3362 -1.5942
 8748TIP3   OH247734   2.473   4.821   3.992 -0.7458  0.6544  0.1908
 8748TIP3    H147735   2.417   4.790   4.063 -0.6478  1.6134  0.7102
 8748TIP3    H247736   2.515   4.743   3.958 -0.3636  0.2343  1.5719
 8749TIP3   OH247737   4.001   2.333   0.034 -0.2485 -0.0951 -0.3561
 8749TIP3    H147738   3.957   2.399  -0.020  0.3724 -1.2521 -2.3368
 8749TIP3    H247739   3.936   2.264   0.045  0.3039 -0.8007 -1.4125
 8750TIP3   OH247740   3.747   3.994  13.195  0.4507 -0.3648 -0.6288
 8750TIP3    H147741   3.737   4.002  13.100  0.2547 -1.2351 -0.6879
 8750TIP3    H247742   3.763   4.083  13.225  3.7640 -0.4479 -1.8569
 8751TIP3   OH247743   3.901   2.668  16.504  0.0699  0.2299 -0.1555
 8751TIP3    H147744   3.813   2.675  16.466 -0.6741 -0.5936  1.3599
 8751TIP3    H247745   3.899   2.726  16.580  0.5195 -0.5153  0.4400
 8752TIP3   OH247746   4.734   5.578   4.385 -0.6261 -0.5202 -0.1045
 8752TIP3    H147747   4.725   5.557   4.478 -3.7612  4.3037  0.8269
 8752TIP3    H247748   4.645   5.575   4.351  0.2099  0.1274 -2.4126
 8753TIP3   OH247749   4.493   3.084  15.829  0.3783 -0.0006 -0.1986
 8753TIP3    H147750   4.490   3.124  15.916  0.8663  0.2374 -0.2933
 8753TIP3    H247751   4.401   3.072  15.805  0.2423  0.0332  0.3042
 8754TIP3   OH247752   1.563   3.090  13.153  0.2827  0.5588 -0.1144
 8754TIP3    H147753   1.558   3.010  13.102 -0.2776  3.0572 -4.2304
 8754TIP3    H247754   1.472   3.117  13.165  0.5167  1.2569  0.1228
 8755TIP3   OH247755   3.057   6.235  16.862  0.0393  0.2257  0.1328
 8755TIP3    H147756   3.072   6.183  16.783 -1.3075  0.4872 -0.3118
 8755TIP3    H247757   3.049   6.325  16.830  0.2791  0.4383  0.6621
 8756TIP3   OH247758   1.790   2.412  17.288  0.3714  0.3522  0.1583
 8756TIP3    H147759   1.759   2.333  17.244  0.6018 -0.2653  1.0697
 8756TIP3    H247760   1.734   2.482  17.255 -1.7337 -0.6640  1.4302
 8757TIP3   OH247761   6.660   2.497   4.688  0.0227  0.2752 -0.6166
 8757TIP3    H147762   6.746   2.467   4.659  0.6340  0.7465  0.6472
 8757TIP3    H247763   6.616   2.525   4.608  0.4483 -1.4554 -1.4598
 8758TIP3   OH247764   0.287   6.143   3.110  0.1157  0.2461  0.7124
 8758TIP3    H147765   0.261   6.226   3.069 -0.3693 -0.4504 -0.4185
 8758TIP3    H247766   0.274   6.077   3.041  1.6479 -0.6058  1.2124
 8759TIP3   OH247767   1.537   0.186   3.473 -0.4112  0.5522 -0.1716
 8759TIP3    H147768   1.581   0.264   3.438 -0.0123 -0.4735 -2.0208
 8759TIP3    H247769   1.560   0.186   3.566  2.4556  0.7675 -0.8174
 8760TIP3   OH247770   5.147   6.439  14.460  0.5383 -0.1883  0.6562
 8760TIP3    H147771   5.088   6.393  14.401  1.7858 -1.9759  0.7681
 8760TIP3    H247772   5.195   6.500  14.404 -1.4835  1.3893  0.5891
 8761TIP3   OH247773   6.526   3.030  16.148  0.0958 -0.3649  0.1840
 8761TIP3    H147774   6.436   3.001  16.133  1.0410 -3.4694  0.3807
 8761TIP3    H247775   6.567   3.025  16.061  0.4994 -0.3904  0.3782
 8762TIP3   OH247776   3.378   2.343  15.349 -0.7392  0.0699  0.2387
 8762TIP3    H147777   3.412   2.327  15.261 -1.9741 -0.2442 -0.1844
 8762TIP3    H247778   3.421   2.424  15.376  0.6604 -0.5418 -0.1200
 8763TIP3   OH247779   5.292   2.277   1.144  0.4088 -0.2432  0.2207
 8763TIP3    H147780   5.361   2.337   1.171  1.0367 -0.7088 -0.3414
 8763TIP3    H247781   5.299   2.203   1.204  1.3201 -0.9352 -0.7159
 8764TIP3   OH247782   6.478   0.808   5.000 -0.0358 -0.6020  0.7408
 8764TIP3    H147783   6.500   0.865   4.926  0.3017  1.1178  2.1448
 8764TIP3    H247784   6.384   0.821   5.013  0.1869  0.2451  1.5512
 8765TIP3   OH247785   2.344   4.843   1.816  0.0947 -0.0311  0.1675
 8765TIP3    H147786   2.368   4.759   1.855 -0.3857 -0.7130 -0.9942
 8765TIP3    H247787   2.330   4.901   1.891 -1.6692 -1.5424  1.0528
 8766TIP3   OH247788   6.659   3.511   3.739  0.3029  0.2057 -0.0716
 8766TIP3    H147789   6.716   3.535   3.812  0.3498 -0.4058  0.0951
 8766TIP3    H247790   6.572   3.500   3.779 -0.4476  3.3988 -0.6879
 8767TIP3   OH247791   2.171   2.856  16.993  0.6048  0.0744 -0.0039
 8767TIP3    H147792   2.146   2.917  16.924  2.1630 -0.6568 -1.2575
 8767TIP3    H247793   2.098   2.795  17.000  0.0051  0.7492 -0.2968
 8768TIP3   OH247794   2.287   1.668   4.147 -0.0486  0.1352  0.0457
 8768TIP3    H147795   2.340   1.655   4.069 -1.0916  3.2422 -1.2581
 8768TIP3    H247796   2.262   1.579   4.174  3.4794 -1.2117 -0.8795
 8769TIP3   OH247797   4.669   4.509   6.060  0.0936  0.3476  0.0304
 8769TIP3    H147798   4.704   4.420   6.054 -0.7494  0.0716 -1.2524
 8769TIP3    H247799   4.632   4.515   6.148 -0.2173 -0.7241 -0.0196
 8770TIP3   OH247800   4.741   2.515  15.208 -0.0023  0.2926 -0.4696
 8770TIP3    H147801   4.776   2.429  15.233 -1.8779 -0.8717 -1.7275
 8770TIP3    H247802   4.700   2.548  15.287  0.8697  0.1186  0.0642
 8771TIP3   OH247803   0.006   1.710  16.976 -0.1285 -0.0614  0.3037
 8771TIP3    H147804   0.047   1.632  17.012 -2.2836 -0.6648  1.5136
 8771TIP3    H247805  -0.048   1.678  16.904 -0.3039  0.4216  0.2153
 8772TIP3   OH247806   3.436   2.859  16.813 -0.0459  0.5130  0.0941
 8772TIP3    H147807   3.458   2.930  16.874  0.3398  0.5092 -0.0351
 8772TIP3    H247808   3.449   2.779  16.864  0.2989  0.5091  0.0009
 8773TIP3   OH247809   4.955   1.255   4.880 -0.0416  0.0228  0.1258
 8773TIP3    H147810   5.043   1.261   4.918  0.0502 -1.4311  0.1720
 8773TIP3    H247811   4.970   1.243   4.786 -0.1202 -2.1836  0.3671
 8774TIP3   OH247812   5.112   1.557   2.883 -0.5853  0.2140 -0.0127
 8774TIP3    H147813   5.189   1.501   2.874 -0.3837 -0.0472  2.9738
 8774TIP3    H247814   5.040   1.505   2.849 -0.1059 -1.2008  1.1058
 8775TIP3   OH247815   2.132   2.238  11.838  0.3844  0.5952  0.0644
 8775TIP3    H147816   2.202   2.293  11.805  1.1305 -0.2424  0.2193
 8775TIP3    H247817   2.067   2.236  11.768  2.0656 -1.4000 -1.5159
 8776TIP3   OH247818   2.984   6.666   5.085 -0.4908 -0.7350 -0.0903
 8776TIP3    H147819   2.899   6.625   5.069 -0.2756 -1.0000 -0.5605
 8776TIP3    H247820   3.033   6.600   5.135 -1.0045 -0.0849  1.3020
 8777TIP3   OH247821   4.468   4.943  10.556  0.0944  0.5584 -0.1247
 8777TIP3    H147822   4.539   4.892  10.517  0.3423  0.7035  0.1360
 8777TIP3    H247823   4.451   4.901  10.640  0.9856  1.5071  0.5385
 8778TIP3   OH247824   4.111   5.642  10.669  0.0697  0.2088 -0.0500
 8778TIP3    H147825   4.179   5.576  10.675 -0.9158 -0.6833  1.4664
 8778TIP3    H247826   4.031   5.593  10.651 -0.6900  0.9583  1.1833
 8779TIP3   OH247827   3.466   4.179  13.243  0.2832 -0.4368  0.5522
 8779TIP3    H147828   3.371   4.180  13.243  0.2580 -0.3861  2.3405
 8779TIP3    H247829   3.489   4.086  13.238  0.1693 -0.3833 -1.1336
 8780TIP3   OH247830   4.626   2.272  16.186 -0.2148  0.1487  0.2536
 8780TIP3    H147831   4.691   2.343  16.177 -0.5952  0.2874 -1.6345
 8780TIP3    H247832   4.543   2.313  16.160 -0.2570 -1.2469 -1.9574
 8781TIP3   OH247833   6.153   2.233  10.417 -0.5843  0.2834  0.3560
 8781TIP3    H147834   6.088   2.239  10.347  0.0100  2.0906 -0.0444
 8781TIP3    H247835   6.196   2.148  10.402 -0.8239  0.4078 -1.1399
 8782TIP3   OH247836   0.862   3.961  12.888  0.1209  0.0341  0.4356
 8782TIP3    H147837   0.923   3.968  12.961 -0.3779  0.0965  0.8447
 8782TIP3    H247838   0.912   3.993  12.812  1.3632 -2.0945  0.3280
 8783TIP3   OH247839   4.121   5.980   0.477  0.2710 -0.1421  0.0382
 8783TIP3    H147840   4.095   5.908   0.535  1.4594  1.1715  2.2582
 8783TIP3    H247841   4.039   6.029   0.463 -0.0345 -0.4693  0.6347
 8784TIP3   OH247842   4.401   3.561   5.114 -0.8587  0.1610  0.1660
 8784TIP3    H147843   4.446   3.568   5.029 -1.7322  1.5157 -0.1998
 8784TIP3    H247844   4.460   3.605   5.175 -0.8769  0.4036  0.0095
 8785TIP3   OH247845   6.601   3.315  17.000 -0.4056 -0.3644 -0.7104
 8785TIP3    H147846   6.660   3.303  17.075 -0.9542 -0.7761 -0.3378
 8785TIP3    H247847   6.644   3.270  16.928 -0.7123 -1.4528 -0.2127
 8786TIP3   OH247848   1.982   4.284   5.013 -0.0521  0.1165 -0.0439
 8786TIP3    H147849   2.011   4.277   5.104  0.5124  0.6186 -0.1793
 8786TIP3    H247850   1.916   4.353   5.014  0.9437  1.1010 -0.2329
 8787TIP3   OH247851   3.148   2.773  11.704 -0.3556 -0.4113 -0.1078
 8787TIP3    H147852   3.116   2.690  11.668 -1.7818 -0.2217  0.6662
 8787TIP3    H247853   3.202   2.747  11.779  0.2678 -0.6829 -0.6424
 8788TIP3   OH247854   6.294   3.170   3.213 -0.5088  0.0610 -0.2615
 8788TIP3    H147855   6.219   3.225   3.235  0.5453  0.8189  1.5004
 8788TIP3    H247856   6.359   3.189   3.280 -0.0151 -3.1513  0.2602
 8789TIP3   OH247857   3.813   1.485  11.071  0.6083  0.1913  0.3089
 8789TIP3    H147858   3.764   1.407  11.044  0.7171  0.5072 -0.7986
 8789TIP3    H247859   3.794   1.550  11.004  0.1829  1.2679  1.4364
 8790TIP3   OH247860   0.931   3.835   4.217 -0.2828 -0.0209  0.1028
 8790TIP3    H147861   0.909   3.927   4.230 -1.5308 -0.1958 -0.6713
 8790TIP3    H247862   0.921   3.821   4.123 -2.8585 -1.6174  0.5781
 8791TIP3   OH247863   4.837   5.997  15.971 -0.1589  0.1515  0.1837
 8791TIP3    H147864   4.773   5.933  16.001 -0.3846  0.8728  1.2746
 8791TIP3    H247865   4.902   5.945  15.923 -1.1841 -0.6702 -0.3191
 8792TIP3   OH247866   6.416   1.418  16.564 -0.5893  0.8477  0.2028
 8792TIP3    H147867   6.343   1.474  16.539  0.4501  2.1605  0.0585
 8792TIP3    H247868   6.427   1.433  16.658 -0.1148  1.1377  0.1063
 8793TIP3   OH247869   0.265   6.433   6.018  0.2242  0.1377  0.1713
 8793TIP3    H147870   0.349   6.460   5.980  0.7697 -0.2953  1.0695
 8793TIP3    H247871   0.219   6.515   6.034  1.2168  0.4708  1.3767
 8794TIP3   OH247872   3.944   0.925   3.716  0.3223 -0.1492 -0.1024
 8794TIP3    H147873   4.005   0.960   3.781  1.2748 -1.4813 -0.2534
 8794TIP3    H247874   3.984   0.843   3.687 -1.1419 -0.6357 -0.8136
 8795TIP3   OH247875   5.283   1.941   0.660 -0.5116  0.4522 -0.6551
 8795TIP3    H147876   5.359   1.885   0.640 -0.0991  1.4299 -1.9457
 8795TIP3    H247877   5.310   1.990   0.737  0.5988  1.5422 -1.7162
 8796TIP3   OH247878   0.096   4.758  16.760  0.6686  0.3162  0.1913
 8796TIP3    H147879   0.122   4.666  16.754 -1.0364 -0.3848  2.6138
 8796TIP3    H247880   0.007   4.760  16.724  1.6690  1.5338 -2.3084
 8797TIP3   OH247881   3.341   5.268  11.538 -0.8465  0.1537  0.3204
 8797TIP3    H147882   3.411   5.322  11.500 -1.0688 -0.7177 -1.3858
 8797TIP3    H247883   3.285   5.330  11.584 -1.0126  1.4087 -1.4954
 8798TIP3   OH247884   0.850   4.344  14.060  0.2669 -0.7529 -0.0539
 8798TIP3    H147885   0.880   4.435  14.061  0.4151 -0.8011 -0.1275
 8798TIP3    H247886   0.769   4.345  14.112  0.7338 -0.7417  0.6929
 8799TIP3   OH247887   1.539   2.192   2.959 -0.5131 -0.1741  0.2934
 8799TIP3    H147888   1.593   2.180   3.037  1.3206 -2.3169 -1.2661
 8799TIP3    H247889   1.563   2.279   2.927  0.4369 -0.2424  0.8057
 8800TIP3   OH247890   0.291   4.798   5.446 -0.4103  0.3785  0.5646
 8800TIP3    H147891   0.309   4.875   5.392  0.9964 -1.0571 -1.0358
 8800TIP3    H247892   0.208   4.764   5.411 -0.0218  0.0316 -0.0185
 8801TIP3   OH247893   0.589   0.989  13.389  0.2469 -0.9003 -0.5749
 8801TIP3    H147894   0.510   0.962  13.342 -0.8258  0.8089  0.1913
 8801TIP3    H247895   0.561   0.998  13.480  1.1910  0.2475 -0.3785
 8802TIP3   OH247896   0.099   0.357   1.421 -0.2894  0.0372  0.2387
 8802TIP3    H147897   0.140   0.325   1.340 -0.1246 -0.2340  0.4245
 8802TIP3    H247898   0.072   0.446   1.402 -1.9275 -0.6427 -0.7209
 8803TIP3   OH247899   4.163   3.846  15.306  0.1015 -0.4672 -0.1131
 8803TIP3    H147900   4.187   3.845  15.213 -0.5169  0.1823 -0.2823
 8803TIP3    H247901   4.240   3.812  15.351  0.3251 -0.9941 -0.8833
 8804TIP3   OH247902   4.840   3.992  14.572 -0.5506 -0.0529 -0.3640
 8804TIP3    H147903   4.855   4.058  14.640  2.2619  1.3959 -2.2657
 8804TIP3    H247904   4.758   4.019  14.530 -2.0113 -0.6388  2.0372
 8805TIP3   OH247905   3.715   4.839  14.445  0.5208  0.5171  0.0315
 8805TIP3    H147906   3.739   4.767  14.503  3.2828  2.6473  1.6992
 8805TIP3    H247907   3.785   4.843  14.380  0.8261  2.1670  0.4327
 8806TIP3   OH247908   5.552   3.129   3.149  0.1867  0.5891 -0.1211
 8806TIP3    H147909   5.582   3.163   3.065 -0.6858 -2.9903 -1.9680
 8806TIP3    H247910   5.591   3.042   3.155 -1.3237  0.0305  2.2844
 8807TIP3   OH247911   1.278   6.233   1.910  0.1602 -0.1185  0.7547
 8807TIP3    H147912   1.247   6.283   1.985 -1.9086 -0.0019 -0.1665
 8807TIP3    H247913   1.369   6.262   1.898  0.0954  0.8143  2.3804
 8808TIP3   OH247914   0.902   6.534  16.368  0.0234  1.1774  0.2417
 8808TIP3    H147915   0.976   6.546  16.309  0.3269  1.0002  0.5846
 8808TIP3    H247916   0.924   6.456  16.419 -1.6923 -0.5618 -1.5928
 8809TIP3   OH247917   5.332   6.535  16.589  0.2548 -0.9033  0.4109
 8809TIP3    H147918   5.348   6.443  16.573 -0.1393 -0.5650 -2.0347
 8809TIP3    H247919   5.245   6.538  16.629  0.3418 -1.5788  0.6532
 8810TIP3   OH247920   3.001   5.393  17.265 -0.0800  0.8519  0.0662
 8810TIP3    H147921   3.059   5.468  17.248  1.0130 -0.1570 -0.7477
 8810TIP3    H247922   3.061   5.321  17.286 -1.1855  0.5103  2.1177
 8811TIP3   OH247923   4.530   3.754   2.038  0.1264 -0.3627 -0.0374
 8811TIP3    H147924   4.452   3.731   2.087  0.1481 -0.8039 -0.2095
 8811TIP3    H247925   4.575   3.818   2.093 -0.8305  0.6118 -0.3616
 8812TIP3   OH247926   1.077   0.683   1.654 -0.1693  0.6122  0.3006
 8812TIP3    H147927   1.125   0.707   1.733  1.6690  1.4737 -1.0440
 8812TIP3    H247928   0.996   0.733   1.659  0.3640  1.4143  1.1478
 8813TIP3   OH247929   5.200   1.479   3.277 -0.2610  0.6583 -0.9551
 8813TIP3    H147930   5.118   1.430   3.290 -0.1569  0.5036 -0.8779
 8813TIP3    H247931   5.173   1.561   3.236 -0.3714  0.2795 -1.6371
 8814TIP3   OH247932   6.478   6.381   5.555  0.0371 -0.0228 -0.2305
 8814TIP3    H147933   6.441   6.306   5.601  0.5202 -0.2951 -0.2776
 8814TIP3    H247934   6.475   6.453   5.619 -0.6024 -0.0307 -0.2503
 8815TIP3   OH247935   6.106   1.342   2.350  0.0312 -0.2755  0.3017
 8815TIP3    H147936   6.065   1.314   2.268  0.2965  2.1679 -0.6928
 8815TIP3    H247937   6.066   1.286   2.417 -1.7760 -0.8418 -1.2090
 8816TIP3   OH247938   6.316   2.207  13.592 -0.0270 -0.6942  0.3234
 8816TIP3    H147939   6.267   2.275  13.638 -0.1912 -0.6493  0.0823
 8816TIP3    H247940   6.374   2.255  13.533 -1.5021 -0.7939 -1.2378
 8817TIP3   OH247941   1.975   2.576  11.240 -0.5419  0.0532 -0.0210
 8817TIP3    H147942   1.956   2.493  11.284 -0.1373  1.6965  3.4269
 8817TIP3    H247943   2.070   2.573  11.225 -0.2789  0.4510  1.4266
 8818TIP3   OH247944   6.292   4.304  14.383  0.2339  0.1135  0.1690
 8818TIP3    H147945   6.287   4.396  14.358  0.8424 -0.5125 -2.3886
 8818TIP3    H247946   6.382   4.291  14.411  0.8535 -0.2618 -1.9115
 8819TIP3   OH247947   4.442   5.560  13.139 -0.1489  0.3807 -0.0414
 8819TIP3    H147948   4.398   5.628  13.088 -0.5066  0.6489  0.6224
 8819TIP3    H247949   4.426   5.584  13.230 -0.9333 -1.0192  0.2063
 8820TIP3   OH247950   6.765   1.037   0.253  0.8264  0.2763  1.0928
 8820TIP3    H147951   6.837   0.978   0.273  0.6583  0.3925  2.0629
 8820TIP3    H247952   6.698   0.982   0.214  2.9034  0.7589 -3.5100
 8821TIP3   OH247953   5.509   1.564   5.000  0.2627  0.2543 -0.4699
 8821TIP3    H147954   5.452   1.608   4.937 -1.9199 -0.8465  0.6640
 8821TIP3    H247955   5.491   1.471   4.987 -0.4184  0.0186  1.8958
 8822TIP3   OH247956   0.447   0.965   4.931 -0.2216 -0.3600 -0.2691
 8822TIP3    H147957   0.352   0.957   4.927 -0.2225 -0.2228 -0.5253
 8822TIP3    H247958   0.479   0.926   4.850 -0.0764 -0.1339 -0.3218
 8823TIP3   OH247959   2.491   5.862  13.805 -0.1250 -0.0120 -0.2767
 8823TIP3    H147960   2.423   5.827  13.862  0.0531 -0.5365 -0.3796
 8823TIP3    H247961   2.548   5.913  13.862 -1.1403  1.2305 -0.3481
 8824TIP3   OH247962   5.218   5.992   0.794  0.8872  0.1329  0.4342
 8824TIP3    H147963   5.245   5.901   0.808 -0.6238 -0.0283  2.7161
 8824TIP3    H247964   5.138   6.000   0.846 -0.3887  2.0762 -1.7553
 8825TIP3   OH247965   3.231   5.415   2.160  0.5826  0.3755  0.0722
 8825TIP3    H147966   3.178   5.470   2.218 -0.3666 -0.8966  0.4223
 8825TIP3    H247967   3.321   5.428   2.191  0.2966  1.2256  0.5643
 8826TIP3   OH247968   1.403   0.338  14.902  0.3123 -0.0269 -0.0930
 8826TIP3    H147969   1.324   0.322  14.851  0.2774  1.1772 -0.4304
 8826TIP3    H247970   1.423   0.431  14.888  0.9383  0.0492  1.1712
 8827TIP3   OH247971   1.730   1.765  10.866 -0.1582 -0.4898  0.3976
 8827TIP3    H147972   1.751   1.702  10.935  1.1131  0.6901  1.1112
 8827TIP3    H247973   1.801   1.754  10.802  0.5138  0.7663  0.9137
 8828TIP3   OH247974   2.437   1.335  12.694 -0.2282 -0.9150 -0.2043
 8828TIP3    H147975   2.382   1.413  12.701  0.2457 -0.4284 -1.6357
 8828TIP3    H247976   2.429   1.291  12.779 -0.9314  0.4018  0.4137
 8829TIP3   OH247977   0.776   4.261   5.289  1.1772  0.4333  0.1918
 8829TIP3    H147978   0.693   4.304   5.270  1.5582  0.8875 -0.4755
 8829TIP3    H247979   0.842   4.316   5.245  1.7378 -0.4284 -0.0469
 8830TIP3   OH247980   2.951   6.756  16.204  0.0458  0.2674 -0.3067
 8830TIP3    H147981   2.909   6.840  16.189  0.3579 -0.0020 -2.8432
 8830TIP3    H247982   2.899   6.694  16.152  0.2904 -0.9841  0.9047
 8831TIP3   OH247983   1.680   1.617   0.024  0.0434  0.1944 -0.5230
 8831TIP3    H147984   1.718   1.685  -0.032  1.8596  0.3522  0.8177
 8831TIP3    H247985   1.665   1.543  -0.034  1.2292  0.5920 -1.3536
 8832TIP3   OH247986   1.472   1.325   3.087 -0.1483 -0.3951 -0.3119
 8832TIP3    H147987   1.404   1.302   3.150 -0.8180  0.9791 -0.5119
 8832TIP3    H247988   1.429   1.386   3.026  0.5715 -1.4487 -1.9177
 8833TIP3   OH247989   4.753   5.011   4.827 -0.0035 -0.0287  0.0611
 8833TIP3    H147990   4.744   5.070   4.753 -1.9745  0.1394  0.4153
 8833TIP3    H247991   4.781   5.067   4.899  0.2768  0.0919 -0.1418
 8834TIP3   OH247992   1.631   4.358  14.055  0.7393  0.2000  0.8858
 8834TIP3    H147993   1.587   4.299  13.994  0.0719  0.3743  1.1970
 8834TIP3    H247994   1.696   4.403  14.002  0.2046  0.3027  0.3098
 8835TIP3   OH247995   4.982   6.531   0.771  0.1363 -0.5964 -0.1006
 8835TIP3    H147996   4.895   6.546   0.809 -0.9111 -1.3908 -2.0779
 8835TIP3    H247997   5.007   6.616   0.735 -0.7095 -0.8136 -1.2398
 8836TIP3   OH247998   3.571   6.069   2.933 -0.6069  0.8322  0.4555
 8836TIP3    H147999   3.551   5.996   2.992 -1.2725 -0.3894 -1.2468
 8836TIP3    H248000   3.510   6.059   2.860  1.5966  1.0458 -1.4919
 8837TIP3   OH248001   1.329   1.793  17.218  0.0207  0.0193 -0.3730
 8837TIP3    H148002   1.365   1.773  17.305  0.1126  1.5279 -0.0547
 8837TIP3    H248003   1.252   1.736  17.211 -0.6852  0.7538  1.2019
 8838TIP3   OH248004   2.879   5.102   4.666 -0.8847 -0.4400 -0.0163
 8838TIP3    H148005   2.959   5.078   4.619 -0.5264 -0.3822  0.5656
 8838TIP3    H248006   2.827   5.150   4.601 -0.3562 -0.2860 -0.3291
 8839TIP3   OH248007   1.837   3.806  15.593 -0.1543 -0.1839 -0.8746
 8839TIP3    H148008   1.787   3.787  15.514 -2.9543 -0.6058  0.9014
 8839TIP3    H248009   1.836   3.902  15.600  0.5714 -0.1225 -1.6381
 8840TIP3   OH248010   2.054   3.717  14.966 -0.2484  0.2429 -0.2796
 8840TIP3    H148011   2.085   3.737  15.055 -1.1770  0.5565 -0.0138
 8840TIP3    H248012   2.105   3.775  14.910  0.0237  0.3722  0.0953
 8841TIP3   OH248013   4.222   2.002   3.819  0.0051 -0.1703 -0.1283
 8841TIP3    H148014   4.190   2.086   3.854  1.2012  0.2571 -0.0399
 8841TIP3    H248015   4.143   1.951   3.805 -0.6119  0.2285  1.7358
 8842TIP3   OH248016   5.852   6.012  15.915  0.2428 -0.1301  0.0405
 8842TIP3    H148017   5.811   5.926  15.925  2.0467 -1.2873 -2.0759
 8842TIP3    H248018   5.818   6.046  15.832  0.8675  0.4642  0.0221
 8843TIP3   OH248019   1.882   2.432   2.101 -0.3608 -0.0324 -1.0028
 8843TIP3    H148020   1.793   2.436   2.135 -0.5553  0.7938 -1.6087
 8843TIP3    H248021   1.937   2.425   2.179 -0.8028  1.8022 -0.5098
 8844TIP3   OH248022   3.687   2.768   1.091 -0.1402  0.6961  0.5031
 8844TIP3    H148023   3.592   2.766   1.079 -0.5019  1.2388  2.9492
 8844TIP3    H248024   3.723   2.773   1.003 -2.4354  1.7150 -0.4089
 8845TIP3   OH248025   0.150   1.736   4.602 -0.5297 -0.2018  0.3129
 8845TIP3    H148026   0.200   1.805   4.557 -1.8497  0.3166 -0.3678
 8845TIP3    H248027   0.106   1.688   4.531 -2.6783  0.6638  1.0286
 8846TIP3   OH248028   1.973   2.403  14.795 -0.3768  0.3166 -0.5462
 8846TIP3    H148029   1.962   2.497  14.810  0.7818  0.4701 -0.6242
 8846TIP3    H248030   1.999   2.367  14.880 -1.1892  0.0065 -0.4265
 8847TIP3   OH248031   0.179   4.225  14.417  0.2084  0.4099  0.1457
 8847TIP3    H148032   0.217   4.142  14.446  0.6206  0.0071 -1.5303
 8847TIP3    H248033   0.251   4.269  14.371 -0.3278  1.2197  0.0807
 8848TIP3   OH248034   2.136   2.199  13.905  0.3235  0.7047  0.3201
 8848TIP3    H148035   2.183   2.182  13.824  1.6072 -0.6662  1.3076
 8848TIP3    H248036   2.056   2.246  13.879  0.4141 -0.2863 -1.7639
 8849TIP3   OH248037   4.246   3.149   1.050  0.4971 -0.0170  0.3839
 8849TIP3    H148038   4.226   3.172   0.959  1.1735  0.5628  0.3739
 8849TIP3    H248039   4.327   3.098   1.044 -0.1590 -1.0897  0.5495
 8850TIP3   OH248040   2.035   0.163  17.278 -0.4057 -0.3399  0.0022
 8850TIP3    H148041   1.968   0.204  17.333 -0.4517  0.2155 -0.4644
 8850TIP3    H248042   2.117   0.177  17.326 -0.5142 -0.2995  0.1758
 8851TIP3   OH248043   4.440   2.978   4.666 -0.7868  0.7311  0.2219
 8851TIP3    H148044   4.372   2.993   4.601 -0.9806 -0.4488  0.1423
 8851TIP3    H248045   4.505   3.047   4.649 -0.4327 -0.0458 -1.7577
 8852TIP3   OH248046   4.951   6.777   2.230 -0.4964  0.4529 -0.0097
 8852TIP3    H148047   4.856   6.787   2.225 -0.6535 -1.0005 -0.4107
 8852TIP3    H248048   4.977   6.756   2.140  0.1020  0.1946  0.2223
 8853TIP3   OH248049   1.025   2.424   5.125 -0.0667 -0.6035 -0.1838
 8853TIP3    H148050   1.113   2.441   5.160 -0.0148 -2.4517  0.6855
 8853TIP3    H248051   1.031   2.448   5.032  0.8147  1.0254  0.2717
 8854TIP3   OH248052   4.313   3.383   2.305 -0.1670  0.0111 -0.0091
 8854TIP3    H148053   4.295   3.477   2.296 -0.9845 -0.1290  0.1545
 8854TIP3    H248054   4.407   3.375   2.285 -0.2100  0.7849 -0.5586
 8855TIP3   OH248055   1.590   2.007  15.179 -0.1634 -0.4557 -0.8497
 8855TIP3    H148056   1.577   2.044  15.266 -2.4965  0.0600 -1.3945
 8855TIP3    H248057   1.545   1.923  15.182 -1.1499  0.0298 -1.8787
 8856TIP3   OH248058   1.280   0.268   0.314 -0.2851  0.2126 -0.5686
 8856TIP3    H148059   1.266   0.265   0.219 -0.2336  2.0208 -0.6572
 8856TIP3    H248060   1.373   0.247   0.325 -0.6018 -1.3683 -0.7969
 8857TIP3   OH248061   2.763   0.892   5.105 -0.2624  0.2059 -0.1397
 8857TIP3    H148062   2.824   0.827   5.139 -0.9648 -0.5208 -0.2695
 8857TIP3    H248063   2.692   0.841   5.067 -0.8819  1.0478 -0.1223
 8858TIP3   OH248064   3.713   2.193  10.962 -0.2270  0.1834 -0.7167
 8858TIP3    H148065   3.686   2.146  10.883 -0.7279  2.3784 -1.9027
 8858TIP3    H248066   3.681   2.140  11.034 -3.3638  0.1849 -2.0359
 8859TIP3   OH248067   5.810   3.920  11.411 -0.5438  0.1871 -0.6514
 8859TIP3    H148068   5.715   3.929  11.418 -0.5848 -1.3338  1.1756
 8859TIP3    H248069   5.838   3.893  11.498  1.4389 -0.4901 -1.4735
 8860TIP3   OH248070   2.787   6.351   0.173 -0.1825 -0.5109 -0.1840
 8860TIP3    H148071   2.779   6.264   0.212  0.8503 -0.2514  0.6259
 8860TIP3    H248072   2.719   6.404   0.216 -0.8148 -0.9061 -0.6828
 8861TIP3   OH248073   0.744   5.434  11.083 -0.3328  0.5953 -0.5675
 8861TIP3    H148074   0.818   5.445  11.142 -0.8831  1.1301  0.0304
 8861TIP3    H248075   0.775   5.373  11.017  0.0594 -0.5492  0.6617
 8862TIP3   OH248076   6.063   4.049   5.355  0.4447 -0.0602 -0.0093
 8862TIP3    H148077   6.010   3.976   5.386 -0.2852 -0.4700 -2.1644
 8862TIP3    H248078   6.002   4.102   5.303  1.4023  1.1115  0.0446
 8863TIP3   OH248079   2.263   1.252   5.325  0.1940  0.2203 -1.2859
 8863TIP3    H148080   2.178   1.236   5.367  0.0944  0.2785 -1.4631
 8863TIP3    H248081   2.304   1.320   5.379 -0.3692  1.0363 -1.8582
 8864TIP3   OH248082   1.568   5.010  14.143  0.3679 -0.5293  0.3140
 8864TIP3    H148083   1.531   5.049  14.064  3.1158 -0.2899 -0.9180
 8864TIP3    H248084   1.590   5.085  14.199  1.3949 -0.5146 -0.0931
 8865TIP3   OH248085   3.045   1.649  12.595  0.2722  0.5812 -0.1983
 8865TIP3    H148086   3.042   1.706  12.672 -0.2592  0.7716 -0.3551
 8865TIP3    H248087   3.065   1.708  12.522  1.9294  0.2244 -0.0456
 8866TIP3   OH248088   2.656   5.957   5.898  0.1687 -0.0083  0.2274
 8866TIP3    H148089   2.749   5.961   5.921  0.3630 -0.2375 -0.5004
 8866TIP3    H248090   2.635   5.863   5.902  0.5016 -0.1714 -1.6672
 8867TIP3   OH248091   4.377   1.548  12.735 -0.2168 -0.3608 -0.4959
 8867TIP3    H148092   4.336   1.615  12.680 -0.6426 -1.3049 -1.3336
 8867TIP3    H248093   4.313   1.532  12.804 -1.0040 -1.4031 -1.4670
 8868TIP3   OH248094   2.489   0.070   4.285 -0.8455 -0.6313 -0.0009
 8868TIP3    H148095   2.476   0.165   4.279  1.5212 -0.3094 -1.0029
 8868TIP3    H248096   2.541   0.058   4.365  0.6720 -0.8227 -0.9882
 8869TIP3   OH248097   6.147   5.160  15.486  0.2335  0.3948 -0.1237
 8869TIP3    H148098   6.147   5.074  15.445  1.9466  0.7275 -0.8625
 8869TIP3    H248099   6.210   5.211  15.435  1.4056  1.2329  2.0825
 8870TIP3   OH248100   3.061   3.242   5.539  0.5719  0.0757 -0.0649
 8870TIP3    H148101   3.146   3.286   5.539  0.0598  1.0774 -0.4406
 8870TIP3    H248102   3.023   3.262   5.454  0.5230 -1.4904 -0.4273
 8871TIP3   OH248103   4.148   1.222  11.958  0.2595  0.7709  0.2475
 8871TIP3    H148104   4.145   1.168  11.879  1.0587 -0.4667  1.0453
 8871TIP3    H248105   4.144   1.159  12.030  0.0749  1.8552  1.1890
 8872TIP3   OH248106   5.977   3.920   4.977  0.4484  0.6746 -0.2962
 8872TIP3    H148107   5.942   4.008   4.966 -0.2952  0.4252  0.0371
 8872TIP3    H248108   6.016   3.919   5.064 -0.9920  0.1930  0.3519
 8873TIP3   OH248109   3.778   4.375  14.697  0.1409  0.5921 -0.4777
 8873TIP3    H148110   3.818   4.302  14.743 -0.3560  0.6115 -0.0106
 8873TIP3    H248111   3.743   4.337  14.617 -3.6353 -0.5004  1.5774
 8874TIP3   OH248112   6.168   1.735  11.824 -0.2997  0.1163  0.9008
 8874TIP3    H148113   6.120   1.696  11.751  1.7872 -1.7093  0.4656
 8874TIP3    H248114   6.212   1.812  11.786 -0.1495 -0.1630  0.5044
 8875TIP3   OH248115   0.071   0.044  13.769 -0.0550 -0.1675  0.8728
 8875TIP3    H148116  -0.018   0.037  13.805  0.1832  0.8442  1.6606
 8875TIP3    H248117   0.129   0.025  13.843  0.4113  0.3950  0.6520
 8876TIP3   OH248118   1.555   1.590  11.163 -0.5073  0.1151  0.5711
 8876TIP3    H148119   1.630   1.531  11.153 -0.3454  0.2673  0.8550
 8876TIP3    H248120   1.541   1.627  11.076 -0.7335 -0.4903  0.3468
 8877TIP3   OH248121   6.165   0.884  14.150  0.3494  0.3101 -0.2663
 8877TIP3    H148122   6.147   0.933  14.070 -2.3274  2.3802  1.5061
 8877TIP3    H248123   6.234   0.934  14.194  0.5039  0.2013 -0.3830
 8878TIP3   OH248124   0.205   3.817   6.270  0.0625 -0.4433  0.1275
 8878TIP3    H148125   0.187   3.723   6.270 -0.5649 -0.3216 -0.4694
 8878TIP3    H248126   0.120   3.859   6.260  0.0570  0.2620  2.7943
 8879TIP3   OH248127   1.313   4.459  14.600 -0.3673  0.1272  0.2164
 8879TIP3    H148128   1.311   4.516  14.523 -0.0042 -1.3902 -0.9204
 8879TIP3    H248129   1.362   4.382  14.573 -2.8729 -1.8127  0.9931
 8880TIP3   OH248130   5.751   0.793  15.442  0.0204 -0.2718 -0.2451
 8880TIP3    H148131   5.835   0.805  15.397 -1.1241 -0.3476 -2.4522
 8880TIP3    H248132   5.696   0.748  15.378 -1.7414 -0.1464  1.1581
 8881TIP3   OH248133   0.743   0.409   5.178  0.0738  0.0729  0.3896
 8881TIP3    H148134   0.743   0.504   5.168  2.1907 -0.0394 -1.0163
 8881TIP3    H248135   0.833   0.388   5.202 -0.1036 -1.6876 -0.4518
 8882TIP3   OH248136   1.201   5.535  13.319 -0.1418  0.1790 -0.9952
 8882TIP3    H148137   1.178   5.470  13.253  1.2053 -0.1556 -1.1508
 8882TIP3    H248138   1.280   5.577  13.284  1.2069 -0.7367  0.8990
 8883TIP3   OH248139   1.854   3.334  15.518  0.7344 -0.7081  0.0017
 8883TIP3    H148140   1.877   3.369  15.604 -0.6831  0.9375 -0.2802
 8883TIP3    H248141   1.908   3.384  15.456 -1.3396  1.0668 -0.4061
 8884TIP3   OH248142   5.580   3.724   0.658  0.3693  0.1138  0.1490
 8884TIP3    H148143   5.661   3.734   0.709  0.6558  0.1529 -0.3188
 8884TIP3    H248144   5.607   3.730   0.567 -0.3784  1.6815  0.0108
 8885TIP3   OH248145   6.189   1.073  11.780  0.2638  0.3296  0.0692
 8885TIP3    H148146   6.221   1.022  11.854 -0.1328 -0.1063 -0.0643
 8885TIP3    H248147   6.269   1.099  11.733  0.3762 -2.2890 -1.2961
 8886TIP3   OH248148   5.220   0.984  16.613 -0.1440 -0.0429 -0.2517
 8886TIP3    H148149   5.306   0.947  16.594 -0.0639  0.6051 -1.1925
 8886TIP3    H248150   5.178   0.920  16.670  0.4652 -0.9927 -0.8534
 8887TIP3   OH248151   3.949   5.263   5.660 -1.1123  0.1316  0.0821
 8887TIP3    H148152   3.965   5.354   5.683 -1.2768 -0.1934  1.4794
 8887TIP3    H248153   4.024   5.215   5.696 -0.4780 -0.1530 -1.5689
 8888TIP3   OH248154   2.837   5.546  14.892  0.9303  0.1440 -0.1929
 8888TIP3    H148155   2.785   5.616  14.852 -1.4228 -0.3200  1.9431
 8888TIP3    H248156   2.803   5.465  14.852  0.4150 -0.1121  0.7489
 8889TIP3   OH248157   0.286   6.062   4.805 -0.3732  0.1031 -0.3962
 8889TIP3    H148158   0.314   6.034   4.893  1.3083  0.0702 -0.9353
 8889TIP3    H248159   0.250   5.982   4.765 -1.3161  0.1587  0.3117
 8890TIP3   OH248160   5.650   2.969   1.086 -0.3320  0.2687 -0.0339
 8890TIP3    H148161   5.589   2.942   1.154 -1.6300  1.2421 -0.7809
 8890TIP3    H248162   5.601   3.033   1.034  0.2656 -1.2058 -2.4977
 8891TIP3   OH248163   4.063   2.212   3.813  0.4057 -0.1064  0.4265
 8891TIP3    H148164   4.120   2.288   3.819  1.1056 -0.7163  1.7005
 8891TIP3    H248165   3.980   2.241   3.852  0.8717 -0.1829  1.4824
 8892TIP3   OH248166   6.797   2.286  16.106 -0.0491  0.5519  0.2680
 8892TIP3    H148167   6.826   2.271  16.016 -1.0281  1.2305 -0.1825
 8892TIP3    H248168   6.836   2.215  16.157  4.0940  2.5793  0.0846
 8893TIP3   OH248169   2.556   1.427  16.800 -0.3798  0.1633 -0.0483
 8893TIP3    H148170   2.627   1.391  16.748  0.5016  1.0433  0.5025
 8893TIP3    H248171   2.519   1.352  16.846  1.1924 -0.1209  0.8227
 8894TIP3   OH248172   1.075   3.591   3.988  0.7234 -0.0770 -0.7754
 8894TIP3    H148173   1.163   3.607   4.021  0.8076 -0.6680 -0.7070
 8894TIP3    H248174   1.055   3.501   4.014 -0.1357  0.2484 -0.2673
 8895TIP3   OH248175   0.142   3.879  15.507 -0.0373  0.2024 -0.7589
 8895TIP3    H148176   0.204   3.922  15.448 -0.3876  1.8879  0.0675
 8895TIP3    H248177   0.067   3.938  15.509 -0.8562 -0.8480 -0.1918
 8896TIP3   OH248178   2.877   6.641   4.706  0.3389  0.3660 -0.0027
 8896TIP3    H148179   2.916   6.571   4.759  1.1197  1.2501  0.5995
 8896TIP3    H248180   2.784   6.618   4.700  0.6023 -0.7549  0.1408
 8897TIP3   OH248181   1.961   6.505  16.041 -0.9234  0.2221 -0.0187
 8897TIP3    H148182   1.996   6.433  15.988 -0.2659 -0.1364  0.8952
 8897TIP3    H248183   2.021   6.578  16.026 -1.4104  0.4938 -0.6913
 8898TIP3   OH248184   2.924   6.132   6.109  0.0447  0.6425 -1.0911
 8898TIP3    H148185   2.953   6.055   6.158  1.0298  0.1691 -2.4012
 8898TIP3    H248186   2.957   6.206   6.160  0.1017  0.1879 -0.4564
 8899TIP3   OH248187   0.582   0.447  16.305 -0.1807 -0.3847 -0.6371
 8899TIP3    H148188   0.574   0.417  16.396  1.4262 -1.0063 -0.6959
 8899TIP3    H248189   0.517   0.395  16.258 -0.1239 -0.9753 -0.0717
 8900TIP3   OH248190   5.807   2.133   5.985  0.5556  0.3134  0.0190
 8900TIP3    H148191   5.729   2.077   5.991 -0.3049  1.6349  1.7636
 8900TIP3    H248192   5.798   2.177   5.900 -0.1852 -0.1297 -0.1391
 8901TIP3   OH248193   5.368   1.327   1.792 -0.0057  0.2202  0.3092
 8901TIP3    H148194   5.290   1.303   1.742 -1.4353  0.9955  2.1113
 8901TIP3    H248195   5.426   1.368   1.727 -0.2663 -2.0819 -1.4350
 8902TIP3   OH248196   0.063   2.274  14.791 -0.1659  0.1062 -0.0209
 8902TIP3    H148197   0.086   2.181  14.781 -1.2728 -0.1625 -0.2234
 8902TIP3    H248198   0.001   2.290  14.720  0.0859  1.0236 -0.0282
 8903TIP3   OH248199   4.115   0.389   4.568 -0.7411 -0.3846  0.2971
 8903TIP3    H148200   4.205   0.361   4.555 -0.9403 -0.3586 -1.2362
 8903TIP3    H248201   4.107   0.470   4.517  0.0767  3.1176  5.3932
 8904TIP3   OH248202   4.416   6.586  13.763 -0.2399  0.0437  0.8042
 8904TIP3    H148203   4.468   6.582  13.844  0.8527 -0.2513  0.0986
 8904TIP3    H248204   4.334   6.541  13.785  0.5685 -1.1831  1.3796
 8905TIP3   OH248205   5.178   4.511   4.334 -0.0408  0.0138 -0.4430
 8905TIP3    H148206   5.193   4.602   4.359 -1.2241  0.8634 -2.6678
 8905TIP3    H248207   5.258   4.465   4.361  0.5680  1.6968  0.6864
 8906TIP3   OH248208   1.210   4.843   0.175 -0.4026  0.4588  0.0473
 8906TIP3    H148209   1.189   4.803   0.090 -2.0464  2.0074 -0.3075
 8906TIP3    H248210   1.271   4.913   0.154 -0.6339  0.6990  0.1740
 8907TIP3   OH248211   2.399   1.391   4.890  0.5883 -0.3350 -0.2689
 8907TIP3    H148212   2.492   1.410   4.903  1.0365 -2.4176 -0.3949
 8907TIP3    H248213   2.390   1.297   4.903 -1.5710 -0.1194  0.0717
 8908TIP3   OH248214   0.251   1.142  14.882  0.7658 -0.0575 -0.4450
 8908TIP3    H148215   0.222   1.051  14.873 -0.6292  0.1622  1.5074
 8908TIP3    H248216   0.300   1.143  14.964  3.6619  0.2712 -2.1258
 8909TIP3   OH248217   0.520   3.283  13.838 -0.1717 -0.2108 -0.2269
 8909TIP3    H148218   0.450   3.218  13.849 -1.8901  1.0038 -3.3662
 8909TIP3    H248219   0.493   3.356  13.893 -0.2753 -0.5813  0.2217
 8910TIP3   OH248220   0.862   6.417   2.963 -0.3055  0.0976 -0.0450
 8910TIP3    H148221   0.922   6.363   3.013 -0.2899  0.1985  0.0454
 8910TIP3    H248222   0.812   6.466   3.029 -0.4788  0.0214 -0.1200
 8911TIP3   OH248223   2.424   1.507   4.404 -0.2387 -0.0680 -0.0056
 8911TIP3    H148224   2.502   1.554   4.432  0.8988 -2.3997  0.8166
 8911TIP3    H248225   2.391   1.464   4.483 -1.9206  0.2420 -0.5045
 8912TIP3   OH248226   5.839   0.320  13.921  0.5477  1.0884 -0.0307
 8912TIP3    H148227   5.843   0.319  13.825 -2.3185  2.6011 -0.2483
 8912TIP3    H248228   5.774   0.254  13.943  0.7879  1.1403  0.8456
 8913TIP3   OH248229   5.634   1.031  12.529 -0.3440 -0.0016 -0.3651
 8913TIP3    H148230   5.652   0.938  12.517 -1.5120 -0.4946  1.5104
 8913TIP3    H248231   5.544   1.035  12.559 -0.5115  1.7949 -1.0292
 8914TIP3   OH248232   2.636   3.473   5.709  0.0537 -0.9749  0.3047
 8914TIP3    H148233   2.679   3.553   5.679  0.5090 -0.3053  2.6941
 8914TIP3    H248234   2.701   3.404   5.695  0.8296 -0.4273  1.1401
 8915TIP3   OH248235   5.590   1.450  10.603  0.1213  0.1915  0.1825
 8915TIP3    H148236   5.505   1.486  10.580 -1.0601 -2.1976  0.5773
 8915TIP3    H248237   5.625   1.416  10.520  0.2474  0.3124  0.1870
 8916TIP3   OH248238   6.317   0.758   5.696  0.2204 -0.3088  0.3773
 8916TIP3    H148239   6.404   0.727   5.722  0.2108  0.3853  1.2163
 8916TIP3    H248240   6.273   0.780   5.778 -0.6829 -0.4738 -0.0585
 8917TIP3   OH248241   3.512   5.850   3.118  0.0456 -0.2088  0.1506
 8917TIP3    H148242   3.502   5.767   3.164  0.4795  0.5156  1.5653
 8917TIP3    H248243   3.427   5.893   3.127  0.1382 -0.0552  0.2941
 8918TIP3   OH248244   3.512   4.188  13.696 -0.3422 -0.0066 -0.0135
 8918TIP3    H148245   3.526   4.132  13.620 -0.1290  0.5152 -0.3676
 8918TIP3    H248246   3.436   4.151  13.740 -0.8331  0.0396 -0.8130
 8919TIP3   OH248247   4.691   3.858   6.362  0.0138 -0.3458 -0.0766
 8919TIP3    H148248   4.665   3.864   6.454  1.1438  0.2339  0.2154
 8919TIP3    H248249   4.733   3.772   6.354  1.7626  0.4401  0.4452
 8920TIP3   OH248250   3.950   2.892   3.954  0.0311 -0.0421  0.1802
 8920TIP3    H148251   3.895   2.881   4.032  0.0367 -0.4557  0.1267
 8920TIP3    H248252   4.030   2.933   3.987 -0.7799  1.6534  0.0737
 8921TIP3   OH248253   5.165   0.788   0.805  0.0598 -0.0834  0.3483
 8921TIP3    H148254   5.141   0.790   0.712 -0.2375 -0.5005  0.4162
 8921TIP3    H248255   5.183   0.696   0.823  1.3367  0.1582  0.3943
 8922TIP3   OH248256   5.795   1.761  14.392  0.1741 -0.8032  0.2434
 8922TIP3    H148257   5.878   1.792  14.356  0.6204 -2.1551  0.0826
 8922TIP3    H248258   5.815   1.737  14.482 -0.1268 -0.7825  0.3154
 8923TIP3   OH248259   4.036   5.172   6.257  0.0594 -0.0976  0.2434
 8923TIP3    H148260   4.054   5.253   6.303  1.3176 -0.4004  0.2961
 8923TIP3    H248261   4.122   5.138   6.233 -0.5364 -0.2264 -1.8320
 8924TIP3   OH248262   6.472   4.190   0.026  0.2682  0.0321  0.0308
 8924TIP3    H148263   6.504   4.243  -0.047  1.5838 -0.7294  0.0431
 8924TIP3    H248264   6.443   4.254   0.091 -1.1057  0.7145 -1.2325
 8925TIP3   OH248265   2.580   1.985   4.387  0.0957 -0.2455 -0.1832
 8925TIP3    H148266   2.564   2.072   4.425  1.1515 -0.1589  0.0828
 8925TIP3    H248267   2.667   1.992   4.347  0.4034 -1.3452  0.2887
 8926TIP3   OH248268   5.468   2.505  12.751  0.3447  0.0686 -0.6537
 8926TIP3    H148269   5.428   2.419  12.733  2.5192 -1.0191 -0.4569
 8926TIP3    H248270   5.491   2.501  12.844  1.7231  0.2942 -0.9675
 8927TIP3   OH248271   2.457   4.342  10.708 -0.2938 -0.1675 -0.0572
 8927TIP3    H148272   2.538   4.291  10.702 -0.2076 -0.3075  1.8461
 8927TIP3    H248273   2.389   4.284  10.672  0.0842 -0.9694  0.5044
 8928TIP3   OH248274   0.952   5.852  11.838 -0.2857 -0.5508  0.7578
 8928TIP3    H148275   0.874   5.808  11.873  1.2111 -1.1200  3.5412
 8928TIP3    H248276   1.004   5.781  11.800 -0.5031 -0.3429  0.0564
 8929TIP3   OH248277   3.943   2.654   0.522 -0.2536 -0.8443 -0.1847
 8929TIP3    H148278   3.905   2.610   0.446 -1.5904 -1.4082  0.8071
 8929TIP3    H248279   3.930   2.747   0.504  0.5078 -0.9191 -1.1968
 8930TIP3   OH248280   0.609   2.427  15.548  0.3471 -0.2355 -0.3240
 8930TIP3    H148281   0.527   2.447  15.503  1.4884  0.9245 -1.9854
 8930TIP3    H248282   0.627   2.505  15.600  0.1307 -0.6927  0.4301
 8931TIP3   OH248283   3.925   0.094   1.045  0.1776 -0.1931  0.0729
 8931TIP3    H148284   3.960   0.163   1.101 -0.7372  0.3015  0.0509
 8931TIP3    H248285   3.894   0.027   1.106  1.2041 -0.6541  0.0904
 8932TIP3   OH248286   0.302   3.655   3.024  0.0664  0.8647  0.1472
 8932TIP3    H148287   0.340   3.591   2.964 -1.5597 -0.6094  0.6620
 8932TIP3    H248288   0.353   3.647   3.104 -1.0430 -0.8196  0.6967
 8933TIP3   OH248289   5.441   2.314  15.634  0.1490  0.0889 -0.1768
 8933TIP3    H148290   5.412   2.249  15.569  0.8389  0.8407 -1.2632
 8933TIP3    H248291   5.484   2.382  15.582  0.0411  1.0866  1.0152
 8934TIP3   OH248292   2.216   1.243  12.508  0.1581  0.2115 -0.4688
 8934TIP3    H148293   2.300   1.252  12.552  0.0312 -1.7168  0.2420
 8934TIP3    H248294   2.196   1.331  12.475  0.6672  1.4964  2.5523
 8935TIP3   OH248295   0.982   2.974  11.734  0.2671  0.1316 -0.1853
 8935TIP3    H148296   0.926   2.932  11.799 -0.7616  0.8938 -0.5651
 8935TIP3    H248297   1.071   2.957  11.765 -0.1724 -0.9188  0.5285
 8936TIP3   OH248298   0.184   3.775   2.037  0.0583 -0.4781 -0.2187
 8936TIP3    H148299   0.136   3.833   1.978 -0.5995  0.7575  1.4620
 8936TIP3    H248300   0.199   3.829   2.116  2.9466 -1.2964 -0.1470
 8937TIP3   OH248301   4.082   5.309   4.316 -0.0511 -0.0144  0.1333
 8937TIP3    H148302   4.127   5.347   4.240 -0.4775  0.1899 -0.0201
 8937TIP3    H248303   4.030   5.237   4.279 -0.6317  0.3887  0.1600
 8938TIP3   OH248304   5.794   4.955   0.549  0.3186 -0.0548  0.6861
 8938TIP3    H148305   5.869   4.905   0.518 -0.4591 -1.7964  1.5731
 8938TIP3    H248306   5.812   5.045   0.521  1.1932 -0.9902 -1.9021
 8939TIP3   OH248307   5.830   5.544   0.553  0.5545  0.2569 -0.1238
 8939TIP3    H148308   5.763   5.566   0.489 -0.0253 -1.3088 -0.0906
 8939TIP3    H248309   5.911   5.581   0.517  0.1234 -0.0674 -1.4599
 8940TIP3   OH248310   0.290   6.775  12.470 -0.2377  0.6446 -0.1757
 8940TIP3    H148311   0.310   6.691  12.512 -1.0724  0.5161 -0.0209
 8940TIP3    H248312   0.301   6.759  12.377 -1.3424  0.0894 -0.2200
 8941TIP3   OH248313   4.853   5.025  11.882 -0.2931  0.2148  0.0377
 8941TIP3    H148314   4.849   4.963  11.809 -2.5800  0.5330 -0.1251
 8941TIP3    H248315   4.800   5.100  11.854 -1.8018  0.0403  2.2867
 8942TIP3   OH248316   3.779   2.151   2.084 -0.8341  0.3864  0.5566
 8942TIP3    H148317   3.746   2.241   2.090  0.2026  0.8265 -0.1122
 8942TIP3    H248318   3.827   2.149   2.001  0.8909 -0.1946  1.5435
 8943TIP3   OH248319   0.572   6.074   2.867 -0.0480  0.5007 -0.0039
 8943TIP3    H148320   0.491   6.029   2.892 -0.9685  2.6507  0.9765
 8943TIP3    H248321   0.614   6.014   2.805 -0.9779 -1.9368  1.6371
 8944TIP3   OH248322   2.817   1.232  10.708  0.1848 -0.2975  0.1431
 8944TIP3    H148323   2.730   1.204  10.734  0.8832 -0.0764  2.8773
 8944TIP3    H248324   2.876   1.165  10.743  1.0570 -1.4189 -3.1937
 8945TIP3   OH248325   2.488   0.486   2.006  0.0448 -0.2614 -1.0248
 8945TIP3    H148326   2.430   0.410   2.016 -0.2734 -0.0331 -1.1090
 8945TIP3    H248327   2.534   0.492   2.089  0.0358 -0.5212 -1.0011
 8946TIP3   OH248328   0.808   4.057  14.418  0.6137 -0.2098 -0.9416
 8946TIP3    H148329   0.852   4.019  14.494  1.6047  0.1280 -1.3283
 8946TIP3    H248330   0.725   4.009  14.411  0.5250 -0.2444  0.3362
 8947TIP3   OH248331   0.983   1.848  14.278 -0.2087  0.2529 -0.1251
 8947TIP3    H148332   1.008   1.763  14.312 -0.7404  0.0133 -0.3236
 8947TIP3    H248333   0.959   1.832  14.187 -1.3498  0.4102  0.1309
 8948TIP3   OH248334   0.904   5.849  13.180  0.4597  0.7425  0.3178
 8948TIP3    H148335   0.921   5.812  13.267  0.8743 -1.6597 -0.7334
 8948TIP3    H248336   0.975   5.911  13.166  0.9767  0.3876  1.2781
 8949TIP3   OH248337   5.748   3.776   4.908 -1.0307  0.4982 -0.6248
 8949TIP3    H148338   5.771   3.726   4.830  1.1608 -0.6516  0.7270
 8949TIP3    H248339   5.826   3.827   4.929  0.0375 -2.4558  3.2790
 8950TIP3   OH248340   0.217   4.673  14.531 -0.4715  0.0354  0.0941
 8950TIP3    H148341   0.150   4.710  14.588 -2.8845  1.5540 -3.5793
 8950TIP3    H248342   0.278   4.745  14.516  0.6856 -0.6363  1.4254
 8951TIP3   OH248343   6.188   1.409   0.338 -0.2047  0.0019 -0.0873
 8951TIP3    H148344   6.170   1.323   0.376  1.1596 -0.4250 -0.3901
 8951TIP3    H248345   6.235   1.457   0.406 -2.1603  1.0036  0.5866
 8952TIP3   OH248346   3.609   0.780  15.344  0.5168  0.3179  0.1128
 8952TIP3    H148347   3.616   0.744  15.255 -2.5739 -1.3350  0.4497
 8952TIP3    H248348   3.658   0.719  15.399 -0.3711 -0.5451 -0.0309
 8953TIP3   OH248349   3.396   6.326   5.953 -0.3616 -0.1290  0.2883
 8953TIP3    H148350   3.443   6.278   6.021  1.0584  0.9838  0.1211
 8953TIP3    H248351   3.425   6.286   5.871  0.3024  0.5463  0.1862
 8954TIP3   OH248352   5.752   0.404  13.645  0.1038  0.0353 -0.1315
 8954TIP3    H148353   5.760   0.347  13.568  2.5206  1.4731 -0.9894
 8954TIP3    H248354   5.703   0.480  13.614  1.5402  0.8613 -0.4192
 8955TIP3   OH248355   3.945   4.272  11.603 -0.2590 -0.4153 -0.2188
 8955TIP3    H148356   3.880   4.322  11.554 -0.6520  0.3766  1.0697
 8955TIP3    H248357   3.902   4.251  11.685  1.5899  1.4501  1.3039
 8956TIP3   OH248358   3.875   3.991   5.289  0.1564 -0.0875 -0.3764
 8956TIP3    H148359   3.894   3.939   5.367  2.4672 -1.1250 -1.5568
 8956TIP3    H248360   3.848   3.926   5.224 -3.6083  0.9554  0.0294
 8957TIP3   OH248361   5.113   0.987  15.887  0.5795  0.2305  0.1715
 8957TIP3    H148362   5.187   0.961  15.942 -0.1696 -0.8656  0.6734
 8957TIP3    H248363   5.072   0.904  15.861 -1.3054  0.8494  1.0550
 8958TIP3   OH248364   1.951   1.182   5.327 -0.4116  0.0811 -1.0624
 8958TIP3    H148365   1.939   1.119   5.398  3.2583  3.1630  2.5930
 8958TIP3    H248366   1.863   1.215   5.309 -1.7790 -2.7640  0.1112
 8959TIP3   OH248367   6.088   1.058  13.931  0.1127  0.1515  0.0348
 8959TIP3    H148368   6.155   1.094  13.873 -0.3196  0.6388 -0.1632
 8959TIP3    H248369   6.097   1.108  14.012  0.4509 -0.2576  0.2522
 8960TIP3   OH248370   3.558   1.067   2.846  0.1895 -0.6139 -0.2986
 8960TIP3    H148371   3.463   1.065   2.834  0.2750 -0.1024 -1.1028
 8960TIP3    H248372   3.586   0.976   2.831 -0.1664 -0.7582 -0.0872
 8961TIP3   OH248373   4.336   1.975  14.454 -0.3467 -0.4517  0.6916
 8961TIP3    H148374   4.295   2.042  14.509 -1.7385 -1.9366  1.5190
 8961TIP3    H248375   4.430   1.994  14.458 -0.8019  2.1666 -0.0748
 8962TIP3   OH248376   3.202   3.692  12.910 -0.5406 -0.5241  0.2214
 8962TIP3    H148377   3.111   3.663  12.901 -0.1996 -1.8273  0.9084
 8962TIP3    H248378   3.253   3.628  12.860 -0.0129  0.4094 -0.4765
 8963TIP3   OH248379   1.695   2.002   5.697 -0.1860  0.2426 -0.1096
 8963TIP3    H148380   1.667   2.091   5.677 -0.8403  0.1472  0.3513
 8963TIP3    H248381   1.741   2.010   5.781 -1.1798 -0.0172  0.4612
 8964TIP3   OH248382   4.054   6.637   3.967 -0.5495  0.0164  0.4413
 8964TIP3    H148383   4.053   6.719   3.918  1.3303 -1.4919 -2.2419
 8964TIP3    H248384   4.097   6.659   4.049  1.1953  1.4252 -0.8150
 8965TIP3   OH248385   1.875   0.663  13.481 -0.2454 -0.3790  0.6658
 8965TIP3    H148386   1.797   0.694  13.526 -0.9417 -0.2049 -0.6161
 8965TIP3    H248387   1.880   0.570  13.501 -0.6326 -0.3342  0.9613
 8966TIP3   OH248388   3.538   0.957   0.020  0.2388  0.4703 -0.5744
 8966TIP3    H148389   3.611   0.998  -0.026  0.7620 -0.4284 -0.5629
 8966TIP3    H248390   3.531   0.870  -0.019  0.6545 -0.2814  0.9874
 8967TIP3   OH248391   5.218   1.144  11.473  0.2365 -0.0853 -0.0470
 8967TIP3    H148392   5.226   1.180  11.562  2.1772 -1.2853  0.2920
 8967TIP3    H248393   5.124   1.143  11.456 -0.0605  1.7440  1.3372
 8968TIP3   OH248394   5.428   0.784  13.842 -0.0718  0.4979  0.6478
 8968TIP3    H148395   5.446   0.692  13.860 -1.1859  0.0754 -0.3413
 8968TIP3    H248396   5.341   0.784  13.801  0.2305  1.9141 -0.0269
 8969TIP3   OH248397   4.127   6.055   4.821 -0.1033  0.2972  1.5712
 8969TIP3    H148398   4.057   6.110   4.856 -1.1047 -1.0794  1.7600
 8969TIP3    H248399   4.120   5.973   4.870  1.4257  0.0217  1.3543
 8970TIP3   OH248400   2.221   3.966   1.319 -0.2335 -0.4262  0.7220
 8970TIP3    H148401   2.302   3.989   1.274 -1.1884 -0.5864 -1.1211
 8970TIP3    H248402   2.207   4.038   1.382 -0.5204  1.4704 -1.4452
 8971TIP3   OH248403   2.616   2.761  13.222  0.2239 -0.2362 -0.0207
 8971TIP3    H148404   2.565   2.680  13.234 -0.2570  0.2326  1.1246
 8971TIP3    H248405   2.595   2.814  13.298  3.0722 -0.3640  0.9046
 8972TIP3   OH248406   4.449   6.581   1.189 -0.5517 -0.1577 -0.3912
 8972TIP3    H148407   4.507   6.525   1.136  3.2998  2.1182  1.2201
 8972TIP3    H248408   4.393   6.625   1.125  0.4658 -1.3505 -2.1395
 8973TIP3   OH248409   5.897   3.463   2.779 -0.4393  0.4918  0.1034
 8973TIP3    H148410   5.991   3.484   2.776 -0.7155  1.9316  0.7610
 8973TIP3    H248411   5.856   3.544   2.809 -1.8876 -0.1714 -0.0506
 8974TIP3   OH248412   6.510   1.043  12.310 -0.3678  0.5377 -0.1869
 8974TIP3    H148413   6.535   1.021  12.220 -0.0477  0.5806 -0.1120
 8974TIP3    H248414   6.423   1.007  12.321 -0.9673  1.7310 -0.9552
 8975TIP3   OH248415   5.735   6.236  16.041  0.9075 -0.4926  0.2195
 8975TIP3    H148416   5.764   6.164  15.984  1.0398 -0.9346  0.8464
 8975TIP3    H248417   5.782   6.222  16.123  0.7999  0.2151  0.4035
 8976TIP3   OH248418   3.449   4.106   3.107 -0.3628  0.5865 -0.2869
 8976TIP3    H148419   3.374   4.166   3.104 -0.6402  0.2678  0.1732
 8976TIP3    H248420   3.421   4.035   3.165  0.6392  0.9496  0.6619
 8977TIP3   OH248421   6.385   6.567  16.118 -0.3049 -0.4779 -0.2822
 8977TIP3    H148422   6.417   6.486  16.157  1.2551 -0.7365 -2.0202
 8977TIP3    H248423   6.324   6.539  16.049 -0.1734 -0.1709 -0.5266
 8978TIP3   OH248424   6.376   6.580   5.191  0.4620  0.1843  0.3939
 8978TIP3    H148425   6.466   6.614   5.186  0.7992 -0.5576  1.1588
 8978TIP3    H248426   6.374   6.508   5.128  0.0126  1.0524 -0.5817
 8979TIP3   OH248427   2.712   3.574   6.156  0.2182 -0.4715 -0.7207
 8979TIP3    H148428   2.744   3.593   6.244  0.7271 -3.0836 -0.3054
 8979TIP3    H248429   2.633   3.627   6.148  0.4522  0.2098  1.1015
 8980TIP3   OH248430   0.598   5.179  14.557 -0.3618 -0.0740 -0.3334
 8980TIP3    H148431   0.600   5.142  14.469 -0.5691  0.0710 -0.4001
 8980TIP3    H248432   0.505   5.182  14.580 -0.1613 -2.6362  0.9905
 8981TIP3   OH248433   5.012   5.215  15.196  0.5026 -0.1498 -0.2886
 8981TIP3    H148434   4.939   5.245  15.142 -1.3379  0.5280  2.4847
 8981TIP3    H248435   5.050   5.294  15.233 -0.2943 -0.7572  1.9206
 8982TIP3   OH248436   6.654   1.004   1.585  0.0057 -0.1476  0.1487
 8982TIP3    H148437   6.736   0.966   1.554  0.8483  2.5384 -1.0641
 8982TIP3    H248438   6.662   1.004   1.680  1.1183 -0.5265  0.0631
 8983TIP3   OH248439   0.530   1.011  12.534  0.1803 -1.0127 -0.0273
 8983TIP3    H148440   0.570   0.939  12.582  1.1066 -0.0041  0.7517
 8983TIP3    H248441   0.531   0.983  12.443  1.0020 -1.7569  0.2081
 8984TIP3   OH248442   2.898   0.697   0.935 -0.1565  0.1298 -0.1259
 8984TIP3    H148443   2.900   0.624   0.872  1.8734 -1.0371  1.2168
 8984TIP3    H248444   2.855   0.660   1.013 -0.2810  0.7537  0.1008
 8985TIP3   OH248445   1.612   4.967  12.426  0.0613 -0.0628  0.2655
 8985TIP3    H148446   1.686   5.018  12.459  0.2826  1.3302 -2.2957
 8985TIP3    H248447   1.631   4.877  12.455  1.1030  0.7940  2.3685
 8986TIP3   OH248448   0.946   4.770   3.862 -0.0959  0.3360  0.2043
 8986TIP3    H148449   0.928   4.727   3.778  0.4258 -1.6896  1.0919
 8986TIP3    H248450   0.984   4.855   3.838  2.1693 -1.1217 -1.6604
 8987TIP3   OH248451   5.495   5.543   1.924 -0.1807  0.3989  0.4582
 8987TIP3    H148452   5.576   5.492   1.929 -0.5345 -0.0845  1.4930
 8987TIP3    H248453   5.463   5.546   2.014 -1.0496  1.0213  0.1407
 8988TIP3   OH248454   2.022   6.101  14.492  0.3388 -0.1768  0.1359
 8988TIP3    H148455   2.052   6.094  14.401  2.4803  0.4204  0.7682
 8988TIP3    H248456   1.971   6.182  14.494  2.0841  0.9475 -0.0775
 8989TIP3   OH248457   5.005   0.175   5.098 -0.1203  0.8434  0.1083
 8989TIP3    H148458   5.054   0.207   5.022  1.5281  1.5757  1.4621
 8989TIP3    H248459   4.963   0.253   5.134 -2.7059  0.1764 -1.2647
 8990TIP3   OH248460   2.682   3.585  11.978 -0.1467 -0.3825 -0.3978
 8990TIP3    H148461   2.719   3.628  11.901 -2.1894 -1.1382 -1.8422
 8990TIP3    H248462   2.755   3.535  12.016  1.3486  1.4887 -0.7207
 8991TIP3   OH248463   5.050   4.883  14.886  0.1123 -0.3184  0.2119
 8991TIP3    H148464   5.117   4.936  14.931  0.3219  0.6967 -1.2354
 8991TIP3    H248465   4.974   4.941  14.881  0.0523 -0.4613 -0.6086
 8992TIP3   OH248466   0.594   0.574   0.266 -0.2682 -0.0419  0.0703
 8992TIP3    H148467   0.498   0.571   0.272 -0.2347 -1.4999 -0.0152
 8992TIP3    H248468   0.612   0.589   0.173 -0.4002 -1.4251 -0.1925
 8993TIP3   OH248469   4.839   3.369  15.855  0.6595  0.1618  0.1646
 8993TIP3    H148470   4.823   3.424  15.932 -1.1643 -1.1555  0.7599
 8993TIP3    H248471   4.920   3.323  15.875  0.4226  0.1392  1.1125
 8994TIP3   OH248472   0.373   2.944  13.413 -0.3653 -0.0068 -0.0562
 8994TIP3    H148473   0.393   2.858  13.450  3.3682  0.5690 -0.5077
 8994TIP3    H248474   0.363   2.929  13.319  1.0037  0.1229 -0.2346
 8995TIP3   OH248475   5.620   2.919   2.355 -0.2190  0.2091  0.0371
 8995TIP3    H148476   5.598   2.923   2.262 -0.6277  2.7725  0.2268
 8995TIP3    H248477   5.681   2.991   2.370  0.3832 -0.5793  1.6399
 8996TIP3   OH248478   5.014   5.645   6.188  0.4849  0.3499  0.1026
 8996TIP3    H148479   4.936   5.696   6.166 -0.6038 -1.8326 -1.1381
 8996TIP3    H248480   4.987   5.591   6.263  0.8367 -0.3223 -0.2549
 8997TIP3   OH248481   2.670   6.442  15.687  0.3643  0.1544  0.2057
 8997TIP3    H148482   2.666   6.354  15.725  0.3397  0.0529 -0.0292
 8997TIP3    H248483   2.680   6.426  15.592 -2.1258  0.4008 -0.1201
 8998TIP3   OH248484   2.003   1.781   1.541  0.2048  0.2380  0.0722
 8998TIP3    H148485   2.035   1.750   1.626 -0.5183  1.9977  1.0050
 8998TIP3    H248486   1.995   1.701   1.488  1.9817 -0.7230  1.1853
 8999TIP3   OH248487   1.839   2.013  13.929 -0.1122  0.0018  0.5505
 8999TIP3    H148488   1.786   1.963  13.991 -1.5586 -0.8057 -1.2909
 8999TIP3    H248489   1.813   2.104  13.943 -0.6716 -0.2090  0.9166
 9000TIP3   OH248490   4.108   0.834   4.936  0.5704 -0.3631  0.3970
 9000TIP3    H148491   4.122   0.928   4.937  1.4703 -0.4865  2.2505
 9000TIP3    H248492   4.014   0.824   4.927  0.5005  0.7013 -0.1432
 9001TIP3   OH248493   0.582   4.687   2.647 -0.3486 -0.5593  0.0121
 9001TIP3    H148494   0.541   4.773   2.644  0.5016 -0.1621 -0.2772
 9001TIP3    H248495   0.670   4.701   2.615 -0.1261 -1.4982  0.1923
 9002TIP3   OH248496   2.575   0.724  12.514  0.0553 -0.1212 -0.3294
 9002TIP3    H148497   2.630   0.678  12.578  1.1947  0.3497 -0.9528
 9002TIP3    H248498   2.487   0.687  12.527  0.7285 -1.6978 -0.0858
 9003TIP3   OH248499   2.338   4.141   4.424 -0.5768  0.1535 -0.1474
 9003TIP3    H148500   2.409   4.189   4.466 -0.3943 -0.4405  0.2308
 9003TIP3    H248501   2.353   4.050   4.448  0.3531 -0.3945 -2.6514
 9004TIP3   OH248502   0.004   1.508   0.829 -0.2346 -0.2546  0.4040
 9004TIP3    H148503  -0.035   1.551   0.904 -1.5452 -0.8196  0.0595
 9004TIP3    H248504   0.066   1.445   0.866  0.4797  0.7513  0.9414
 9005TIP3   OH248505   2.255   0.700   5.890  0.6205  0.5668 -0.2852
 9005TIP3    H148506   2.168   0.700   5.930  0.2809  0.8321 -1.0061
 9005TIP3    H248507   2.275   0.792   5.877  1.0348  0.5074 -0.0775
 9006TIP3   OH248508   2.794   1.176   0.400 -0.5067  0.0068  0.4155
 9006TIP3    H148509   2.755   1.096   0.435 -1.0499 -0.7913 -1.9282
 9006TIP3    H248510   2.743   1.247   0.438 -1.9129 -0.8863  0.2087
 9007TIP3   OH248511   4.256   0.660   2.045 -0.2711  0.1159  0.5213
 9007TIP3    H148512   4.257   0.745   2.000 -0.2668 -0.3733 -0.4225
 9007TIP3    H248513   4.347   0.648   2.075 -0.5287  0.9634  1.6719
 9008TIP3   OH248514   5.344   3.469  15.124 -0.5007 -0.1219  0.0573
 9008TIP3    H148515   5.311   3.459  15.034  0.2236  0.3017 -0.2580
 9008TIP3    H248516   5.403   3.544  15.119 -0.0270 -0.4479  0.7796
 9009TIP3   OH248517   0.837   1.124   3.692 -0.0692  0.0051  0.4683
 9009TIP3    H148518   0.772   1.093   3.755 -1.0434  0.5003 -0.2821
 9009TIP3    H248519   0.873   1.043   3.655 -4.1081 -0.3847 -3.0130
 9010TIP3   OH248520   2.623   2.319  15.270  0.1050  0.2871 -0.2028
 9010TIP3    H148521   2.667   2.265  15.204  0.1755  0.1097 -0.0110
 9010TIP3    H248522   2.596   2.398  15.223 -1.1706 -0.4880 -0.8207
 9011TIP3   OH248523   6.696   4.176  13.158 -0.4470 -0.3630 -0.6165
 9011TIP3    H148524   6.610   4.137  13.171 -0.4123  0.2055  1.3993
 9011TIP3    H248525   6.678   4.263  13.123 -0.5550 -1.5673 -3.7751
 9012TIP3   OH248526   6.554   3.727   1.054  0.4869 -0.8534  0.6391
 9012TIP3    H148527   6.544   3.736   1.149 -1.0946 -0.0216  0.3994
 9012TIP3    H248528   6.644   3.695   1.043  1.1392  0.3275  2.3354
 9013TIP3   OH248529   1.932   4.555   0.435 -0.1829 -0.0780 -0.4050
 9013TIP3    H148530   1.889   4.638   0.457  1.2031  1.0177 -1.7733
 9013TIP3    H248531   1.860   4.497   0.409 -1.1201  0.7970  0.2074
 9014TIP3   OH248532   1.843   4.713  15.353 -0.1742  0.0402  0.1905
 9014TIP3    H148533   1.833   4.794  15.303 -0.3877 -0.4882 -0.6291
 9014TIP3    H248534   1.797   4.731  15.436  0.3100  0.9644  0.2632
 9015TIP3   OH248535   4.857   5.400  12.201  0.8557  0.1324 -0.1829
 9015TIP3    H148536   4.895   5.383  12.115  0.3525  0.3923 -0.4605
 9015TIP3    H248537   4.923   5.370  12.263  1.6217  0.8230 -0.6610
 9016TIP3   OH248538   5.013   2.631   5.354 -0.4155  0.2328  0.3141
 9016TIP3    H148539   5.023   2.716   5.396  1.8518 -0.1220  0.5761
 9016TIP3    H248540   5.019   2.568   5.426 -0.2087 -0.2167 -0.0963
 9017TIP3   OH248541   3.502   1.356  12.888  0.2782  0.2565 -0.1092
 9017TIP3    H148542   3.408   1.358  12.907  0.6524  0.5302  1.7893
 9017TIP3    H248543   3.525   1.263  12.892  0.0533  0.1724 -0.7565
 9018TIP3   OH248544   6.346   2.229  11.949 -0.4707 -0.1252  0.0410
 9018TIP3    H148545   6.381   2.156  12.000  2.2912 -0.3159 -2.0010
 9018TIP3    H248546   6.419   2.290  11.942 -1.7758  1.3389 -1.0317
 9019TIP3   OH248547   4.155   0.697  13.078 -0.2968 -0.2606  0.2646
 9019TIP3    H148548   4.132   0.743  13.159 -2.5202  0.3623 -0.6742
 9019TIP3    H248549   4.084   0.718  13.018  0.2237 -2.4456 -1.1791
 9020TIP3   OH248550   1.922   3.554  12.073  0.1655  0.6649 -1.0193
 9020TIP3    H148551   1.914   3.488  12.141 -2.4062  1.6417 -0.3482
 9020TIP3    H248552   1.913   3.505  11.991 -1.4584  0.1243 -0.5314
 9021TIP3   OH248553   1.934   2.150   2.391  1.2371  0.0100  0.1766
 9021TIP3    H148554   1.855   2.113   2.350  1.2520  0.5801 -0.3738
 9021TIP3    H248555   1.974   2.203   2.322  1.2617  0.9941  0.9485
 9022TIP3   OH248556   6.163   0.108   2.619 -0.1262 -0.2917 -0.5335
 9022TIP3    H148557   6.249   0.104   2.575  0.3445  0.5373  0.3018
 9022TIP3    H248558   6.100   0.100   2.548  0.6335  0.6484 -1.3260
 9023TIP3   OH248559   4.309   5.201   1.915 -0.3214  0.3859  1.1094
 9023TIP3    H148560   4.251   5.161   1.850 -0.7560  0.3207  1.5385
 9023TIP3    H248561   4.277   5.170   1.999  1.8549 -1.6584  1.2401
 9024TIP3   OH248562   0.812   5.140  13.142  0.0470 -0.5514 -0.2302
 9024TIP3    H148563   0.892   5.163  13.188  0.6144 -1.8008 -0.5808
 9024TIP3    H248564   0.760   5.221  13.142  0.9155  0.0143  0.7759
 9025TIP3   OH248565   5.341   2.836   0.210  0.2536 -0.0466 -0.6885
 9025TIP3    H148566   5.258   2.874   0.238  0.0684  0.0431 -1.3537
 9025TIP3    H248567   5.382   2.807   0.291  0.0672  0.8950 -0.2515
 9026TIP3   OH248568   3.389   3.293   1.977 -0.0825 -0.8485  0.0018
 9026TIP3    H148569   3.375   3.256   2.064 -1.9911  0.6036  0.3310
 9026TIP3    H248570   3.324   3.251   1.921  0.2862 -0.8171 -0.4596
 9027TIP3   OH248571   2.735   6.487   2.608  0.5157  0.6090  0.0673
 9027TIP3    H148572   2.828   6.484   2.587  0.5336  1.4836  0.0278
 9027TIP3    H248573   2.694   6.528   2.532  0.3213  1.8379  0.8151
 9028TIP3   OH248574   0.378   6.282  16.411  0.0517  0.3541 -0.1252
 9028TIP3    H148575   0.428   6.338  16.351  3.4593 -1.7242  0.6658
 9028TIP3    H248576   0.414   6.300  16.497  0.8572 -2.6018  0.2117
 9029TIP3   OH248577   6.223   1.089   1.993 -0.3705 -0.8068 -0.0251
 9029TIP3    H148578   6.265   1.007   1.969  0.0434 -0.8854  0.9603
 9029TIP3    H248579   6.294   1.144   2.027 -0.5811  0.0828 -0.9890
 9030TIP3   OH248580   0.181   0.474  13.661  0.8833  0.0922 -0.5190
 9030TIP3    H148581   0.254   0.497  13.603 -0.1108  0.7118 -1.5535
 9030TIP3    H248582   0.145   0.558  13.689 -0.5063 -0.2021 -1.4089
 9031TIP3   OH248583   5.157   5.239  11.888  0.5353  0.5196  0.4177
 9031TIP3    H148584   5.251   5.239  11.906  0.4417  0.1030  0.9158
 9031TIP3    H248585   5.124   5.159  11.929 -0.1063  0.8718  0.6047
 9032TIP3   OH248586   6.665   1.604   0.594 -0.7884  0.3052 -0.0790
 9032TIP3    H148587   6.710   1.537   0.645 -0.1893  1.4877  0.9767
 9032TIP3    H248588   6.656   1.678   0.654 -2.8312  0.6245 -0.7435
 9033TIP3   OH248589   2.903   0.146  16.781 -0.0019  0.9249  0.1585
 9033TIP3    H148590   2.865   0.130  16.695 -0.5233 -2.1296  0.9022
 9033TIP3    H248591   2.997   0.129  16.769 -0.4122 -1.9635  0.7065
 9034TIP3   OH248592   4.015   4.586   4.581  0.5544  0.4166 -0.0593
 9034TIP3    H148593   4.046   4.663   4.533  2.2428 -1.6464 -2.4376
 9034TIP3    H248594   3.930   4.565   4.541  0.8693  0.0859 -0.5646
 9035TIP3   OH248595   0.122   1.021  10.914  0.4495  0.4073 -0.0675
 9035TIP3    H148596   0.167   0.937  10.901 -0.1231  0.1021 -0.0705
 9035TIP3    H248597   0.124   1.063  10.828 -1.6326 -0.7744 -0.7200
 9036TIP3   OH248598   4.785   3.653  15.930  0.2940 -0.4472 -0.1240
 9036TIP3    H148599   4.693   3.651  15.956  0.5829 -1.8194  0.8569
 9036TIP3    H248600   4.824   3.723  15.983  0.3891 -1.7099  1.5120
 9037TIP3   OH248601   2.945   6.717  14.722 -0.6451 -0.0113 -0.0852
 9037TIP3    H148602   2.971   6.641  14.670 -1.0946 -0.3055  0.1143
 9037TIP3    H248603   3.027   6.750  14.761 -0.3817 -0.0870 -0.5780
 9038TIP3   OH248604   0.397   1.630   3.029 -0.5884  0.6637 -0.3142
 9038TIP3    H148605   0.411   1.723   3.008  1.4930  0.7559  1.2328
 9038TIP3    H248606   0.470   1.608   3.088  0.7010 -2.7488 -2.9864
 9039TIP3   OH248607   6.361   0.171   2.409 -0.0113  0.2171 -0.2136
 9039TIP3    H148608   6.319   0.223   2.341  0.0139  1.3020  0.6017
 9039TIP3    H248609   6.437   0.222   2.436 -1.4066  1.0009  2.4017
 9040TIP3   OH248610   1.848   2.661   2.608 -0.4922  0.6422  1.1868
 9040TIP3    H148611   1.930   2.616   2.628 -1.7612 -1.2293  2.3834
 9040TIP3    H248612   1.868   2.715   2.531  2.0167  0.7451  1.8796
 9041TIP3   OH248613   4.358   2.995  16.166 -0.1237  0.2319  0.1986
 9041TIP3    H148614   4.283   2.962  16.215 -1.0462 -0.0485 -1.3880
 9041TIP3    H248615   4.354   2.950  16.082  2.2870 -0.3784  0.3932
 9042TIP3   OH248616   4.181   3.551  11.518 -0.0432  0.1478 -0.2080
 9042TIP3    H148617   4.162   3.616  11.585  1.0232  0.5395 -0.2838
 9042TIP3    H248618   4.257   3.504  11.551 -2.0547 -2.4911  0.8514
 9043TIP3   OH248619   6.064   5.727   2.478  0.1630  0.0704  1.2578
 9043TIP3    H148620   6.060   5.633   2.489  2.4885 -0.2284 -0.0250
 9043TIP3    H248621   6.101   5.760   2.560  0.4807 -0.2839  1.2598
 9044TIP3   OH248622   3.313   1.424   3.972 -0.4637  0.3201 -0.2605
 9044TIP3    H148623   3.336   1.465   3.888  0.6032 -0.2596 -0.2492
 9044TIP3    H248624   3.397   1.409   4.016 -0.9156 -0.9251  0.1886
 9045TIP3   OH248625   1.754   5.718   1.909  0.2551 -0.3920  0.3191
 9045TIP3    H148626   1.785   5.630   1.887 -0.2034 -0.6888  0.8287
 9045TIP3    H248627   1.712   5.707   1.994 -0.5769  0.1431 -0.0200
 9046TIP3   OH248628   4.205   1.247   3.324  0.2371 -0.6955 -0.1012
 9046TIP3    H148629   4.199   1.316   3.258 -5.2437  1.0948  1.9915
 9046TIP3    H248630   4.230   1.292   3.404 -0.1995 -1.6642  0.5935
 9047TIP3   OH248631   4.409   2.264  15.759  0.5604  0.5828  0.0192
 9047TIP3    H148632   4.426   2.174  15.788  0.0437  0.6327  0.4767
 9047TIP3    H248633   4.488   2.289  15.712 -0.0374 -0.8163 -1.8265
 9048TIP3   OH248634   5.121   3.107   4.290  0.6926 -0.0495 -0.5946
 9048TIP3    H148635   5.200   3.133   4.337 -0.2652  1.3556  0.2997
 9048TIP3    H248636   5.083   3.038   4.345  0.1976  0.7635  0.1052
 9049TIP3   OH248637   4.614   3.693   4.351 -0.4232 -0.3419 -0.5728
 9049TIP3    H148638   4.588   3.601   4.348 -1.9061  0.0713 -0.4455
 9049TIP3    H248639   4.541   3.738   4.392 -0.1610  1.0683 -1.6127
 9050TIP3   OH248640   0.559   0.840   1.504  0.4980  0.0242  0.1562
 9050TIP3    H148641   0.573   0.767   1.443  1.4036 -0.7573  1.2765
 9050TIP3    H248642   0.492   0.809   1.564 -0.2694  0.7298 -0.3211
 9051TIP3   OH248643   1.609   5.147   4.816  0.4429 -0.0800 -0.4416
 9051TIP3    H148644   1.664   5.212   4.772  0.3587  1.9293  2.3168
 9051TIP3    H248645   1.629   5.157   4.909 -3.5486 -0.2478  0.5173
 9052TIP3   OH248646   5.187   2.782  14.280  0.2293 -0.7027 -0.3154
 9052TIP3    H148647   5.130   2.714  14.245 -0.4955 -0.3008  0.0683
 9052TIP3    H248648   5.128   2.845  14.322  0.8760  0.2078 -0.7379
 9053TIP3   OH248649   1.822   1.123   6.207 -0.1929 -0.1894 -0.1691
 9053TIP3    H148650   1.813   1.062   6.281 -1.1367 -0.5434 -0.5658
 9053TIP3    H248651   1.916   1.142   6.203 -0.3776  1.5677  2.4952
 9054TIP3   OH248652   1.910   6.032   3.828 -0.5624 -0.2908 -0.2496
 9054TIP3    H148653   1.902   5.937   3.816 -0.8399 -0.1388 -1.3836
 9054TIP3    H248654   2.002   6.047   3.848 -0.8827 -0.9830  1.8112
 9055TIP3   OH248655   3.559   5.838  12.064  0.0271 -0.2409 -0.1031
 9055TIP3    H148656   3.546   5.908  12.001  0.9710  2.2308  2.3567
 9055TIP3    H248657   3.646   5.802  12.042  0.9516  1.5178  0.6334
 9056TIP3   OH248658   4.641   6.061  15.446 -0.2643  0.8559 -0.3783
 9056TIP3    H148659   4.634   6.082  15.539  1.1089 -0.1122 -0.0484
 9056TIP3    H248660   4.642   5.966  15.443 -2.4458  0.8322 -1.5669
 9057TIP3   OH248661   6.251   3.471   5.359  0.2060  0.5924  0.1572
 9057TIP3    H148662   6.304   3.550   5.353 -1.2352  1.4230 -2.3350
 9057TIP3    H248663   6.230   3.450   5.268 -2.7918 -0.3597  1.0267
 9058TIP3   OH248664   6.739   4.605   1.714 -0.0874 -0.0667  0.4225
 9058TIP3    H148665   6.770   4.625   1.802 -2.8069 -0.4708  1.5131
 9058TIP3    H248666   6.731   4.690   1.671  0.3951  0.1896  0.8421
 9059TIP3   OH248667   3.364   0.838   2.939  0.1159 -0.0323 -0.7263
 9059TIP3    H148668   3.364   0.743   2.926 -0.7401  0.0889 -1.6858
 9059TIP3    H248669   3.303   0.871   2.873 -1.2501  0.9986  1.0290
 9060TIP3   OH248670   6.498   1.646  10.755 -0.2511  0.2877 -0.3333
 9060TIP3    H148671   6.456   1.687  10.831 -0.7250  0.0856 -0.4908
 9060TIP3    H248672   6.583   1.691  10.749  1.1099 -1.7959  2.1857
 9061TIP3   OH248673   4.539   0.555   4.796 -0.4019 -0.4357 -0.1330
 9061TIP3    H148674   4.482   0.536   4.722 -0.2231 -1.2096 -0.0762
 9061TIP3    H248675   4.492   0.524   4.872 -1.0704  1.3562  0.2233
 9062TIP3   OH248676   6.296   4.372   6.686 -0.2336  0.1027 -0.6140
 9062TIP3    H148677   6.244   4.452   6.696  0.0464  0.2819 -0.5846
 9062TIP3    H248678   6.368   4.398   6.629  0.4260  0.1382  0.2415
 9063TIP3   OH248679   1.072   1.325  16.000 -0.2698 -0.8966 -0.3057
 9063TIP3    H148680   1.043   1.242  16.039  0.0413 -0.5841  0.5918
 9063TIP3    H248681   1.011   1.340  15.928 -2.1804 -0.3946  1.3741
 9064TIP3   OH248682   0.291   0.700  13.192  0.1810 -0.1820  0.4568
 9064TIP3    H148683   0.367   0.703  13.135  1.2711  0.7784  1.9175
 9064TIP3    H248684   0.236   0.631  13.155  2.3476 -1.7876  0.1366
 9065TIP3   OH248685   1.513   5.794  16.743 -0.3666 -0.0830 -0.6817
 9065TIP3    H148686   1.505   5.705  16.777 -0.1470  0.6669  1.3631
 9065TIP3    H248687   1.603   5.799  16.709 -0.8692 -1.1030 -2.2409
 9066TIP3   OH248688   5.978   5.231   1.674  0.2158 -0.5229 -0.1625
 9066TIP3    H148689   6.055   5.200   1.721  1.0247  0.5182 -0.7937
 9066TIP3    H248690   5.913   5.248   1.742  1.1319  0.2955  0.5163
 9067TIP3   OH248691   5.289   2.306  12.412  0.7979 -0.3195  0.7005
 9067TIP3    H148692   5.273   2.216  12.383  2.2102 -0.2928 -0.1885
 9067TIP3    H248693   5.384   2.312  12.422  0.9499  1.8085 -1.7030
 9068TIP3   OH248694   6.088   2.112   4.929 -0.4525  0.7764  0.4449
 9068TIP3    H148695   6.137   2.153   5.001 -1.5818  0.5076  1.3880
 9068TIP3    H248696   6.154   2.065   4.878  0.5480  2.0194  0.5726
 9069TIP3   OH248697   2.415   4.855   2.684  0.0800  0.1892  0.0742
 9069TIP3    H148698   2.498   4.809   2.699  0.7875  1.7985  1.3485
 9069TIP3    H248699   2.395   4.896   2.769 -2.8817 -1.4911  0.2668
 9070TIP3   OH248700   1.642   2.428  16.767  0.3623  0.3199 -0.0497
 9070TIP3    H148701   1.589   2.358  16.806  1.6464  0.0471  1.2466
 9070TIP3    H248702   1.706   2.382  16.713  0.0680  0.5912 -0.6340
 9071TIP3   OH248703   3.745   1.555   0.985 -0.0838  0.1290  0.1315
 9071TIP3    H148704   3.737   1.560   1.080  3.0026 -1.3703  0.5309
 9071TIP3    H248705   3.806   1.624   0.961  0.2202 -0.3745 -0.5908
 9072TIP3   OH248706   2.654   2.526  16.915 -0.0342  0.3832 -0.8425
 9072TIP3    H148707   2.730   2.477  16.949 -1.0564 -0.5561  0.1227
 9072TIP3    H248708   2.668   2.616  16.945 -0.0385 -0.0899  0.5912
 9073TIP3   OH248709   3.419   3.948   2.880 -0.3074  0.5306  0.3932
 9073TIP3    H148710   3.502   3.978   2.844 -0.1586  0.1315  0.3966
 9073TIP3    H248711   3.408   3.999   2.960 -0.2949  0.9159  0.1511
 9074TIP3   OH248712   1.217   3.557  16.813 -0.3476  0.7216  0.1433
 9074TIP3    H148713   1.180   3.546  16.726  0.6381  1.2371 -0.3565
 9074TIP3    H248714   1.310   3.573  16.798  0.2845 -1.5164  1.4199
 9075TIP3   OH248715   2.796   6.359   1.697 -0.2666  0.2055 -0.1094
 9075TIP3    H148716   2.731   6.337   1.763 -1.3357 -0.2097 -1.2633
 9075TIP3    H248717   2.780   6.451   1.678 -0.1692  0.2423 -0.0119
 9076TIP3   OH248718   0.234   0.924   2.569  0.0758  0.3270  0.0139
 9076TIP3    H148719   0.159   0.979   2.548 -0.9164 -0.5436  1.1477
 9076TIP3    H248720   0.290   0.979   2.623 -0.8520  0.2845  1.0448
 9077TIP3   OH248721   0.121   4.122   4.507 -0.0691  0.3980 -0.0868
 9077TIP3    H148722   0.179   4.195   4.483  0.2523  1.2938  3.1752
 9077TIP3    H248723   0.150   4.049   4.453  1.1886  2.0300 -1.6837
 9078TIP3   OH248724   4.132   4.651   0.333 -0.2479  0.0628 -0.4947
 9078TIP3    H148725   4.226   4.652   0.349 -0.2951 -0.3869 -0.1795
 9078TIP3    H248726   4.107   4.743   0.330 -0.0788  0.1751  1.0844
 9079TIP3   OH248727   0.795   2.833  15.585 -0.5003  0.0498  0.2343
 9079TIP3    H148728   0.789   2.878  15.501 -1.9349  0.5883  0.6102
 9079TIP3    H248729   0.802   2.740  15.562  0.1445  0.2670 -0.4905
 9080TIP3   OH248730   5.475   0.976  15.173 -0.2508 -0.0422 -0.2782
 9080TIP3    H148731   5.486   1.055  15.226 -2.5418 -0.0188  0.2055
 9080TIP3    H248732   5.535   0.988  15.100  0.3516  1.5638  0.4594
 9081TIP3   OH248733   0.330   5.761  12.768 -0.3633 -0.7364  0.5330
 9081TIP3    H148734   0.337   5.787  12.860  2.2146 -0.2857  0.2274
 9081TIP3    H248735   0.298   5.671  12.772 -1.3072 -0.3746  1.8206
 9082TIP3   OH248736   3.954   4.344  15.946  0.1823 -0.1429 -0.4485
 9082TIP3    H148737   3.878   4.350  15.889 -0.7724  0.5218  0.8733
 9082TIP3    H248738   4.026   4.377  15.893 -1.0886  2.5521 -0.5785
 9083TIP3   OH248739   3.578   6.538  15.994 -0.0092  0.3713 -0.2565
 9083TIP3    H148740   3.529   6.465  15.956  2.2726 -1.1413 -0.4193
 9083TIP3    H248741   3.590   6.599  15.921  1.0741 -0.7439 -1.0375
 9084TIP3   OH248742   3.558   5.245  12.353  0.2354 -0.1080  0.0874
 9084TIP3    H148743   3.494   5.209  12.291  1.2157 -1.6256 -0.0835
 9084TIP3    H248744   3.625   5.285  12.297  0.4351 -0.2807  0.2018
 9085TIP3   OH248745   3.576   1.337  14.694 -0.3354  0.1535  0.2009
 9085TIP3    H148746   3.504   1.327  14.632  0.1009  0.5643 -0.3847
 9085TIP3    H248747   3.573   1.429  14.720  0.6405  0.4466 -0.6708
 9086TIP3   OH248748   3.805   6.218  11.936  0.1284  0.2801 -0.2138
 9086TIP3    H148749   3.738   6.223  12.004 -0.5320  0.5779 -0.8766
 9086TIP3    H248750   3.824   6.309  11.914  0.2532  0.1866 -0.5033
 9087TIP3   OH248751   3.639   0.242  15.963  0.1215 -0.5465 -0.6344
 9087TIP3    H148752   3.600   0.226  15.877  1.6981 -1.7571 -1.1530
 9087TIP3    H248753   3.692   0.321  15.950 -0.7610  0.0860 -0.3966
 9088TIP3   OH248754   4.091   2.034   0.028 -0.1985  0.2298  0.1958
 9088TIP3    H148755   4.119   1.954   0.072 -1.4399 -0.6109 -0.5181
 9088TIP3    H248756   4.131   2.105   0.079 -1.7102 -0.6885  2.7353
 9089TIP3   OH248757   3.821   2.894   3.715  0.0834 -0.1583 -0.4152
 9089TIP3    H148758   3.873   2.954   3.663  2.6438 -1.7651  0.2314
 9089TIP3    H248759   3.861   2.897   3.802 -1.9553 -0.1762  0.5645
 9090TIP3   OH248760   1.758   2.291  15.784 -0.3477  0.0621  0.4774
 9090TIP3    H148761   1.754   2.223  15.851 -3.6032  1.1996  1.5763
 9090TIP3    H248762   1.796   2.367  15.829  2.2546 -0.6424 -0.4452
 9091TIP3   OH248763   5.596   3.707  12.192 -0.5332  0.4433  1.4176
 9091TIP3    H148764   5.673   3.683  12.139 -1.2843  0.6846  0.1943
 9091TIP3    H248765   5.608   3.659  12.274  1.0590  0.6836  1.3523
 9092TIP3   OH248766   0.067   2.675  15.125 -0.7808 -0.5316 -0.1632
 9092TIP3    H148767   0.137   2.634  15.176 -0.5622 -1.1427 -0.9512
 9092TIP3    H248768   0.104   2.688  15.038 -0.8021  1.4742  0.1083
 9093TIP3   OH248769   2.994   6.747   2.790  0.5148 -0.2282 -0.3578
 9093TIP3    H148770   2.996   6.748   2.886  0.1148 -0.6635 -0.3417
 9093TIP3    H248771   3.081   6.775   2.764  1.3187 -2.1281  0.1500
 9094TIP3   OH248772   4.416   1.065  16.529 -0.3621  0.2059  0.2082
 9094TIP3    H148773   4.338   1.096  16.574  1.0791  1.4361  1.9018
 9094TIP3    H248774   4.423   1.120  16.451  1.5792  3.5559  2.6443
 9095TIP3   OH248775   0.691   5.775  15.571  0.3178 -0.4543 -0.3594
 9095TIP3    H148776   0.775   5.755  15.611  0.3228 -0.9342 -0.6079
 9095TIP3    H248777   0.706   5.857  15.522  0.4156 -0.0934  0.2763
 9096TIP3   OH248778   5.492   0.382   2.836 -0.5348 -0.6930  0.7058
 9096TIP3    H148779   5.439   0.427   2.770  0.3886  0.9852  1.0795
 9096TIP3    H248780   5.428   0.348   2.899 -1.1759  1.7490  1.4271
 9097TIP3   OH248781   4.769   5.245   0.142  0.1260  0.0071  1.0484
 9097TIP3    H148782   4.754   5.255   0.236 -0.2775  1.5135  0.8370
 9097TIP3    H248783   4.689   5.277   0.101  0.1061 -1.1096  0.1935
 9098TIP3   OH248784   0.192   5.526  14.088 -0.0765 -0.5356  0.5070
 9098TIP3    H148785   0.266   5.586  14.079 -0.3633 -0.2035  0.3401
 9098TIP3    H248786   0.118   5.574  14.050  0.1190 -1.8084 -1.5186
 9099TIP3   OH248787   2.062   2.313   4.012  0.4243  0.4649  0.0650
 9099TIP3    H148788   2.128   2.267   3.960  0.0128 -0.3581  0.2611
 9099TIP3    H248789   1.981   2.303   3.962  0.2314  0.5468  0.3631
 9100TIP3   OH248790   1.180   5.884   5.820 -0.0123 -0.4779 -0.2629
 9100TIP3    H148791   1.236   5.953   5.785 -2.6333  1.2661 -1.2612
 9100TIP3    H248792   1.227   5.850   5.896  1.2225  2.6723  0.4566
 9101TIP3   OH248793   6.426   2.384   2.402  0.2906  0.2849  0.1603
 9101TIP3    H148794   6.427   2.382   2.306 -0.5602  1.3489  0.1234
 9101TIP3    H248795   6.350   2.333   2.426  0.4198  0.1431  0.2687
 9102TIP3   OH248796   3.440   4.288  14.428  0.3153 -0.2369 -0.3320
 9102TIP3    H148797   3.345   4.297  14.439  0.5625 -0.6860  2.9616
 9102TIP3    H248798   3.467   4.365  14.379 -1.1266  2.8185  3.3631
 9103TIP3   OH248799   0.275   0.755  10.878 -0.1188  0.4419 -0.0692
 9103TIP3    H148800   0.309   0.715  10.798 -1.4384 -0.1913 -0.3404
 9103TIP3    H248801   0.210   0.692  10.910 -0.3296  1.1632  0.9503
 9104TIP3   OH248802   1.659   5.341   3.390 -0.6047  0.3073 -0.2499
 9104TIP3    H148803   1.635   5.375   3.304 -0.6729 -0.9604 -0.7513
 9104TIP3    H248804   1.663   5.246   3.377  1.8784  0.2833  0.5260
 9105TIP3   OH248805   3.901   1.131   4.987 -0.0184 -0.2469 -0.0752
 9105TIP3    H148806   3.883   1.118   4.894  1.6246  1.2509 -0.6289
 9105TIP3    H248807   3.996   1.127   4.993  0.0275  2.0300  1.1597
 9106TIP3   OH248808   6.386   0.210   4.859 -0.1532  0.0023 -0.0033
 9106TIP3    H148809   6.304   0.255   4.878 -1.2139 -2.2583  0.9100
 9106TIP3    H248810   6.419   0.183   4.945  0.6886 -0.5970 -0.5044
 9107TIP3   OH248811   5.455   4.726  13.717  0.4896 -0.3981 -0.0009
 9107TIP3    H148812   5.434   4.698  13.628  1.0323  1.2439 -0.6740
 9107TIP3    H248813   5.548   4.749  13.713  0.0450  1.5835  0.4549
 9108TIP3   OH248814   3.445   4.954  12.387  0.4444 -0.3728  0.0293
 9108TIP3    H148815   3.514   4.996  12.439  0.0269  1.9158 -1.1929
 9108TIP3    H248816   3.476   4.960  12.297 -1.4149  0.8612 -0.5501
 9109TIP3   OH248817   1.291   5.262   4.019 -0.1481  0.2573  0.2878
 9109TIP3    H148818   1.365   5.268   4.078  0.5622  1.9889 -0.7327
 9109TIP3    H248819   1.214   5.263   4.076  0.5443  1.1915  1.2183
 9110TIP3   OH248820   5.940   1.362   0.124 -0.0023  0.6266  0.8902
 9110TIP3    H148821   5.923   1.311   0.045  0.7511  1.5504  0.1207
 9110TIP3    H248822   6.036   1.364   0.130 -0.0317  1.7726  1.0228
 9111TIP3   OH248823   2.735   1.811   4.001 -0.1234 -0.8118  0.2529
 9111TIP3    H148824   2.655   1.855   4.029 -0.2526 -0.6041 -0.4367
 9111TIP3    H248825   2.796   1.824   4.073 -1.2244 -2.3814  1.5371
 9112TIP3   OH248826   0.489   4.274  13.293 -0.2598  0.7026  0.1497
 9112TIP3    H148827   0.418   4.310  13.347  0.0560  1.1685  0.2532
 9112TIP3    H248828   0.564   4.330  13.310  0.4638 -0.4758  0.9240
 9113TIP3   OH248829   5.089   0.945  13.299 -0.5169  0.2204 -0.0197
 9113TIP3    H148830   5.057   0.909  13.381 -0.2786  1.7005  0.7482
 9113TIP3    H248831   5.024   1.011  13.275  0.5982  1.4178  0.1923
 9114TIP3   OH248832   3.814   0.451  15.912 -0.1612 -0.1406 -0.2577
 9114TIP3    H148833   3.890   0.411  15.871 -0.0085  0.3556 -0.4678
 9114TIP3    H248834   3.831   0.545  15.907 -0.4988 -0.0504  0.2580
 9115TIP3   OH248835   4.467   4.235  16.428  0.0407 -0.6724 -0.0826
 9115TIP3    H148836   4.382   4.252  16.386 -0.2551 -0.4778  0.5892
 9115TIP3    H248837   4.473   4.299  16.498 -0.4648 -2.3845  1.5738
 9116TIP3   OH248838   6.271   0.824   2.903  0.2739 -0.1266  0.1890
 9116TIP3    H148839   6.205   0.842   2.836 -1.2737  1.1880  2.0035
 9116TIP3    H248840   6.231   0.758   2.959  1.1327 -0.4352  0.4533
 9117TIP3   OH248841   4.174   4.705  11.829  0.3500 -0.5090 -0.2142
 9117TIP3    H148842   4.210   4.753  11.754  0.8260 -1.6430 -0.7217
 9117TIP3    H248843   4.094   4.753  11.851  1.3225  1.1072 -0.0738
 9118TIP3   OH248844   3.885   4.671  15.628 -0.4601 -0.2739  0.0389
 9118TIP3    H148845   3.932   4.707  15.553  0.0746  0.5365  0.7517
 9118TIP3    H248846   3.919   4.582  15.637  0.3450  0.0222  0.0334
 9119TIP3   OH248847   3.443   1.832   2.786 -0.2771 -0.0651  0.4045
 9119TIP3    H148848   3.400   1.908   2.823 -0.1202  0.7711 -1.0982
 9119TIP3    H248849   3.384   1.801   2.717  0.1357 -0.6782  0.3126
 9120TIP3   OH248850   3.617   0.196   5.736  0.3955  0.1107  0.1758
 9120TIP3    H148851   3.653   0.157   5.656 -0.6629 -0.5790  0.0264
 9120TIP3    H248852   3.694   0.230   5.782  1.2193 -1.0365 -0.3035
 9121TIP3   OH248853   1.038   2.571  16.749  0.0480 -0.1944 -0.3327
 9121TIP3    H148854   1.045   2.476  16.755  0.7386 -0.1462 -0.2965
 9121TIP3    H248855   1.123   2.603  16.780 -0.2283  0.4369 -0.2237
 9122TIP3   OH248856   4.818   2.557  10.016  0.4441 -0.1102  0.4348
 9122TIP3    H148857   4.818   2.650   9.994 -0.8974  0.0053  0.8397
 9122TIP3    H248858   4.732   2.542  10.055  0.1945 -1.7680 -0.6958
 9123TIP3   OH248859   1.543   1.512  16.834  0.0089 -0.5804 -0.7821
 9123TIP3    H148860   1.529   1.583  16.772  0.5716 -0.1170 -0.3811
 9123TIP3    H248861   1.469   1.517  16.894  0.9761  0.8032  0.3181
 9124TIP3   OH248862   4.469   1.748  13.548  0.7558 -0.1868 -0.2402
 9124TIP3    H148863   4.440   1.667  13.590 -0.3007  0.0777 -0.4335
 9124TIP3    H248864   4.479   1.810  13.620  1.1315 -0.3663 -0.1391
 9125TIP3   OH248865   2.231   0.519   1.191 -0.3460  0.1519  0.1902
 9125TIP3    H148866   2.295   0.570   1.241  2.6938 -1.3996 -1.9638
 9125TIP3    H248867   2.254   0.428   1.208 -0.8559 -0.4134 -2.0283
 9126TIP3   OH248868   4.821   2.650   3.823 -0.0517  0.4535  0.2315
 9126TIP3    H148869   4.903   2.616   3.859  0.7440  3.3045  1.2533
 9126TIP3    H248870   4.841   2.670   3.732  0.1044  0.2690  0.2249
 9127TIP3   OH248871   6.272   1.796   4.106  0.0366  0.5805  0.3342
 9127TIP3    H148872   6.188   1.815   4.148 -1.2545 -1.4130 -1.2678
 9127TIP3    H248873   6.317   1.738   4.168 -1.1152 -0.9074 -0.1856
 9128TIP3   OH248874   0.703   2.114  11.710 -0.5414  0.4264  0.2011
 9128TIP3    H148875   0.784   2.069  11.736 -0.0921  0.7352 -0.6350
 9128TIP3    H248876   0.713   2.203  11.744 -1.7803 -0.2824  2.5571
 9129TIP3   OH248877   1.707   0.251  11.561  0.1073  0.0156 -0.1948
 9129TIP3    H148878   1.713   0.274  11.468  3.6486  1.2676  0.2438
 9129TIP3    H248879   1.734   0.330  11.607  0.7639 -1.3221  1.7970
 9130TIP3   OH248880   0.178   1.589  14.508 -0.3571  0.8243  0.8749
 9130TIP3    H148881   0.269   1.571  14.532 -0.7312 -1.6897  0.5898
 9130TIP3    H248882   0.182   1.666  14.451  1.6901  0.2663  0.2298
 9131TIP3   OH248883   1.255   6.673   2.293  0.1898 -0.5534  0.8769
 9131TIP3    H148884   1.339   6.685   2.249  0.0559 -0.9486  0.5050
 9131TIP3    H248885   1.277   6.659   2.385  0.2847  4.1111  1.7009
 9132TIP3   OH248886   4.621   4.948  11.686  0.8397  0.1331 -0.9350
 9132TIP3    H148887   4.683   5.018  11.666  1.0926  0.4420  0.8207
 9132TIP3    H248888   4.664   4.868  11.656  2.9854  0.1001  2.0214
 9133TIP3   OH248889   2.494   5.654  16.427  0.6587  0.5781  0.1949
 9133TIP3    H148890   2.547   5.592  16.477  1.7857  0.5273 -1.0555
 9133TIP3    H248891   2.444   5.600  16.367  0.2154  0.7380  0.4181
 9134TIP3   OH248892   0.559   5.221  15.341 -0.6887  0.1867 -0.0406
 9134TIP3    H148893   0.492   5.227  15.409 -1.4931  2.7417 -1.0276
 9134TIP3    H248894   0.510   5.201  15.261 -0.3689  2.4676 -0.8403
 9135TIP3   OH248895   5.976   6.658   5.114  0.1057  0.7761  0.1023
 9135TIP3    H148896   5.986   6.714   5.191 -0.1264  1.7300 -0.5531
 9135TIP3    H248897   5.971   6.569   5.149  0.8184  1.1356  1.1260
 9136TIP3   OH248898   3.333   4.861   0.588  0.1210  0.2524 -0.0940
 9136TIP3    H148899   3.375   4.837   0.506  2.3966  1.5426  0.6549
 9136TIP3    H248900   3.384   4.816   0.655 -0.3572  0.9923  0.7809
 9137TIP3   OH248901   1.980   4.572  11.730 -0.2603 -0.5571 -0.1426
 9137TIP3    H148902   1.936   4.509  11.672  0.7314 -1.1311 -0.2671
 9137TIP3    H248903   2.073   4.563  11.710 -0.0195  0.1911  0.6029
 9138TIP3   OH248904   4.167   1.777  14.489  0.1887 -0.2826  0.2241
 9138TIP3    H148905   4.100   1.841  14.463 -0.3149 -0.9947 -0.2674
 9138TIP3    H248906   4.245   1.829  14.504 -0.2362  0.4639 -0.1007
 9139TIP3   OH248907   6.521   3.274  14.617  0.2117 -0.2307 -0.5758
 9139TIP3    H148908   6.538   3.188  14.578  0.3702 -1.4094  1.9698
 9139TIP3    H248909   6.593   3.287  14.678 -0.8173  0.8818  0.4236
 9140TIP3   OH248910   1.468   1.315   5.321 -0.1342  0.0748  0.5052
 9140TIP3    H148911   1.397   1.278   5.372 -0.7452 -0.2385 -0.5531
 9140TIP3    H248912   1.475   1.405   5.351 -1.4801  0.3249  0.0957
 9141TIP3   OH248913   6.813   4.371   4.785 -0.3085 -0.3544  0.0936
 9141TIP3    H148914   6.762   4.296   4.756  0.1728 -1.4044  1.8589
 9141TIP3    H248915   6.779   4.391   4.872  1.7379 -0.5776  0.9733
 9142TIP3   OH248916   5.567   2.812  11.406 -0.2558  0.3164 -0.0688
 9142TIP3    H148917   5.654   2.784  11.378 -0.6589  0.0666 -1.0970
 9142TIP3    H248918   5.535   2.740  11.461 -0.5559 -0.4335 -1.2126
 9143TIP3   OH248919   0.468   5.380  13.549 -0.4191  0.3462  0.3542
 9143TIP3    H148920   0.476   5.287  13.526  1.2791  0.9182 -1.5768
 9143TIP3    H248921   0.473   5.382  13.645  1.7334 -1.4012  0.3326
 9144TIP3   OH248922   0.284   1.076   4.411 -0.0580 -0.0448 -1.0610
 9144TIP3    H148923   0.263   1.044   4.323  0.3233  0.4636 -1.3351
 9144TIP3    H248924   0.359   1.134   4.399 -0.4071  0.5359 -0.4858
 9145TIP3   OH248925   1.729   2.686  15.268 -0.1988  0.4239  0.3555
 9145TIP3    H148926   1.722   2.628  15.192  0.6656 -0.5789  1.0123
 9145TIP3    H248927   1.820   2.718  15.265 -0.4287  1.0905  0.4599
 9146TIP3   OH248928   3.352   5.055   2.204 -0.5348  0.5173 -0.1351
 9146TIP3    H148929   3.430   5.071   2.257 -0.4734  1.0388 -0.3798
 9146TIP3    H248930   3.320   4.970   2.233  0.2483  0.2055 -0.1750
 9147TIP3   OH248931   3.328   4.685  12.242  0.1360 -0.3102  0.1729
 9147TIP3    H148932   3.313   4.643  12.157 -1.3926  0.2927  0.1383
 9147TIP3    H248933   3.424   4.688  12.250  0.2947 -0.7757 -1.3173
 9148TIP3   OH248934   3.378   0.995  13.729 -0.5169  0.3128 -0.6133
 9148TIP3    H148935   3.443   1.004  13.659  0.4258 -1.9255 -0.0774
 9148TIP3    H248936   3.294   1.005  13.686  0.1054  0.5512 -1.7872
 9149TIP3   OH248937   4.574   4.891   4.311  0.4496  0.2746 -0.0719
 9149TIP3    H148938   4.538   4.957   4.253  0.3809  1.0412  0.8312
 9149TIP3    H248939   4.572   4.810   4.260 -0.5609  0.7331 -0.7649
 9150TIP3   OH248940   5.726   0.841  16.330  0.3449 -0.0051 -0.3051
 9150TIP3    H148941   5.716   0.909  16.264 -0.8137 -0.0285 -0.1588
 9150TIP3    H248942   5.646   0.846  16.383  1.1683 -0.1155  0.9742
 9151TIP3   OH248943   3.112   3.395  11.705  0.1003  0.4448  0.6940
 9151TIP3    H148944   3.074   3.452  11.772 -2.6401  0.2739 -0.6251
 9151TIP3    H248945   3.091   3.306  11.736  0.3157  0.3155  0.4624
 9152TIP3   OH248946   4.086   0.524  16.127 -0.1603 -0.1035  0.5274
 9152TIP3    H148947   4.090   0.528  16.222  2.5028  0.7486  0.4282
 9152TIP3    H248948   4.052   0.610  16.101 -1.8569 -0.6991  0.7254
 9153TIP3   OH248949   1.564   1.923   3.931 -0.1130  0.1225 -0.2701
 9153TIP3    H148950   1.566   1.905   4.025 -0.7368 -3.5698 -0.8556
 9153TIP3    H248951   1.656   1.923   3.905 -0.0393 -1.5563 -0.0693
 9154TIP3   OH248952   5.309   0.748  10.720 -0.5955 -0.7250 -0.2435
 9154TIP3    H148953   5.392   0.757  10.673 -1.3571  5.4922 -0.8335
 9154TIP3    H248954   5.248   0.715  10.654  0.0649  0.7843 -1.6773
 9155TIP3   OH248955   5.702   2.630   1.580 -0.2001  0.0984 -0.1853
 9155TIP3    H148956   5.716   2.575   1.656 -0.0954 -1.1818 -1.1180
 9155TIP3    H248957   5.608   2.623   1.561 -0.4912  1.5098  0.6345
 9156TIP3   OH248958   3.179   5.613   5.243  0.5883  0.2401  0.5594
 9156TIP3    H148959   3.254   5.598   5.186  1.0200  2.7657  0.3897
 9156TIP3    H248960   3.168   5.708   5.243 -2.6011 -0.0863  0.6102
 9157TIP3   OH248961   0.559   0.080   4.059 -0.5667 -0.3741  0.6466
 9157TIP3    H148962   0.565  -0.011   4.088  0.8452 -0.5088 -0.0246
 9157TIP3    H248963   0.635   0.092   4.002 -1.5430  0.8041 -0.4437
 9158TIP3   OH248964   5.678   1.066   6.143  0.2570 -0.3098  1.0020
 9158TIP3    H148965   5.644   1.149   6.112 -1.6866 -1.2678  0.4909
 9158TIP3    H248966   5.685   1.076   6.238 -0.8410  0.1113  1.0376
 9159TIP3   OH248967   0.394   6.343   1.430 -0.2681 -0.7743 -0.1854
 9159TIP3    H148968   0.425   6.421   1.384  2.5858 -1.7757 -0.0338
 9159TIP3    H248969   0.406   6.272   1.368 -0.2200 -1.5198  0.6700
 9160TIP3   OH248970   3.019   3.273  13.648 -0.2652 -0.2715 -0.0830
 9160TIP3    H148971   2.960   3.346  13.633  0.1720  0.6710  2.4751
 9160TIP3    H248972   2.979   3.224  13.721  0.6078 -1.2921 -0.2671
 9161TIP3   OH248973   5.390   0.571  10.350  0.4018  0.5904  0.2908
 9161TIP3    H148974   5.480   0.601  10.362  0.9056 -0.5570 -0.5592
 9161TIP3    H248975   5.372   0.519  10.428  1.0714 -0.6033 -0.3418
 9162TIP3   OH248976   2.221   2.880   1.238 -0.6041 -0.0305  0.0812
 9162TIP3    H148977   2.195   2.789   1.222 -0.0160 -0.1688 -0.1060
 9162TIP3    H248978   2.154   2.915   1.296 -0.2794 -0.8945  0.9920
 9163TIP3   OH248979   5.694   6.207   2.760 -0.4499  0.8141 -0.1043
 9163TIP3    H148980   5.757   6.278   2.770 -0.3431  0.6020  0.7807
 9163TIP3    H248981   5.615   6.238   2.804 -0.4372  0.4331  0.1927
 9164TIP3   OH248982   1.075   5.735  14.834  0.3726 -0.0029  0.1657
 9164TIP3    H148983   1.041   5.814  14.876  0.5089 -0.2555  0.7543
 9164TIP3    H248984   1.076   5.669  14.903 -0.6333 -0.7913 -0.5409
 9165TIP3   OH248985   5.701   6.057   3.149  0.3455 -0.1933 -0.0304
 9165TIP3    H148986   5.732   5.970   3.172  0.8720 -0.7025 -2.5195
 9165TIP3    H248987   5.738   6.074   3.062 -1.1315  1.8079 -0.3172
 9166TIP3   OH248988   4.754   1.131  14.125  0.1421  0.2673  0.3249
 9166TIP3    H148989   4.707   1.134  14.041 -2.1339 -1.0680  1.4849
 9166TIP3    H248990   4.688   1.157  14.189  1.4027 -0.3329  1.8794
 9167TIP3   OH248991   6.061   3.737  17.027 -0.2644  0.0519 -0.4123
 9167TIP3    H148992   6.130   3.693  16.979  1.0385  2.2471 -0.6328
 9167TIP3    H248993   6.024   3.669  17.083  1.0837 -1.5040 -1.3572
 9168TIP3   OH248994   2.577   4.917  10.863 -0.2721  0.2720  0.2512
 9168TIP3    H148995   2.507   4.851  10.872  0.0775 -0.3073 -1.2601
 9168TIP3    H248996   2.633   4.902  10.939 -0.6766 -0.6073  0.3847
 9169TIP3   OH248997   6.061   0.741   2.263  0.1185  0.0012 -0.6144
 9169TIP3    H148998   6.054   0.663   2.207 -2.1414 -0.9524  0.9155
 9169TIP3    H248999   6.046   0.814   2.203  2.8325 -0.6365 -2.1934
 9170TIP3   OH249000   5.834   4.629  15.609 -0.6731 -0.1311 -0.5354
 9170TIP3    H149001   5.841   4.685  15.686  0.9239  0.3814 -1.0207
 9170TIP3    H249002   5.808   4.689  15.539  0.0774 -0.1619 -0.8506
 9171TIP3   OH249003   2.333   6.621  11.389  0.3183 -0.0352  0.3840
 9171TIP3    H149004   2.283   6.691  11.432 -1.0065 -1.3443  1.0457
 9171TIP3    H249005   2.323   6.639  11.296 -2.3944 -0.8998  0.4657
 9172TIP3   OH249006   5.100   5.003  14.100 -0.1336  0.6303  0.3103
 9172TIP3    H149007   5.179   5.055  14.115 -0.1465  1.5742 -2.5162
 9172TIP3    H249008   5.128   4.912  14.113  0.8118  1.1129  1.7069
 9173TIP3   OH249009   5.576   0.997   0.288  0.2266  0.3453 -0.3365
 9173TIP3    H149010   5.628   0.916   0.289  0.5748  0.5330 -1.6553
 9173TIP3    H249011   5.634   1.063   0.327  1.3120  0.7263 -2.5101
 9174TIP3   OH249012   1.593   0.735  12.438 -0.3150 -0.3992  0.1173
 9174TIP3    H149013   1.541   0.747  12.518 -0.5471 -4.0313  0.5962
 9174TIP3    H249014   1.649   0.660  12.457  2.6349  1.2599 -1.7021
 9175TIP3   OH249015   1.657   0.854   5.817 -0.1873  0.1052  0.4078
 9175TIP3    H149016   1.640   0.918   5.885  0.7169  1.5560 -0.7067
 9175TIP3    H249017   1.577   0.851   5.765 -0.5760 -0.3976  1.0255
 9176TIP3   OH249018   1.497   6.711   2.892  0.9924 -0.6368 -0.5543
 9176TIP3    H149019   1.556   6.637   2.879  0.1991 -0.9340 -2.6167
 9176TIP3    H249020   1.410   6.678   2.871  0.3904  0.4282  0.1904
 9177TIP3   OH249021   2.249   3.034   3.564 -0.4515  0.5428  0.1305
 9177TIP3    H149022   2.213   3.089   3.494 -1.3461  1.5645  1.3965
 9177TIP3    H249023   2.172   2.997   3.607  0.1343 -1.6723 -0.6595
 9178TIP3   OH249024   1.901   6.327  13.848  0.5192  0.4615  0.0688
 9178TIP3    H149025   1.948   6.383  13.786  1.1490  1.1993  1.2015
 9178TIP3    H249026   1.811   6.361  13.848  0.0299 -0.7200 -1.8235
 9179TIP3   OH249027   2.469   4.787   2.083 -0.1177  0.0097 -0.0919
 9179TIP3    H149028   2.457   4.854   2.150 -3.1828 -1.0044  0.4510
 9179TIP3    H249029   2.512   4.715   2.128  2.2118  1.1621 -0.4185
 9180TIP3   OH249030   2.770   3.137   1.667  0.3636  0.4902 -0.4138
 9180TIP3    H149031   2.740   3.049   1.645 -0.3637  0.1044  1.9455
 9180TIP3    H249032   2.865   3.133   1.659  0.2416 -0.1270 -1.6178
 9181TIP3   OH249033   6.206   1.727   2.888  0.0410 -0.6521  0.5990
 9181TIP3    H149034   6.245   1.771   2.812 -0.4892 -2.3688 -0.7078
 9181TIP3    H249035   6.162   1.651   2.851 -2.6407 -0.0114  2.3058
 9182TIP3   OH249036   0.320   3.675  17.121 -0.6589  0.0872  0.7318
 9182TIP3    H149037   0.352   3.760  17.152  0.2100 -0.0612  0.2505
 9182TIP3    H249038   0.351   3.612  17.186 -0.7008  0.0446  0.7106
 9183TIP3   OH249039   6.053   2.106   4.416 -0.2633 -0.0064  0.8678
 9183TIP3    H149040   6.134   2.124   4.464  1.0578 -2.4991 -0.3130
 9183TIP3    H249041   6.043   2.181   4.358  2.3610 -0.5573 -0.4094
 9184TIP3   OH249042   0.354   6.212  12.186 -0.2726 -0.0157  0.5475
 9184TIP3    H149043   0.410   6.288  12.205  1.2780 -0.9754 -0.0835
 9184TIP3    H249044   0.379   6.147  12.251 -0.7229 -0.4264  0.3076
 9185TIP3   OH249045   2.341   1.170  12.069  0.5022 -0.4523  0.3448
 9185TIP3    H149046   2.250   1.196  12.083 -0.6071 -2.0172 -3.3701
 9185TIP3    H249047   2.391   1.229  12.125 -2.7506  0.6219  2.2775
 9186TIP3   OH249048   2.681   0.882   0.458 -0.5707 -0.2291  0.3088
 9186TIP3    H149049   2.685   0.847   0.547  0.3066 -0.8297  0.0351
 9186TIP3    H249050   2.600   0.847   0.422 -1.3506  0.6870  1.1505
 9187TIP3   OH249051   5.062   0.025   5.354 -0.4730 -0.1769 -0.3414
 9187TIP3    H149052   5.049   0.108   5.398  0.2153  0.1089 -0.6660
 9187TIP3    H249053   5.074   0.048   5.262  2.4351 -0.3747 -0.0670
 9188TIP3   OH249054   3.416   1.335   5.422 -0.4980 -0.6824  0.5934
 9188TIP3    H149055   3.390   1.403   5.483  0.3576 -0.7771  1.0757
 9188TIP3    H249056   3.341   1.276   5.416 -1.2662  0.3340  0.1225
 9189TIP3   OH249057   5.305   2.830  15.537 -0.3523  0.1963  0.5104
 9189TIP3    H149058   5.281   2.915  15.501  0.9506  1.0750  1.6689
 9189TIP3    H249059   5.399   2.838  15.556  0.5986 -2.6054 -2.4757
 9190TIP3   OH249060   4.523   0.435   4.017 -0.0818  0.0438 -0.6919
 9190TIP3    H149061   4.533   0.372   4.088  0.3471  2.6481  1.6176
 9190TIP3    H249062   4.591   0.409   3.953  0.9154 -1.0740  0.7916
 9191TIP3   OH249063   1.938   5.842  11.566 -0.0865 -0.6500  0.6804
 9191TIP3    H149064   1.946   5.793  11.484 -0.7115  0.6203 -0.1593
 9191TIP3    H249065   2.025   5.878  11.581 -0.2482  0.0766 -0.0586
 9192TIP3   OH249066   2.274   4.177   0.849 -0.3455  0.0195 -0.0262
 9192TIP3    H149067   2.203   4.143   0.795 -0.8481  1.0192 -0.0038
 9192TIP3    H249068   2.336   4.214   0.786 -0.6748  0.6998  0.0424
 9193TIP3   OH249069   5.755   2.617   3.768  0.5899 -0.3723 -0.0275
 9193TIP3    H149070   5.734   2.580   3.854 -1.2557 -0.4145 -0.4926
 9193TIP3    H249071   5.789   2.705   3.788 -0.7485 -0.0042  0.6857
 9194TIP3   OH249072   2.151   0.501  14.835 -0.1564  0.6843 -0.5652
 9194TIP3    H149073   2.197   0.499  14.919 -0.3547  0.0744 -0.4681
 9194TIP3    H249074   2.069   0.454  14.852 -0.2094  0.5841 -1.0928
 9195TIP3   OH249075   6.804   6.008  11.169 -0.4682  1.2845 -0.5427
 9195TIP3    H149076   6.802   6.047  11.082 -1.9556  0.1970 -1.0107
 9195TIP3    H249077   6.791   5.914  11.154 -0.2787  1.0347  0.8107
 9196TIP3   OH249078   0.737   2.048   4.645 -0.1006 -0.0118 -0.5488
 9196TIP3    H149079   0.803   1.980   4.656  0.4357  0.8243  1.5561
 9196TIP3    H249080   0.785   2.124   4.610 -0.7203 -0.6947 -3.0292
 9197TIP3   OH249081   5.934   5.152  11.661  0.1134 -0.5897 -0.5695
 9197TIP3    H149082   5.846   5.114  11.661  0.2132 -0.8554 -1.9221
 9197TIP3    H249083   5.921   5.245  11.644  0.0554 -0.5386 -0.2353
 9198TIP3   OH249084   6.784   6.742   3.953  0.4575 -0.6226  0.0757
 9198TIP3    H149085   6.848   6.760   3.884  0.1140  0.6820  0.0869
 9198TIP3    H249086   6.830   6.763   4.034 -0.0204  0.4510  0.0755
 9199TIP3   OH249087   4.333   3.987  15.755 -0.1181 -0.0891 -0.0626
 9199TIP3    H149088   4.335   3.900  15.715 -0.1548 -0.5118  0.8347
 9199TIP3    H249089   4.249   3.990  15.801 -0.1591  0.4556 -0.1728
 9200TIP3   OH249090   5.006   0.501  16.857 -0.5202 -0.2222  0.0351
 9200TIP3    H149091   4.940   0.477  16.792 -0.2028 -1.1305  0.0579
 9200TIP3    H249092   5.045   0.582  16.823 -0.0027 -0.9604 -1.1488
 9201TIP3   OH249093   0.136   3.248  11.272 -0.4392 -0.2292  0.0577
 9201TIP3    H149094   0.221   3.204  11.274  0.0668  0.7687  1.1849
 9201TIP3    H249095   0.158   3.341  11.261 -1.2708  0.2959  2.6566
 9202TIP3   OH249096   2.615   4.328  12.279  0.2719  0.4295  0.7423
 9202TIP3    H149097   2.563   4.278  12.216  0.1981  0.2564  0.9410
 9202TIP3    H249098   2.561   4.332  12.357  0.6378  0.0902  1.0111
 9203TIP3   OH249099   4.334   0.145  17.206  0.5286 -0.2349 -0.0608
 9203TIP3    H149100   4.426   0.119  17.209  0.3791 -1.2579 -2.9533
 9203TIP3    H249101   4.334   0.230  17.164  0.1997  0.0882  0.5901
 9204TIP3   OH249102   4.746   2.137   5.481  0.4558  0.2851 -0.4762
 9204TIP3    H149103   4.689   2.167   5.551  1.5738  1.2072  0.0399
 9204TIP3    H249104   4.754   2.213   5.422  1.0806  0.1296 -0.5930
 9205TIP3   OH249105   3.559   4.564   4.937  0.3375 -0.1645 -0.7259
 9205TIP3    H149106   3.608   4.490   4.903  1.0358  0.2745 -0.6928
 9205TIP3    H249107   3.559   4.551   5.032 -0.6068 -0.7727 -0.8032
 9206TIP3   OH249108   5.016   5.567  17.292 -0.1207 -0.0674  0.7381
 9206TIP3    H149109   5.101   5.585  17.253  0.0727 -1.2943  0.5801
 9206TIP3    H249110   4.955   5.626  17.247  0.5379  0.3663  0.4188
 9207TIP3   OH249111   2.633   5.358  16.847  0.2830  0.3761 -0.6431
 9207TIP3    H149112   2.595   5.283  16.893 -1.2479  3.3247  3.2413
 9207TIP3    H249113   2.725   5.358  16.874 -0.3612  1.4584  1.6780
 9208TIP3   OH249114   6.304   6.762  15.418 -0.1935 -1.0755  0.1917
 9208TIP3    H149115   6.397   6.758  15.393 -0.0843 -1.9372  0.7226
 9208TIP3    H249116   6.278   6.852  15.399  1.2366 -0.3134  1.7637
 9209TIP3   OH249117   0.345   2.852  12.193 -0.2044 -0.1936 -0.0026
 9209TIP3    H149118   0.323   2.860  12.100  0.3481  1.2364 -0.0249
 9209TIP3    H249119   0.437   2.878  12.198 -0.2058 -0.3491  0.9265
 9210TIP3   OH249120   5.654   1.764  10.686  0.2967  0.5028 -0.4299
 9210TIP3    H149121   5.724   1.825  10.662  0.7356  0.0296 -0.3667
 9210TIP3    H249122   5.700   1.681  10.704 -0.4183 -0.2656 -2.0108
 9211TIP3   OH249123   3.107   0.351   4.936  0.3976  0.1470  0.5228
 9211TIP3    H149124   3.168   0.375   5.006 -0.1446  1.4904  0.5622
 9211TIP3    H249125   3.062   0.274   4.968  1.4661 -0.3381  0.8647
 9212TIP3   OH249126   6.534   1.733  16.990 -0.0516 -0.1337  0.6180
 9212TIP3    H149127   6.487   1.668  17.042  1.5454 -1.3917  0.5447
 9212TIP3    H249128   6.547   1.691  16.905 -0.9268  1.1430 -0.1614
 9213TIP3   OH249129   5.718   2.667  13.293 -0.8107 -0.3624  0.1369
 9213TIP3    H149130   5.746   2.726  13.223  0.3360 -2.7501 -1.4741
 9213TIP3    H249131   5.779   2.684  13.365 -0.4895  0.3818 -0.3037
 9214TIP3   OH249132   2.077   5.302   0.851  0.0616 -0.0536 -0.2465
 9214TIP3    H149133   2.125   5.385   0.848  0.4540 -0.2514  0.4051
 9214TIP3    H249134   2.129   5.247   0.910 -0.6684 -0.4565  0.0196
 9215TIP3   OH249135   2.136   2.620   1.207 -0.3792  0.2743  0.4182
 9215TIP3    H149136   2.051   2.647   1.172 -0.8328  0.8213  1.9141
 9215TIP3    H249137   2.128   2.526   1.222 -1.2397  0.5851  1.9673
 9216TIP3   OH249138   1.218   1.828   2.456 -0.1014  0.3490 -0.0094
 9216TIP3    H149139   1.213   1.811   2.362  2.2586  1.1382 -0.3249
 9216TIP3    H249140   1.128   1.843   2.483 -1.0471 -1.9187 -1.7421
 9217TIP3   OH249141   2.546   3.068  13.881  0.6333 -0.1119 -0.1564
 9217TIP3    H149142   2.496   3.150  13.887  0.9014  0.2233 -2.1884
 9217TIP3    H249143   2.578   3.053  13.970  0.1080  1.6864  0.3631
 9218TIP3   OH249144   3.890   3.004   1.367  0.4617  0.3605 -0.8195
 9218TIP3    H149145   3.819   3.061   1.395  0.8866  0.8655 -0.7534
 9218TIP3    H249146   3.970   3.054   1.387  0.7866  0.5470 -2.5100
 9219TIP3   OH249147   2.079   4.823  16.390  0.4688  0.9659  0.1216
 9219TIP3    H149148   2.148   4.791  16.332  0.2853  0.8009 -0.0066
 9219TIP3    H249149   2.111   4.804  16.479 -0.8088 -2.0338 -0.0113
 9220TIP3   OH249150   5.223   6.114   5.980  0.1942  0.1619  0.0480
 9220TIP3    H149151   5.216   6.022   5.954  2.0884  0.1647 -0.6046
 9220TIP3    H249152   5.133   6.142   5.998 -0.2542 -2.2505  1.8054
 9221TIP3   OH249153   2.220   5.771   6.676  0.8127 -0.2512  0.4295
 9221TIP3    H149154   2.164   5.844   6.702 -0.9753 -1.9831  1.6188
 9221TIP3    H249155   2.169   5.725   6.609  0.6336 -1.9890  1.7107
 9222TIP3   OH249156   2.975   5.157  14.276  0.4903 -0.0528 -0.5047
 9222TIP3    H149157   2.895   5.182  14.230  1.2899 -0.9868 -2.4953
 9222TIP3    H249158   3.028   5.237  14.278  0.2090  0.1394 -0.7089
 9223TIP3   OH249159   1.848   5.461   1.897  0.5342  0.1883 -0.2553
 9223TIP3    H149160   1.810   5.416   1.821  0.0051 -2.5016  1.5213
 9223TIP3    H249161   1.937   5.484   1.870 -0.0877  0.4501 -2.1229
 9224TIP3   OH249162   6.328   1.430   2.241 -0.1957  0.0446 -0.5966
 9224TIP3    H149163   6.269   1.380   2.297  1.5197 -2.4693 -0.9854
 9224TIP3    H249164   6.358   1.502   2.296  0.4214 -1.6241  1.2632
 9225TIP3   OH249165   1.233   1.270   6.344  0.7384 -0.1843  0.0884
 9225TIP3    H149166   1.242   1.182   6.382 -2.0056 -0.9253 -0.8328
 9225TIP3    H249167   1.221   1.328   6.419 -0.9965 -1.1113  0.5363
 9226TIP3   OH249168   6.646   2.203   1.621 -0.1911  0.2387 -0.1144
 9226TIP3    H149169   6.610   2.212   1.533 -0.3550 -0.9220 -0.1698
 9226TIP3    H249170   6.723   2.148   1.610 -0.7550 -0.7007  0.6021
 9227TIP3   OH249171   5.357   6.468   1.014  0.0041 -0.1220 -0.1292
 9227TIP3    H149172   5.450   6.487   1.029 -0.1127 -0.7617  1.5598
 9227TIP3    H249173   5.325   6.543   0.965  0.7150  1.6084  1.9797
 9228TIP3   OH249174   0.989   6.285   2.242 -0.2705 -0.0254  0.0750
 9228TIP3    H149175   0.895   6.304   2.230 -0.0803  0.3485 -0.8709
 9228TIP3    H249176   0.996   6.191   2.225 -0.4092  0.0246 -0.2738
 9229TIP3   OH249177   1.996   1.083  11.412 -0.1768  0.4467  0.0917
 9229TIP3    H149178   1.997   1.115  11.322 -0.3747 -1.6749 -0.6935
 9229TIP3    H249179   2.010   0.989  11.404  0.0973  0.2759  2.3088
 9230TIP3   OH249180   0.153   4.383  11.809 -0.0571 -0.5558  0.3901
 9230TIP3    H149181   0.101   4.328  11.751 -0.6622 -1.1366  1.4489
 9230TIP3    H249182   0.239   4.342  11.812 -0.2381 -0.9370  0.4533
 9231TIP3   OH249183   1.960   0.342   4.692 -0.0158  0.1413  0.1276
 9231TIP3    H149184   1.898   0.346   4.619  0.4050  0.1305 -0.2294
 9231TIP3    H249185   2.013   0.420   4.683  0.4178 -0.1573  0.0840
 9232TIP3   OH249186   4.545   5.704   3.411 -0.2280  0.5193 -0.4148
 9232TIP3    H149187   4.505   5.617   3.408 -0.5285  0.6895 -1.2956
 9232TIP3    H249188   4.490   5.754   3.471  0.0420  0.0547  0.2244
 9233TIP3   OH249189   4.049   3.724  11.731 -0.0591  0.1619  0.3751
 9233TIP3    H149190   4.078   3.793  11.673 -0.1910  0.0162  0.1356
 9233TIP3    H249191   3.957   3.742  11.748 -0.4324 -0.6753 -0.7177
 9234TIP3   OH249192   2.441   3.753  14.814  0.7215  0.3979 -0.4911
 9234TIP3    H149193   2.384   3.676  14.814 -0.1348  1.0086  2.0360
 9234TIP3    H249194   2.493   3.743  14.734 -0.3774 -2.0465 -0.9611
 9235TIP3   OH249195   3.702   0.512   3.928  0.7283  0.6928  0.4471
 9235TIP3    H149196   3.688   0.606   3.942  1.3269  0.8307  0.1009
 9235TIP3    H249197   3.737   0.481   4.011 -0.3866  0.5876  0.8910
 9236TIP3   OH249198   5.456   0.211  16.156 -0.2624 -0.3411 -1.0288
 9236TIP3    H149199   5.476   0.119  16.175 -0.3160 -0.3632 -1.0813
 9236TIP3    H249200   5.540   0.255  16.168 -0.1796 -0.4373 -1.2511
 9237TIP3   OH249201   4.195   2.211  15.000  0.3570 -0.2517 -0.2526
 9237TIP3    H149202   4.180   2.290  15.052  1.5303 -0.0098 -0.2657
 9237TIP3    H249203   4.257   2.160  15.053 -1.1227 -1.5996  0.1970
 9238TIP3   OH249204   6.004   3.524  15.205 -0.1142 -0.1321 -0.1360
 9238TIP3    H149205   5.977   3.545  15.295 -0.8191  0.8356 -0.5645
 9238TIP3    H249206   5.975   3.434  15.192 -0.1556 -0.2224  0.5598
 9239TIP3   OH249207   5.955   6.519   1.053 -0.2400 -0.2101  0.9282
 9239TIP3    H149208   5.937   6.489   0.964  0.4481  0.1242  0.6701
 9239TIP3    H249209   6.049   6.537   1.054 -0.8409  3.1940  0.6686
 9240TIP3   OH249210   1.200   3.474  11.522 -0.0564 -0.1649 -0.1750
 9240TIP3    H149211   1.199   3.564  11.555  1.3344 -0.1517 -0.1762
 9240TIP3    H249212   1.248   3.479  11.440  0.9639 -1.1061  0.3639
 9241TIP3   OH249213   0.371   4.277  13.053  0.1082  0.5033 -0.0798
 9241TIP3    H149214   0.293   4.234  13.087 -0.2669  1.6886  0.5758
 9241TIP3    H249215   0.441   4.255  13.115  0.6640 -1.7890 -1.4545
 9242TIP3   OH249216   4.523   4.610   5.386  0.3127  0.1111  0.1078
 9242TIP3    H149217   4.574   4.596   5.306  1.5361 -0.1789  0.9288
 9242TIP3    H249218   4.588   4.620   5.455 -0.7318  0.5902  1.0409
 9243TIP3   OH249219   1.022   0.769  15.992 -0.2953  0.3911  0.3832
 9243TIP3    H149220   1.097   0.775  15.933 -0.2266 -1.0918  0.3026
 9243TIP3    H249221   0.947   0.758  15.934 -0.5086  1.2108  0.4932
 9244TIP3   OH249222   2.486   4.693   2.891  0.1681 -0.2071  0.1375
 9244TIP3    H149223   2.399   4.730   2.904 -0.3070 -1.1205 -0.4098
 9244TIP3    H249224   2.473   4.621   2.829  1.0149 -1.5532  1.4979
 9245TIP3   OH249225   2.537   0.348   4.188 -0.3304  0.6407  0.0622
 9245TIP3    H149226   2.617   0.356   4.239 -0.7364  0.1590  0.7861
 9245TIP3    H249227   2.534   0.427   4.134  0.6432  0.6420  0.0106
 9246TIP3   OH249228   4.810   3.109  11.049  0.3324  0.5022 -0.2434
 9246TIP3    H149229   4.897   3.071  11.061  0.0406  0.4917  2.1184
 9246TIP3    H249230   4.809   3.140  10.958  2.7214  0.3346 -0.3531
 9247TIP3   OH249231   3.327   5.540   0.977 -0.1999 -0.1493 -0.2891
 9247TIP3    H149232   3.358   5.450   0.982  2.2222  0.6506 -0.0267
 9247TIP3    H249233   3.325   5.560   0.884 -0.7200 -0.4536 -0.3465
 9248TIP3   OH249234   6.740   0.758   6.482  0.0694 -0.0819  0.0004
 9248TIP3    H149235   6.696   0.838   6.454 -0.5683  0.0186  1.2694
 9248TIP3    H249236   6.789   0.730   6.405 -0.3114  1.1078 -0.6912
 9249TIP3   OH249237   0.913   0.824   4.901 -0.2867 -0.1444  0.2756
 9249TIP3    H149238   1.006   0.803   4.892 -0.2754  0.3423 -0.7571
 9249TIP3    H249239   0.879   0.821   4.812 -0.6062  2.7269  0.2557
 9250TIP3   OH249240   2.189   3.441  14.203  0.2077 -0.2675  0.5104
 9250TIP3    H149241   2.143   3.416  14.283 -0.4952  0.5943  0.3906
 9250TIP3    H249242   2.269   3.483  14.234 -0.3300  0.5729  0.7850
 9251TIP3   OH249243   1.945   6.409   2.745  0.0643 -0.2251 -0.2863
 9251TIP3    H149244   1.931   6.314   2.744 -0.7950 -0.1005 -0.8477
 9251TIP3    H249245   2.039   6.419   2.759  0.0591 -1.1458  0.5374
 9252TIP3   OH249246   1.343   4.937   2.123 -0.4606 -0.0195  0.2234
 9252TIP3    H149247   1.396   4.888   2.187  1.2158 -0.2705 -1.3113
 9252TIP3    H249248   1.381   5.025   2.123 -2.7948  1.0501  2.1972
 9253TIP3   OH249249   3.252   4.986   5.230 -0.1086  0.0306  0.4163
 9253TIP3    H149250   3.308   5.027   5.296 -0.9593  0.6232  0.7761
 9253TIP3    H249251   3.183   4.944   5.280 -0.7960  0.5392 -0.0928
 9254TIP3   OH249252   1.486   3.482   2.929  0.1844  0.1184 -0.2137
 9254TIP3    H149253   1.529   3.493   2.844  0.7218 -1.6648 -0.1920
 9254TIP3    H249254   1.555   3.448   2.986 -0.3563  0.6413  0.7598
 9255TIP3   OH249255   2.056   0.019  16.858  0.6950 -0.3663 -0.5051
 9255TIP3    H149256   2.092   0.108  16.870  1.0678 -0.7054  1.0994
 9255TIP3    H249257   2.023  -0.005  16.945  1.7156 -2.2770 -0.6139
 9256TIP3   OH249258   0.375   4.525  15.148  0.1111  0.0046 -0.0779
 9256TIP3    H149259   0.288   4.487  15.136  0.1205 -1.0686  2.8533
 9256TIP3    H249260   0.359   4.616  15.172 -0.5352 -1.2295  4.8185
 9257TIP3   OH249261   2.256   6.691   2.196  0.0949 -0.2619 -0.0828
 9257TIP3    H149262   2.246   6.611   2.145  2.7384 -1.1801  0.7831
 9257TIP3    H249263   2.183   6.746   2.168 -0.4901 -2.0929 -2.3030
 9258TIP3   OH249264   0.664   2.540   3.143 -0.3612  0.0927  0.3126
 9258TIP3    H149265   0.757   2.554   3.158 -0.6932  0.6585  1.9622
 9258TIP3    H249266   0.631   2.503   3.226 -1.3364 -1.4213 -0.7216
 9259TIP3   OH249267   1.847   0.659  17.183  0.2690 -0.5926  0.4760
 9259TIP3    H149268   1.787   0.584  17.180  1.5499 -1.7558  2.4541
 9259TIP3    H249269   1.934   0.619  17.191  0.9765  1.1137  1.4412
 9260TIP3   OH249270   2.097   1.922   4.098 -0.2490  0.4965  0.6678
 9260TIP3    H149271   2.172   1.871   4.129 -0.9692 -0.3407  1.0577
 9260TIP3    H249272   2.134   2.006   4.071  0.5410  0.8579  2.8170
 9261TIP3   OH249273   2.387   2.749  15.404  0.0494  0.0710  0.4825
 9261TIP3    H149274   2.394   2.754  15.309  0.3923  1.5921  0.5817
 9261TIP3    H249275   2.409   2.658  15.424  0.4386 -0.1452 -0.8476
 9262TIP3   OH249276   6.090   5.402  13.100  0.1429 -0.0159 -0.0156
 9262TIP3    H149277   6.161   5.341  13.122 -0.3497 -0.9794 -1.0218
 9262TIP3    H249278   6.132   5.488  13.099  1.2172 -0.5318 -0.1687
 9263TIP3   OH249279   1.890   0.589  11.250 -0.1775 -0.0528 -0.1957
 9263TIP3    H149280   1.844   0.654  11.199 -1.3012 -1.3217 -0.8077
 9263TIP3    H249281   1.882   0.508  11.201  2.3104 -0.4232 -0.0956
 9264TIP3   OH249282   1.356   1.533  17.036 -0.5912  0.2142  0.7718
 9264TIP3    H149283   1.271   1.490  17.034  0.5007 -2.0247  0.5866
 9264TIP3    H249284   1.348   1.601  17.103 -2.1081 -0.8216  1.6529
 9265TIP3   OH249285   4.164   1.732   3.091  0.2216  0.0692 -0.4766
 9265TIP3    H149286   4.149   1.805   3.031  0.2923  0.6379  0.1927
 9265TIP3    H249287   4.077   1.713   3.128  0.4229  0.6596  0.3103
 9266TIP3   OH249288   5.316   1.724  12.614 -0.4608 -0.4141 -0.0299
 9266TIP3    H149289   5.235   1.705  12.662 -0.7585 -0.7744 -0.6787
 9266TIP3    H249290   5.340   1.641  12.573 -0.1049 -0.1469 -0.3630
 9267TIP3   OH249291   2.592   2.693   3.899 -0.0323 -0.2746 -0.0577
 9267TIP3    H149292   2.584   2.649   3.814 -3.1366  0.2756 -0.1228
 9267TIP3    H249293   2.583   2.623   3.964 -0.1997 -0.3601 -0.1739
 9268TIP3   OH249294   0.551   5.480   2.356 -0.3763  1.2572 -0.2039
 9268TIP3    H149295   0.609   5.478   2.432  0.1942  1.2428 -0.6416
 9268TIP3    H249296   0.531   5.388   2.339  0.4001  1.1852 -0.7607
 9269TIP3   OH249297   0.064   0.080   0.985  0.3272 -0.0442  0.4953
 9269TIP3    H149298  -0.022   0.100   0.947  1.2465  1.1535 -1.0010
 9269TIP3    H249299   0.063   0.123   1.070 -1.3835 -1.9200  1.4595
 9270TIP3   OH249300   6.653   2.017  12.548 -0.1894 -0.3176  0.7505
 9270TIP3    H149301   6.666   2.035  12.641  0.0318 -1.3823  0.9375
 9270TIP3    H249302   6.610   1.932  12.546 -0.5628 -0.1155 -0.1148
 9271TIP3   OH249303   6.788   4.004  11.517  0.0579  0.6721  0.0906
 9271TIP3    H149304   6.793   4.046  11.431  0.4293  0.1591 -0.1429
 9271TIP3    H249305   6.878   3.977  11.535  0.4902  3.1433  1.8354
 9272TIP3   OH249306   3.410   5.153   1.935  0.2777 -0.6299  0.0653
 9272TIP3    H149307   3.414   5.140   2.029 -0.0736 -0.4598  0.1039
 9272TIP3    H249308   3.324   5.119   1.909  0.3922 -0.7225 -0.2009
 9273TIP3   OH249309   1.012   3.493  14.143 -0.6307 -0.3446 -0.1625
 9273TIP3    H149310   1.030   3.414  14.093 -0.5504  0.0325 -0.7255
 9273TIP3    H249311   0.925   3.478  14.181 -1.1544 -0.1824 -1.2893
 9274TIP3   OH249312   4.056   6.705  11.611 -0.4323 -0.1324 -0.4553
 9274TIP3    H149313   4.040   6.640  11.543 -0.7028 -0.1246 -0.4030
 9274TIP3    H249314   4.023   6.787  11.573  2.5448  0.5488 -1.6580
 9275TIP3   OH249315   2.914   4.438  12.985  0.2206  0.0477 -0.1076
 9275TIP3    H149316   3.010   4.444  12.989  0.3362  0.8277 -3.0571
 9275TIP3    H249317   2.897   4.381  12.910 -1.6460 -0.8519  0.9753
 9276TIP3   OH249318   3.756   6.248   5.244 -0.1029  0.5072  0.9508
 9276TIP3    H149319   3.812   6.323   5.264  0.7211  1.0605 -2.9375
 9276TIP3    H249320   3.815   6.173   5.245 -0.2176  0.4256  1.4231
 9277TIP3   OH249321   2.897   1.849   3.501 -0.0971  0.1264 -0.1174
 9277TIP3    H149322   2.824   1.851   3.564 -0.6238  0.1838 -0.7175
 9277TIP3    H249323   2.940   1.765   3.519 -1.4904 -0.8213 -1.0425
 9278TIP3   OH249324   0.521   0.893   0.119 -0.2849 -0.1709  0.4395
 9278TIP3    H149325   0.505   0.867   0.210  2.7191 -1.8745  0.5702
 9278TIP3    H249326   0.561   0.815   0.079 -0.3719  0.9785 -1.9838
 9279TIP3   OH249327   4.736   4.059  16.035 -0.2447 -1.2331  0.3286
 9279TIP3    H149328   4.778   3.977  16.059  0.1650 -0.9363  0.6138
 9279TIP3    H249329   4.760   4.120  16.104  1.0415 -0.3496 -0.8923
 9280TIP3   OH249330   2.959   0.913  16.779 -0.7674  0.2318 -0.3053
 9280TIP3    H149331   2.992   0.988  16.829 -1.0836 -0.0694  0.3619
 9280TIP3    H249332   2.905   0.952  16.710 -0.2177  0.6562 -0.5060
 9281TIP3   OH249333   1.460   3.980   4.812 -0.0207  0.8689 -0.1560
 9281TIP3    H149334   1.374   3.964   4.774  0.1977  0.7360 -0.5933
 9281TIP3    H249335   1.498   3.893   4.822  0.6151  1.0097 -1.2585
 9282TIP3   OH249336   2.491   6.698  16.070  0.0210  0.1242  0.2372
 9282TIP3    H149337   2.526   6.711  16.158  0.4653  0.4295  0.0140
 9282TIP3    H249338   2.398   6.720  16.078 -0.2230 -1.0660  0.9138
 9283TIP3   OH249339   0.610   1.021   2.893  0.2222 -0.1035 -0.6100
 9283TIP3    H149340   0.589   1.104   2.936 -1.8129  0.3920 -2.4667
 9283TIP3    H249341   0.607   0.956   2.962  0.1789  1.1162  0.5615
 9284TIP3   OH249342   2.887   4.278   5.154 -0.1213  0.7657 -0.1973
 9284TIP3    H149343   2.882   4.183   5.156  0.7844  0.6586 -2.0696
 9284TIP3    H249344   2.928   4.302   5.237  0.9483 -0.5821 -0.3214
 9285TIP3   OH249345   4.876   3.873   6.149  0.4011 -0.4014  0.0416
 9285TIP3    H149346   4.818   3.860   6.224  1.2104 -1.2517  0.5396
 9285TIP3    H249347   4.826   3.926   6.088  0.5796  2.3408  2.1891
 9286TIP3   OH249348   2.845   3.384   0.385 -0.5934  0.1832 -0.1858
 9286TIP3    H149349   2.864   3.477   0.369 -0.7994  0.1861 -0.4276
 9286TIP3    H249350   2.765   3.384   0.437 -0.3598  0.1499  0.1787
 9287TIP3   OH249351   1.886   5.022  11.797  0.3828 -0.4120 -0.1454
 9287TIP3    H149352   1.939   4.952  11.836 -0.7723 -0.8032  0.7519
 9287TIP3    H249353   1.942   5.059  11.729  1.1792 -1.9092 -0.3270
 9288TIP3   OH249354   5.567   3.833   2.979  0.0771 -0.0952 -0.2180
 9288TIP3    H149355   5.482   3.864   3.011 -0.1952 -0.7915 -0.2485
 9288TIP3    H249356   5.625   3.840   3.054  0.4461  2.0446 -0.6644
 9289TIP3   OH249357   1.762   3.255   3.767 -0.4227  0.0563 -0.9827
 9289TIP3    H149358   1.717   3.334   3.796 -0.3521  0.2867 -1.4934
 9289TIP3    H249359   1.769   3.201   3.846  0.7561  1.1507 -0.3139
 9290TIP3   OH249360   4.906   0.747   5.953  0.2893 -0.5206  0.0697
 9290TIP3    H149361   4.884   0.716   6.041  1.5440  2.5917  1.5540
 9290TIP3    H249362   4.938   0.669   5.908  1.1760 -1.8757  2.8856
 9291TIP3   OH249363   4.717   2.442   4.146 -0.3027  0.0168  0.0459
 9291TIP3    H149364   4.678   2.465   4.062  1.1059  2.8723  0.1152
 9291TIP3    H249365   4.658   2.479   4.211 -0.6102 -0.9003  0.2999
 9292TIP3   OH249366   1.709   1.268   2.956  0.1737  0.1506  0.4854
 9292TIP3    H149367   1.617   1.274   2.982 -0.1216 -1.5771 -0.0892
 9292TIP3    H249368   1.716   1.321   2.877 -0.5134 -0.3207  0.1023
 9293TIP3   OH249369   0.008   4.818   2.807  0.2750 -0.0949  0.7653
 9293TIP3    H149370  -0.075   4.859   2.830  1.2732  1.7785  1.1061
 9293TIP3    H249371   0.045   4.789   2.890 -0.1819 -1.2687  0.5787
 9294TIP3   OH249372   4.784   2.315   1.253 -0.1875  0.6275 -0.3737
 9294TIP3    H149373   4.822   2.366   1.181  1.8046 -1.5658 -0.9132
 9294TIP3    H249374   4.820   2.227   1.242 -1.9222 -0.3917  1.7881
 9295TIP3   OH249375   1.530   6.029   3.176  0.4476 -0.1891 -0.3700
 9295TIP3    H149376   1.563   6.013   3.088  0.1199 -0.7369 -0.3937
 9295TIP3    H249377   1.521   6.125   3.181  0.4404 -0.1597 -0.9403
 9296TIP3   OH249378   1.676   4.370  12.620  0.7338 -0.3105  0.0246
 9296TIP3    H149379   1.604   4.317  12.655  2.4925 -2.6601  0.2380
 9296TIP3    H249380   1.698   4.431  12.691 -0.0966 -0.5645  0.5079
 9297TIP3   OH249381   5.809   6.310  15.362 -0.1572 -0.1080 -0.1157
 9297TIP3    H149382   5.745   6.245  15.393 -1.7691 -0.0174 -3.0126
 9297TIP3    H249383   5.755   6.379  15.323  1.6253  2.0006  1.0852
 9298TIP3   OH249384   0.238   0.245  16.342  0.5437  0.2448  0.3478
 9298TIP3    H149385   0.157   0.283  16.307  0.9066  0.6947  0.0022
 9298TIP3    H249386   0.214   0.213  16.429 -0.4206 -1.0668 -0.3750
 9299TIP3   OH249387   2.513   4.784   4.879 -0.0923 -0.7883 -0.3874
 9299TIP3    H149388   2.575   4.714   4.857  1.4059  0.3260  0.2338
 9299TIP3    H249389   2.565   4.864   4.879 -1.0868 -0.0792  2.1523
 9300TIP3   OH249390   4.970   1.237   4.614  0.3894 -0.4804 -0.1064
 9300TIP3    H149391   4.888   1.265   4.574  0.8579  1.8484  0.4753
 9300TIP3    H249392   5.031   1.231   4.541  0.7350  1.8365 -0.0453
 9301TIP3   OH249393   0.801   2.614  12.316 -0.7451  0.0122  0.3648
 9301TIP3    H149394   0.782   2.521  12.327  0.7701 -0.1900  1.4257
 9301TIP3    H249395   0.744   2.659  12.378 -1.2894 -0.2232  0.0335
 9302TIP3   OH249396   5.814   1.450   2.719  0.3960 -0.3670  0.4884
 9302TIP3    H149397   5.790   1.387   2.652  0.0431  1.3906 -1.0950
 9302TIP3    H249398   5.803   1.403   2.802  0.3760 -2.4176 -0.6532
 9303TIP3   OH249399   3.507   3.284  14.397 -0.5515  0.3383  0.4340
 9303TIP3    H149400   3.456   3.316  14.472 -1.6963 -1.2328  0.3656
 9303TIP3    H249401   3.452   3.305  14.321 -1.2477 -1.5834  0.3784
 9304TIP3   OH249402   3.857   0.593   5.801 -0.4176  0.2961 -0.5674
 9304TIP3    H149403   3.854   0.683   5.768 -1.4257 -0.0272 -1.3737
 9304TIP3    H249404   3.808   0.542   5.737 -0.1670 -0.7759  0.0794
 9305TIP3   OH249405   6.413   6.163  13.538 -0.2722 -0.6711  0.5191
 9305TIP3    H149406   6.423   6.134  13.447 -2.5194  0.1899 -0.0203
 9305TIP3    H249407   6.407   6.258  13.533  1.4131 -0.4660  1.7706
 9306TIP3   OH249408   4.417   3.424  11.260  0.7284  0.2893  0.2321
 9306TIP3    H149409   4.329   3.415  11.296  0.2273  2.9219 -0.2323
 9306TIP3    H249410   4.439   3.337  11.228 -1.6371 -0.4414  0.5086
 9307TIP3   OH249411   0.743   2.763  14.492 -0.4737 -0.3573  0.1488
 9307TIP3    H149412   0.685   2.687  14.496 -0.3405 -0.6977 -3.4994
 9307TIP3    H249413   0.827   2.729  14.524 -1.2963 -0.7759  1.9682
 9308TIP3   OH249414   0.606   2.671  10.702 -0.3454  0.0614 -0.1752
 9308TIP3    H149415   0.600   2.588  10.656  0.4876  0.5454 -1.1584
 9308TIP3    H249416   0.515   2.693  10.723 -0.6430 -0.6233 -0.7436
 9309TIP3   OH249417   6.709   0.607  13.720 -0.2614 -0.0812  0.3077
 9309TIP3    H149418   6.716   0.519  13.682  1.0879  0.2187 -0.1807
 9309TIP3    H249419   6.639   0.600  13.785 -1.6452 -0.9819 -1.2109
 9310TIP3   OH249420   3.507   1.991  12.868 -0.1983  0.1702 -0.3165
 9310TIP3    H149421   3.504   2.059  12.800 -2.2231 -0.0023 -0.4276
 9310TIP3    H249422   3.600   1.970  12.877  0.1653  0.6125 -2.6451
 9311TIP3   OH249423   5.449   0.959  14.761  0.0838 -0.5633 -0.6143
 9311TIP3    H149424   5.483   1.016  14.830 -0.9069 -1.2857  0.5060
 9311TIP3    H249425   5.451   1.012  14.682  0.1163  0.6867  0.2167
 9312TIP3   OH249426   6.489   6.006  16.915 -0.7817  0.1125 -0.3376
 9312TIP3    H149427   6.410   5.977  16.961 -0.8680  0.6366 -0.1481
 9312TIP3    H249428   6.457   6.040  16.832 -0.8316  0.9399  0.0123
 9313TIP3   OH249429   1.733   5.228   5.799  0.2754 -0.0217 -0.7252
 9313TIP3    H149430   1.689   5.288   5.740  1.6299  0.2878 -1.4494
 9313TIP3    H249431   1.822   5.262   5.806  0.4084 -0.6130  0.7164
 9314TIP3   OH249432   3.325   0.772  12.355  0.6342  0.1502  0.2473
 9314TIP3    H149433   3.261   0.808  12.417  0.0424  0.2067 -0.3828
 9314TIP3    H249434   3.273   0.713  12.300  0.8905  1.0820 -1.0163
 9315TIP3   OH249435   0.533   2.931   4.840 -0.0843 -0.0771  0.2137
 9315TIP3    H149436   0.437   2.930   4.838 -0.1081  1.3080 -2.2764
 9315TIP3    H249437   0.556   2.880   4.917 -2.8202 -0.7691  0.6381
 9316TIP3   OH249438   3.558   0.878  16.873 -0.0001  0.2523  0.0540
 9316TIP3    H149439   3.600   0.856  16.790 -0.8534  2.2250 -0.9489
 9316TIP3    H249440   3.524   0.967  16.860 -0.4406  0.4790  2.4054
 9317TIP3   OH249441   6.778   3.118   4.442 -0.3215 -0.1199  0.2341
 9317TIP3    H149442   6.777   3.170   4.522 -1.4908 -1.5528  1.1694
 9317TIP3    H249443   6.717   3.046   4.459  2.3406 -2.6151 -0.5165
 9318TIP3   OH249444   5.858   4.847   5.556 -0.1832  1.0192 -0.3120
 9318TIP3    H149445   5.840   4.864   5.649 -0.6345  0.1519 -0.2370
 9318TIP3    H249446   5.934   4.789   5.557 -0.8152  0.1713 -0.4382
 9319TIP3   OH249447   5.944   1.202  10.499  0.0784 -0.5474  0.1353
 9319TIP3    H149448   5.898   1.153  10.431 -1.7578 -1.2519  1.8475
 9319TIP3    H249449   5.877   1.224  10.563  1.8712 -0.3292  2.0014
 9320TIP3   OH249450   4.219   4.776   2.561 -0.2147  0.1984 -0.4881
 9320TIP3    H149451   4.195   4.686   2.538 -0.5807  0.1098  0.2198
 9320TIP3    H249452   4.315   4.774   2.568 -0.3484 -0.6251  1.4817
 9321TIP3   OH249453   6.288   0.414   2.777 -0.3529  0.2988  0.0722
 9321TIP3    H149454   6.315   0.327   2.807  0.3852  0.7253  0.6708
 9321TIP3    H249455   6.258   0.458   2.857  1.4074  1.3703  0.1643
 9322TIP3   OH249456   1.145   1.288   2.764  0.0648 -0.1681  0.0357
 9322TIP3    H149457   1.168   1.367   2.716 -0.0067 -0.9529 -1.3128
 9322TIP3    H249458   1.056   1.267   2.734 -0.7601  0.4316  1.9822
 9323TIP3   OH249459   2.250   2.439  14.215  0.0879  0.6110 -0.0390
 9323TIP3    H149460   2.274   2.530  14.228 -0.7050  0.4597  2.8891
 9323TIP3    H249461   2.155   2.438  14.223  0.0769 -0.4472 -0.1949
 9324TIP3   OH249462   6.210   2.202   5.204 -0.1743  0.0974 -0.0719
 9324TIP3    H149463   6.243   2.285   5.239  1.3931 -1.8289  3.2515
 9324TIP3    H249464   6.116   2.203   5.222 -0.1355  1.0769  0.0828
 9325TIP3   OH249465   2.016   1.062   2.255  0.2557  0.6246  0.1625
 9325TIP3    H149466   2.009   1.056   2.350 -2.8523  0.9879  0.0115
 9325TIP3    H249467   1.950   1.001   2.222 -0.2771  2.1730 -1.7228
 9326TIP3   OH249468   5.518   5.874  12.917 -0.6104 -0.4495  0.2178
 9326TIP3    H149469   5.470   5.934  12.974 -1.1243 -0.5375 -0.1157
 9326TIP3    H249470   5.453   5.809  12.891  0.3042 -2.0338  1.8045
 9327TIP3   OH249471   1.057   3.532  13.610 -0.0811  0.0434 -0.2509
 9327TIP3    H149472   0.965   3.547  13.632  0.1319  0.6004  0.3199
 9327TIP3    H249473   1.065   3.559  13.519 -0.3810  0.4705 -0.1542
 9328TIP3   OH249474   4.565   1.552  15.438  0.2289  0.0599  0.7530
 9328TIP3    H149475   4.652   1.565  15.476 -0.3653  0.5723  1.9562
 9328TIP3    H249476   4.569   1.597  15.354  1.2416 -0.2399  0.6292
 9329TIP3   OH249477   2.959   0.679   3.463 -0.1360  0.0475 -0.5531
 9329TIP3    H149478   2.999   0.611   3.410 -0.3013 -1.3399  1.0540
 9329TIP3    H249479   3.007   0.759   3.441 -0.3683 -0.4364 -2.9287
 9330TIP3   OH249480   4.505   3.217   3.916 -0.5703 -0.4216 -0.4020
 9330TIP3    H149481   4.549   3.299   3.894 -1.4077 -0.7315 -3.3429
 9330TIP3    H249482   4.537   3.154   3.852  1.3335 -2.9037  2.8409
 9331TIP3   OH249483   2.466   1.641  11.395 -0.0114 -0.3752  0.1116
 9331TIP3    H149484   2.414   1.693  11.334  0.1093 -1.2951 -0.7773
 9331TIP3    H249485   2.529   1.595  11.340  1.0215 -0.1410  1.0678
 9332TIP3   OH249486   4.735   0.036   5.726  0.6911 -0.5952 -0.1985
 9332TIP3    H149487   4.812  -0.007   5.762  0.2227 -0.1054  1.4127
 9332TIP3    H249488   4.734   0.123   5.766 -1.9551 -1.3981  1.6132
 9333TIP3   OH249489   2.045   5.535   6.185 -0.1374 -0.2994 -0.4162
 9333TIP3    H149490   1.955   5.542   6.218 -0.1733  0.3362 -0.6479
 9333TIP3    H249491   2.055   5.442   6.164 -0.1564 -0.7054  1.2806
 9334TIP3   OH249492   2.972   4.522  15.956 -0.5669  0.1962  0.6698
 9334TIP3    H149493   2.895   4.502  16.009 -1.5509 -0.4692 -0.9828
 9334TIP3    H249494   2.950   4.490  15.868  1.2987  0.6645  0.0109
 9335TIP3   OH249495   3.321   4.157   5.017  0.2783 -0.1378  0.1837
 9335TIP3    H149496   3.307   4.163   5.111  0.5829  0.8512  0.1694
 9335TIP3    H249497   3.315   4.063   4.998  0.7084 -0.3916  1.2602
 9336TIP3   OH249498   3.125   6.513  16.229  0.4138 -0.4907  0.0349
 9336TIP3    H149499   3.075   6.594  16.237  2.4202  0.7852 -0.0573
 9336TIP3    H249500   3.117   6.471  16.314 -0.9564 -0.4035 -0.0370
 9337TIP3   OH249501   0.567   6.374   1.095  0.2549  0.3864  0.0574
 9337TIP3    H149502   0.509   6.446   1.117  0.3816  1.8170 -3.9055
 9337TIP3    H249503   0.655   6.411   1.100  0.2023  1.5026 -4.8012
 9338TIP3   OH249504   4.062   0.070   3.821  0.9678 -0.1029 -0.0684
 9338TIP3    H149505   4.065   0.085   3.727  2.5821  0.8211  0.1169
 9338TIP3    H249506   4.106   0.146   3.860  1.5021 -1.0994  1.3466
 9339TIP3   OH249507   0.199   6.255  13.280  0.0100 -0.0945  0.1891
 9339TIP3    H149508   0.291   6.270  13.258 -0.1740  0.4383 -0.2651
 9339TIP3    H249509   0.189   6.291  13.368  0.1922  0.0512  0.1522
 9340TIP3   OH249510   6.054   6.485  16.580  0.2296 -0.4167 -0.1815
 9340TIP3    H149511   6.149   6.491  16.577  0.2045  1.7262  1.8166
 9340TIP3    H249512   6.036   6.393  16.599  1.9394 -0.6616  0.3373
 9341TIP3   OH249513   5.268   6.106  12.080 -0.2596  0.0092  0.2689
 9341TIP3    H149514   5.198   6.077  12.139  1.0048 -0.2276  1.7099
 9341TIP3    H249515   5.277   6.035  12.016 -0.7872 -0.3365  0.5753
 9342TIP3   OH249516   4.419   1.018   0.597  0.2527 -0.2127 -0.3360
 9342TIP3    H149517   4.452   0.967   0.523  1.6540  0.4650 -0.2076
 9342TIP3    H249518   4.328   0.992   0.606  0.5449 -1.5865 -1.2064
 9343TIP3   OH249519   3.563   6.700   0.211 -0.1693 -0.3875 -0.3473
 9343TIP3    H149520   3.630   6.752   0.167 -0.3686  1.0853  1.0283
 9343TIP3    H249521   3.497   6.684   0.144 -1.2899  3.2649 -0.2097
 9344TIP3   OH249522   2.894   5.281   2.227  0.1517 -0.7502  0.2244
 9344TIP3    H149523   2.930   5.254   2.311  1.7406  0.0602 -0.1833
 9344TIP3    H249524   2.930   5.219   2.164 -0.4075 -0.8809  0.0317
 9345TIP3   OH249525   1.652   1.439   4.635  0.6682 -0.3127 -0.0064
 9345TIP3    H149526   1.570   1.391   4.619  0.1106  0.4034  0.6744
 9345TIP3    H249527   1.624   1.524   4.670  1.7681 -1.2787  3.4638
 9346TIP3   OH249528   5.436   0.978  11.456 -0.4505 -0.0152  0.6048
 9346TIP3    H149529   5.487   1.050  11.494 -0.7334  0.6830 -0.2959
 9346TIP3    H249530   5.351   1.018  11.437 -0.2626 -0.2897 -0.8895
 9347TIP3   OH249531   1.601   3.778  14.764 -0.1372  0.2537  0.4925
 9347TIP3    H149532   1.593   3.744  14.853 -0.6735 -0.0902  0.3148
 9347TIP3    H249533   1.643   3.864  14.775 -0.4295  0.3271  1.0990
 9348TIP3   OH249534   0.568   1.304   3.224 -0.4256  0.7603  0.0011
 9348TIP3    H149535   0.596   1.371   3.287 -0.1295  0.1625  0.5180
 9348TIP3    H249536   0.649   1.269   3.189 -0.5811  0.7239 -0.3184
 9349TIP3   OH249537   3.517   3.458   0.484 -0.2982  0.3996 -0.1254
 9349TIP3    H149538   3.608   3.434   0.470 -0.3382  0.6814 -0.9002
 9349TIP3    H249539   3.517   3.511   0.564 -0.0658 -1.2909  1.0318
 9350TIP3   OH249540   3.209   6.722   0.933 -0.4345  0.4467 -0.4315
 9350TIP3    H149541   3.221   6.628   0.923 -0.6991  0.2904  0.6398
 9350TIP3    H249542   3.274   6.762   0.875 -0.7256 -0.3894 -1.3460
 9351TIP3   OH249543   1.474   2.967   2.287  0.3696 -0.1238  0.1336
 9351TIP3    H149544   1.474   2.948   2.381  0.2889 -1.0758 -0.0532
 9351TIP3    H249545   1.560   2.938   2.257 -0.0302 -0.8924 -0.2915
 9352TIP3   OH249546   0.713   2.935  11.241 -0.4670  0.0121 -0.7291
 9352TIP3    H149547   0.787   2.877  11.224  0.3162  0.8317 -0.1800
 9352TIP3    H249548   0.747   2.998  11.304 -1.4956  0.6878 -0.8471
 9353TIP3   OH249549   5.945   3.946  17.154 -0.1296 -0.1272  0.3806
 9353TIP3    H149550   6.006   3.875  17.135 -0.3937 -0.9731  2.5421
 9353TIP3    H249551   5.997   4.009  17.206 -0.2807  0.6056 -0.3375
 9354TIP3   OH249552   3.598   4.988   4.830 -0.0637  0.6282  0.1606
 9354TIP3    H149553   3.645   4.917   4.787 -1.9881  0.2440 -1.3932
 9354TIP3    H249554   3.629   5.067   4.787  0.6512  0.5514  0.5380
 9355TIP3   OH249555   4.351   3.665   0.746 -0.8470  0.2328 -0.1107
 9355TIP3    H149556   4.372   3.624   0.662 -0.7068 -0.0387  0.0549
 9355TIP3    H249557   4.397   3.611   0.811  0.2392  1.3062  0.0274
 9356TIP3   OH249558   4.682   2.596  13.215 -0.4270  0.4286 -0.2077
 9356TIP3    H149559   4.656   2.504  13.213 -1.9202  0.8350 -1.6427
 9356TIP3    H249560   4.777   2.595  13.227 -0.4253 -1.2950 -0.2806
 9357TIP3   OH249561   6.686   2.098   5.786  0.0753 -0.4085  0.0471
 9357TIP3    H149562   6.716   2.012   5.755 -0.8179 -0.2873 -1.2310
 9357TIP3    H249563   6.683   2.090   5.881 -1.2017 -2.2208 -0.1168
 9358TIP3   OH249564   4.171   4.351   6.334  0.3250 -0.2704 -0.9230
 9358TIP3    H149565   4.139   4.305   6.256  1.3439 -2.5555 -0.0465
 9358TIP3    H249566   4.122   4.311   6.406  0.8096  0.4565 -0.1917
 9359TIP3   OH249567   3.017   1.320   5.161  0.3474  0.5886  0.6312
 9359TIP3    H149568   3.027   1.367   5.078 -1.9989  1.9625  1.0946
 9359TIP3    H249569   2.936   1.353   5.199  0.9347 -0.6279  3.1041
 9360TIP3   OH249570   3.607   4.642   3.630  0.5957 -0.3029 -0.2671
 9360TIP3    H149571   3.583   4.614   3.542  1.0775  0.6096 -0.6980
 9360TIP3    H249572   3.700   4.622   3.637  0.8513  0.7951 -0.4342
 9361TIP3   OH249573   0.015   4.914   2.510 -0.0477  0.1483  0.2023
 9361TIP3    H149574   0.031   4.840   2.569  0.4678 -1.1597 -1.5578
 9361TIP3    H249575   0.101   4.938   2.477 -0.2954  1.1291  0.2470
 9362TIP3   OH249576   2.459   5.072  10.262  0.5244 -0.6089 -0.1488
 9362TIP3    H149577   2.519   5.142  10.287 -0.8243  0.3580  0.4319
 9362TIP3    H249578   2.471   5.005  10.329  1.2265 -0.5963 -0.2542
 9363TIP3   OH249579   6.480   2.750  13.726 -0.1187  0.4875  0.0695
 9363TIP3    H149580   6.460   2.662  13.758  1.7536  0.6031  1.6450
 9363TIP3    H249581   6.487   2.803  13.805  2.4528  1.2518 -0.6238
 9364TIP3   OH249582   5.499   1.322   5.690  0.0033  0.2861  0.5910
 9364TIP3    H149583   5.489   1.411   5.655 -1.6975 -0.4486 -0.8361
 9364TIP3    H249584   5.417   1.305   5.736 -0.9506 -1.6644 -1.7524
 9365TIP3   OH249585   2.323   3.121  16.789  0.4156 -0.5414 -0.2288
 9365TIP3    H149586   2.378   3.199  16.793 -1.6598  0.8890  1.2396
 9365TIP3    H249587   2.327   3.094  16.697  1.9699  0.6952 -0.5397
 9366TIP3   OH249588   5.239   0.686  16.732 -0.5455 -0.2143 -0.0546
 9366TIP3    H149589   5.322   0.637  16.732  0.6994  1.8589  0.4619
 9366TIP3    H249590   5.194   0.655  16.654  0.7656 -1.2861 -0.4175
 9367TIP3   OH249591   1.890   6.259  17.087 -0.0365  0.6119 -0.3392
 9367TIP3    H149592   1.941   6.178  17.077 -0.0780  0.7255 -1.4966
 9367TIP3    H249593   1.800   6.232  17.072  0.1717  1.2750 -3.0584
 9368TIP3   OH249594   5.877   4.323  15.881  1.0104 -0.1040 -0.2593
 9368TIP3    H149595   5.913   4.244  15.922 -0.7545 -1.7496 -1.7729
 9368TIP3    H249596   5.881   4.389  15.950  3.8542 -1.0830  0.5996
 9369TIP3   OH249597   2.265   3.642   5.340 -0.5601 -0.0460  0.5232
 9369TIP3    H149598   2.296   3.726   5.374 -0.5291 -0.1056  0.6412
 9369TIP3    H249599   2.176   3.634   5.373 -0.6043 -0.0068  0.4168
 9370TIP3   OH249600   5.204   3.824   2.500 -0.2870 -0.3988 -0.5573
 9370TIP3    H149601   5.240   3.736   2.513 -0.5693 -0.4662 -0.2180
 9370TIP3    H249602   5.207   3.837   2.405 -1.9492 -1.4892 -0.7723
 9371TIP3   OH249603   0.782   2.787  10.849 -0.0805 -0.0164  0.0954
 9371TIP3    H149604   0.728   2.846  10.903 -0.7076  0.0649 -0.6127
 9371TIP3    H249605   0.720   2.749  10.787  0.9115  0.9961 -1.5226
 9372TIP3   OH249606   1.129   6.055   6.453 -0.0661  0.6853 -0.4386
 9372TIP3    H149607   1.078   6.019   6.380 -1.0505  1.0607  0.0481
 9372TIP3    H249608   1.069   6.116   6.496  0.0130 -0.5698  1.5334
 9373TIP3   OH249609   6.629   3.223   2.164  0.4114 -0.0263  0.3957
 9373TIP3    H149610   6.608   3.219   2.257 -0.8767  0.0688  0.1169
 9373TIP3    H249611   6.553   3.266   2.124  1.1632  0.3611 -0.6354
 9374TIP3   OH249612   0.544   2.413  16.973 -0.8522  0.7523 -0.4867
 9374TIP3    H149613   0.619   2.445  17.024 -1.5956  2.8428 -0.6650
 9374TIP3    H249614   0.526   2.326  17.009  2.2081 -0.1742 -1.0527
 9375TIP3   OH249615   3.999   1.401   1.411 -0.0151 -0.4335  0.0593
 9375TIP3    H149616   4.013   1.495   1.422 -0.1240 -0.0714 -2.5195
 9375TIP3    H249617   4.084   1.366   1.387 -0.1987 -0.8152 -0.0483
 9376TIP3   OH249618   2.972   5.054   1.306  0.0592 -0.3261 -0.3418
 9376TIP3    H149619   2.930   5.045   1.392 -0.7106  1.7569 -0.4724
 9376TIP3    H249620   3.061   5.020   1.319 -0.9346 -2.7072  0.5092
 9377TIP3   OH249621   6.636   5.145  16.880  0.0688  0.3274  0.0965
 9377TIP3    H149622   6.607   5.054  16.867 -1.1107  0.7241 -0.0432
 9377TIP3    H249623   6.636   5.157  16.975  0.0480  0.2403  0.1075
 9378TIP3   OH249624   5.233   0.608  10.939  0.4717  0.3012 -0.5851
 9378TIP3    H149625   5.258   0.687  10.891  0.4014  0.3720 -0.5044
 9378TIP3    H249626   5.315   0.558  10.946  0.8248  1.0024  0.5593
 9379TIP3   OH249627   5.164   5.582  10.945  0.5115  0.5143 -0.2985
 9379TIP3    H149628   5.215   5.528  10.884  1.1071  1.2437 -0.4630
 9379TIP3    H249629   5.078   5.590  10.905  0.2867 -0.6898 -0.0484
 9380TIP3   OH249630   0.039   3.649  14.962  0.3172 -0.1128 -0.0257
 9380TIP3    H149631  -0.012   3.725  14.935  0.8822 -0.2536 -1.5854
 9380TIP3    H249632   0.076   3.615  14.880 -0.5777 -2.5507  0.5290
 9381TIP3   OH249633   0.439   2.910   4.445  0.1180 -0.2097 -0.3052
 9381TIP3    H149634   0.348   2.901   4.472 -0.0427 -1.2295 -1.1527
 9381TIP3    H249635   0.463   2.823   4.412  0.8232  0.5165 -1.7912
 9382TIP3   OH249636   6.114   0.671  13.136 -0.1742  0.1363  0.6039
 9382TIP3    H149637   6.109   0.712  13.222 -2.1191  1.2668 -0.0160
 9382TIP3    H249638   6.208   0.667  13.117  0.1657  2.2555  1.6619
 9383TIP3   OH249639   1.321   2.678   3.630 -0.0307 -0.0756  0.0499
 9383TIP3    H149640   1.372   2.617   3.684  0.8117  0.0966 -0.5462
 9383TIP3    H249641   1.267   2.621   3.575  2.1861 -0.3560 -1.9066
 9384TIP3   OH249642   4.626   6.183   4.915  0.3465 -0.3496 -0.5545
 9384TIP3    H149643   4.694   6.238   4.955 -1.3599  0.8773  0.7608
 9384TIP3    H249644   4.648   6.094   4.942  0.5280  0.2123  1.2322
 9385TIP3   OH249645   5.276   6.559   4.005 -0.0135 -0.2054  0.3242
 9385TIP3    H149646   5.322   6.643   4.005  1.3461 -0.9314  0.9150
 9385TIP3    H249647   5.236   6.554   4.093  0.0000 -0.2302  0.3284
 9386TIP3   OH249648   5.985   6.033  16.856 -0.1114 -0.0621 -0.0723
 9386TIP3    H149649   6.067   5.984  16.857  0.0730  0.2456 -0.0007
 9386TIP3    H249650   5.956   6.034  16.947  1.3472  2.3859  0.4200
 9387TIP3   OH249651   4.547   1.452   0.859 -0.0888 -0.1677  0.0194
 9387TIP3    H149652   4.628   1.447   0.911 -0.2409 -1.6551  0.1422
 9387TIP3    H249653   4.543   1.368   0.813 -1.1520  0.2202 -0.6133
 9388TIP3   OH249654   3.936   0.768  13.676  0.6443 -0.1570 -0.2379
 9388TIP3    H149655   3.862   0.750  13.734  1.1776 -0.1215  0.4649
 9388TIP3    H249656   3.943   0.863  13.675 -1.1984 -0.0200 -2.7098
 9389TIP3   OH249657   0.274   0.129   4.043 -0.0778  0.1334 -0.0041
 9389TIP3    H149658   0.365   0.104   4.059 -0.3900 -1.0170  0.0051
 9389TIP3    H249659   0.223   0.073   4.102 -0.8667 -0.0469 -0.8501
 9390TIP3   OH249660   2.656   1.031   4.348 -0.4348  0.3776 -0.4380
 9390TIP3    H149661   2.657   1.127   4.355  0.3672  0.3267  0.2660
 9390TIP3    H249662   2.736   1.010   4.301  0.1956 -0.0331  0.7919
 9391TIP3   OH249663   0.493   4.938  13.200 -0.1586  0.4141 -0.2343
 9391TIP3    H149664   0.519   5.013  13.253 -0.1056  0.1228  0.1551
 9391TIP3    H249665   0.553   4.869  13.225  1.1945  0.8525 -2.1843
 9392TIP3   OH249666   2.354   6.201   4.094 -0.0332 -0.7088  0.1835
 9392TIP3    H149667   2.322   6.275   4.144 -2.0248 -1.7001  0.4098
 9392TIP3    H249668   2.447   6.196   4.115 -0.5998 -0.4521  2.9759
 9393TIP3   OH249669   3.590   3.381  13.076  0.2301  0.0503  0.1332
 9393TIP3    H149670   3.684   3.372  13.090  0.1100 -2.7513 -0.4508
 9393TIP3    H249671   3.580   3.386  12.981 -0.1001  2.1132  0.2617
 9394TIP3   OH249672   5.182   3.357  14.901 -0.1426 -0.0601 -0.1620
 9394TIP3    H149673   5.265   3.369  14.856  0.9046 -0.1926  1.7334
 9394TIP3    H249674   5.201   3.295  14.972 -1.3387  1.6141  1.6615
 9395TIP3   OH249675   1.278   2.815  14.734  0.3394 -0.2381 -0.2876
 9395TIP3    H149676   1.286   2.888  14.796 -0.2256 -0.6083  0.2266
 9395TIP3    H249677   1.250   2.856  14.652  3.1417  0.5285 -0.9188
 9396TIP3   OH249678   4.125   0.664   3.695  0.1483 -0.2517  0.1721
 9396TIP3    H149679   4.058   0.611   3.738  0.5263 -2.0200 -1.3759
 9396TIP3    H249680   4.207   0.635   3.736 -0.0333  2.3473  2.5119
 9397TIP3   OH249681   5.071   2.299  16.678 -0.7628  0.1903 -0.1580
 9397TIP3    H149682   5.056   2.307  16.772 -0.8910  0.8528 -0.2311
 9397TIP3    H249683   5.131   2.371  16.657 -1.5690  0.7040 -0.7606
 9398TIP3   OH249684   0.186   2.173   1.356 -0.1521  0.4765 -0.4654
 9398TIP3    H149685   0.153   2.240   1.416 -0.7749  0.6258 -0.9725
 9398TIP3    H249686   0.282   2.181   1.362 -0.2181  0.9059  0.0399
 9399TIP3   OH249687   3.601   0.961  13.553  0.3623 -0.2459  0.1256
 9399TIP3    H149688   3.674   0.923  13.602 -1.1208 -1.4378  1.4693
 9399TIP3    H249689   3.614   0.932  13.463  0.9602 -1.3389  0.5602
 9400TIP3   OH249690   5.211   2.774   1.978  0.5632  0.2511  0.1295
 9400TIP3    H149691   5.207   2.781   2.073  0.9095 -0.5399  0.2092
 9400TIP3    H249692   5.157   2.846   1.945  0.8475  0.8220  0.9207
 9401TIP3   OH249693   3.233   3.786  14.131 -0.2089 -0.1751  0.1971
 9401TIP3    H149694   3.222   3.724  14.203 -0.2480  0.0664  0.3992
 9401TIP3    H249695   3.319   3.766  14.095 -1.2936 -2.1355 -1.4448
 9402TIP3   OH249696   6.816   5.749  10.688 -0.2146  0.8032  0.6223
 9402TIP3    H149697   6.879   5.816  10.662  1.9122 -1.2174  0.4795
 9402TIP3    H249698   6.846   5.669  10.645 -1.0429 -0.8945  3.0807
 9403TIP3   OH249699   3.845   5.385  15.373 -0.2982  0.1134  0.4184
 9403TIP3    H149700   3.762   5.375  15.421  0.9274 -0.1520  2.5275
 9403TIP3    H249701   3.880   5.469  15.403 -0.4621  0.9053 -1.5418
 9404TIP3   OH249702   3.952   2.607  12.660  0.2916 -0.1798 -0.3979
 9404TIP3    H149703   3.962   2.512  12.646 -0.1870 -0.7462  2.8731
 9404TIP3    H249704   3.859   2.619  12.676  0.1415  1.0724 -2.0492
 9405TIP3   OH249705   3.308   3.046   5.366  0.1641  0.1246  0.1576
 9405TIP3    H149706   3.274   3.078   5.450  1.6750 -0.7064  1.1134
 9405TIP3    H249707   3.364   3.116   5.334  0.2513  0.0935  0.2441
 9406TIP3   OH249708   5.960   2.468  11.736  0.1268 -0.2473  0.0837
 9406TIP3    H149709   6.051   2.490  11.759  0.4843  0.3559 -1.7900
 9406TIP3    H249710   5.908   2.502  11.809  1.3312  0.2444  0.7285
 9407TIP3   OH249711   1.493   0.021  14.868  0.4993 -0.0179  0.6936
 9407TIP3    H149712   1.422   0.083  14.848  2.4686  1.4435 -2.1921
 9407TIP3    H249713   1.557   0.072  14.916  1.0678 -0.4399  0.3899
 9408TIP3   OH249714   1.216   1.858   0.395  0.0566  0.2198  0.8009
 9408TIP3    H149715   1.164   1.780   0.415 -0.1072  0.2615  0.5420
 9408TIP3    H249716   1.204   1.871   0.301  2.4239 -1.1823  0.2453
 9409TIP3   OH249717   3.072   3.783  12.069 -0.0095 -0.2574  0.1926
 9409TIP3    H149718   3.149   3.837  12.048 -0.1908 -0.3208 -0.6741
 9409TIP3    H249719   3.020   3.837  12.128  0.5623 -0.0967  0.5533
 9410TIP3   OH249720   0.629   2.041  14.358 -0.0519  0.1219  0.0519
 9410TIP3    H149721   0.568   1.989  14.410  1.1213 -0.8031  0.5252
 9410TIP3    H249722   0.573   2.095  14.302 -1.3209  0.7055  1.8557
 9411TIP3   OH249723   0.549   0.992   3.466  0.1328  0.6109  0.1960
 9411TIP3    H149724   0.545   1.081   3.430  0.3605  0.6233  0.2009
 9411TIP3    H249725   0.495   0.996   3.545 -3.0389 -0.2220 -1.8340
 9412TIP3   OH249726   6.290   3.626  15.260  0.4659 -0.0827  0.1163
 9412TIP3    H149727   6.258   3.610  15.171  0.1249 -1.0751  0.4145
 9412TIP3    H249728   6.339   3.547  15.283 -1.0796 -0.6388  1.5381
 9413TIP3   OH249729   4.099   4.034   5.566  0.9769 -0.2527 -0.7890
 9413TIP3    H149730   4.187   4.007   5.543  1.6737 -0.7451  2.2801
 9413TIP3    H249731   4.061   3.958   5.611 -0.5659  0.3943 -0.9541
 9414TIP3   OH249732   0.226   4.205   1.908 -0.7255  0.5258 -0.4094
 9414TIP3    H149733   0.219   4.290   1.865 -0.4321  0.7584 -0.0074
 9414TIP3    H249734   0.150   4.156   1.878  0.0225  0.3110 -2.0041
 9415TIP3   OH249735   5.018   4.749  15.506 -0.0098 -0.0625 -0.4788
 9415TIP3    H149736   4.983   4.838  15.515  0.9400  0.3268 -0.5416
 9415TIP3    H249737   5.111   4.762  15.489  0.2239 -1.0881 -0.0105
 9416TIP3   OH249738   4.344   3.144   1.676  0.1900  0.8293  0.4562
 9416TIP3    H149739   4.338   3.238   1.688  2.7528  0.9778  0.8578
 9416TIP3    H249740   4.426   3.131   1.627  0.0785 -1.2088  0.7616
 9417TIP3   OH249741   0.598   2.048   0.687 -0.1529  0.5196  0.2756
 9417TIP3    H149742   0.604   2.007   0.774  0.0499  1.6684  0.8163
 9417TIP3    H249743   0.649   1.991   0.630 -2.7634 -1.8968  0.2790
 9418TIP3   OH249744   5.800   0.971  13.938  0.0726  0.1465 -0.0825
 9418TIP3    H149745   5.785   0.923  13.856 -0.1979  1.8343 -1.0522
 9418TIP3    H249746   5.891   0.998  13.933  0.3618 -0.7133  0.6896
 9419TIP3   OH249747   6.478   3.719   0.491  0.0778 -0.2460  0.0935
 9419TIP3    H149748   6.398   3.772   0.484  0.8987  0.9824 -0.0206
 9419TIP3    H249749   6.518   3.745   0.573  0.7760 -0.2789 -0.2306
 9420TIP3   OH249750   1.025   5.780   4.171 -0.3357  0.4001  0.2120
 9420TIP3    H149751   1.009   5.689   4.198 -0.5214  0.4737  0.3544
 9420TIP3    H249752   1.095   5.774   4.106 -1.7112 -0.0696 -1.2907
 9421TIP3   OH249753   2.451   3.330  15.402  0.6299 -0.0850  0.0204
 9421TIP3    H149754   2.384   3.269  15.434  0.9853 -0.1011  0.7358
 9421TIP3    H249755   2.520   3.326  15.467 -0.3617  2.8439  1.3371
 9422TIP3   OH249756   2.971   3.017  12.819  0.3076  0.6571  0.2430
 9422TIP3    H149757   3.048   3.073  12.815  1.0233 -0.2364  1.2835
 9422TIP3    H249758   2.978   2.972  12.903 -0.0153 -1.3232 -0.7706
 9423TIP3   OH249759   3.036   6.734  15.596 -0.2255 -0.5864 -0.2288
 9423TIP3    H149760   2.959   6.785  15.622  0.6485  0.3225  0.5932
 9423TIP3    H249761   3.051   6.674  15.669  1.4327  1.0585  0.8162
 9424TIP3   OH249762   4.187   4.549   4.131  0.2839 -0.2430 -0.2641
 9424TIP3    H149763   4.094   4.530   4.138  0.5023 -0.5370  2.2105
 9424TIP3    H249764   4.191   4.629   4.078 -1.3217 -0.7021 -1.0943
 9425TIP3   OH249765   1.765   2.078   4.170  0.3899 -0.9900 -0.8558
 9425TIP3    H149766   1.809   2.033   4.242  0.0796 -1.4988 -0.9806
 9425TIP3    H249767   1.674   2.047   4.174 -0.6851  2.2203  1.1702
 9426TIP3   OH249768   6.302   5.526  11.726 -0.1189 -0.1287 -0.0746
 9426TIP3    H149769   6.349   5.550  11.806 -1.2835  1.8337  0.0430
 9426TIP3    H249770   6.232   5.468  11.755 -1.5337  1.8560  0.5796
 9427TIP3   OH249771   3.547   6.755   5.459 -0.4066 -0.1482  0.0568
 9427TIP3    H149772   3.464   6.731   5.418  1.2628 -0.1105 -3.5545
 9427TIP3    H249773   3.600   6.675   5.454  0.7857  0.6581 -0.3868
 9428TIP3   OH249774   1.911   2.856   5.388 -0.2216  0.1156  0.3225
 9428TIP3    H149775   1.909   2.877   5.481  0.1653  0.0976  0.3357
 9428TIP3    H249776   1.943   2.937   5.346  1.3230 -0.4514  0.3785
 9429TIP3   OH249777   6.523   5.635  16.254 -0.6198 -0.2560  1.5984
 9429TIP3    H149778   6.553   5.724  16.237 -4.7879  0.5749 -2.6489
 9429TIP3    H249779   6.596   5.579  16.230  0.1162  1.8692 -1.3407
 9430TIP3   OH249780   3.568   1.587   4.033 -0.0548  0.0343 -0.5579
 9430TIP3    H149781   3.599   1.616   4.119 -1.3087  0.7195 -0.3241
 9430TIP3    H249782   3.544   1.668   3.988 -2.9928 -0.5346 -0.1372
 9431TIP3   OH249783   6.613   0.317   2.384  0.5917 -0.1731  0.4257
 9431TIP3    H149784   6.578   0.350   2.301 -1.0594 -0.7017  0.8856
 9431TIP3    H249785   6.603   0.391   2.444  0.0092 -0.3991  0.6157
 9432TIP3   OH249786   3.567   6.329   0.768  0.1831 -0.2957  0.6710
 9432TIP3    H149787   3.654   6.365   0.756 -0.1685  0.5002  0.5053
 9432TIP3    H249788   3.526   6.384   0.834 -0.7292  0.2844 -0.3578
 9433TIP3   OH249789   0.293   6.794  11.816  0.2962 -0.4533  0.0217
 9433TIP3    H149790   0.200   6.792  11.836  0.0879 -2.1873 -1.0250
 9433TIP3    H249791   0.310   6.885  11.791 -0.0960  0.9947  4.6652
 9434TIP3   OH249792   0.807   4.056   4.150 -0.1691  0.1921 -0.5973
 9434TIP3    H149793   0.852   4.128   4.107  0.2824  0.3914  0.1915
 9434TIP3    H249794   0.714   4.081   4.147 -0.2322 -0.1786 -2.1427
 9435TIP3   OH249795   0.289   1.613   1.619  0.1220 -0.7092 -0.4917
 9435TIP3    H149796   0.208   1.584   1.577 -0.2526  3.4601 -2.9739
 9435TIP3    H249797   0.265   1.628   1.711 -1.8944  0.2809 -1.1592
 9436TIP3   OH249798   1.178   4.432  12.055  0.4482 -0.1089 -0.2327
 9436TIP3    H149799   1.180   4.512  12.106  0.6628 -0.0093 -0.3947
 9436TIP3    H249800   1.260   4.387  12.076 -0.3321 -0.9966  0.9796
 9437TIP3   OH249801   2.883   6.648  12.857  0.8034  0.5621  0.2586
 9437TIP3    H149802   2.945   6.686  12.795 -1.1592  2.5238 -0.6136
 9437TIP3    H249803   2.820   6.719  12.873 -1.4941 -1.5106  0.6873
 9438TIP3   OH249804   3.967   0.344  15.188 -0.1783 -0.1155  0.6639
 9438TIP3    H149805   4.014   0.275  15.141 -0.5182  0.8188 -1.0874
 9438TIP3    H249806   4.033   0.382  15.247  0.5078 -0.7218  0.2973
 9439TIP3   OH249807   2.112   1.646   0.742 -0.1375  0.0830  0.5203
 9439TIP3    H149808   2.176   1.672   0.676  1.0840 -0.0106  1.6487
 9439TIP3    H249809   2.027   1.668   0.703  0.5327 -0.4025 -1.2620
 9440TIP3   OH249810   0.985   3.635  15.450  0.2239 -0.3395  0.2951
 9440TIP3    H149811   0.890   3.636  15.436  0.2350  0.3837  0.2601
 9440TIP3    H249812   1.017   3.568  15.389 -0.0741  0.6490 -0.9914
 9441TIP3   OH249813   1.499   0.028  14.029  0.6836 -0.2914  0.1558
 9441TIP3    H149814   1.527   0.098  13.971  0.0107  0.6004  0.8961
 9441TIP3    H249815   1.495   0.068  14.116 -0.6470 -0.9730  0.4254
 9442TIP3   OH249816   5.302   3.747  15.729 -0.5390  0.1760  0.2039
 9442TIP3    H149817   5.308   3.833  15.771  0.3174  0.3956 -0.3708
 9442TIP3    H249818   5.364   3.750  15.657  0.8462 -1.5591  1.2736
 9443TIP3   OH249819   2.007   5.018   2.733 -0.6230  0.1793  0.2964
 9443TIP3    H149820   2.020   4.923   2.738  0.2513  0.1675 -1.6294
 9443TIP3    H249821   2.093   5.055   2.749 -0.6788  0.5893 -0.3341
 9444TIP3   OH249822   3.376   0.111  11.565  0.2453  0.4567  0.3063
 9444TIP3    H149823   3.376   0.190  11.620  0.4791  2.3875 -2.3965
 9444TIP3    H249824   3.289   0.108  11.527  0.0255 -0.9885  0.8830
 9445TIP3   OH249825   4.845   0.829  16.521 -0.4486 -0.5223  0.5899
 9445TIP3    H149826   4.780   0.848  16.454  0.4629 -2.3290 -0.8790
 9445TIP3    H249827   4.813   0.872  16.600 -0.9676  2.6152 -1.2729
 9446TIP3   OH249828   5.442   4.161   0.862 -0.3413  0.2400 -0.7745
 9446TIP3    H149829   5.429   4.067   0.866 -0.4918  0.2513 -1.0644
 9446TIP3    H249830   5.537   4.171   0.858 -0.3782  0.0511 -2.2585
 9447TIP3   OH249831   5.315   6.634   0.160  0.5374 -0.3014 -0.2580
 9447TIP3    H149832   5.339   6.726   0.150  0.3900  0.2599  3.7040
 9447TIP3    H249833   5.237   6.623   0.106  1.1779  1.6206 -1.6145
 9448TIP3   OH249834   2.215   1.392   4.265 -0.7861  0.4762 -0.1325
 9448TIP3    H149835   2.269   1.434   4.332  0.7053 -1.7045  0.1138
 9448TIP3    H249836   2.138   1.361   4.313 -0.3341  0.0590  0.3316
 9449TIP3   OH249837   6.480   2.992   2.828 -1.1728 -0.2535  0.1144
 9449TIP3    H149838   6.444   3.016   2.913  0.3928 -0.8100  0.9578
 9449TIP3    H249839   6.516   3.074   2.793  1.6897 -0.7136  1.7687
 9450TIP3   OH249840   4.100   3.500  10.578 -0.0049 -0.2365 -0.4624
 9450TIP3    H149841   4.063   3.587  10.592 -1.5729 -1.1056  0.9543
 9450TIP3    H249842   4.191   3.508  10.609 -0.0487  0.9548 -0.5987
 9451TIP3   OH249843   5.052   4.075   0.432 -0.6050  0.3873  0.1412
 9451TIP3    H149844   5.124   4.138   0.428  0.8886 -1.2706  0.4952
 9451TIP3    H249845   5.092   3.995   0.465 -2.9578 -0.0806  1.9495
 9452TIP3   OH249846   1.976   1.930   6.352 -0.4702 -0.3454  0.1258
 9452TIP3    H149847   1.945   1.903   6.439  0.4645 -0.0021  0.5696
 9452TIP3    H249848   2.067   1.902   6.349  0.0219  1.2217 -0.0657
 9453TIP3   OH249849   6.333   2.273   5.609  0.1691  0.0313 -0.4164
 9453TIP3    H149850   6.320   2.217   5.532 -0.2483  0.2803 -0.5323
 9453TIP3    H249851   6.261   2.336   5.604  0.0426 -0.0541  0.2700
 9454TIP3   OH249852   5.834   3.365  16.143  0.4946  0.8168  0.3498
 9454TIP3    H149853   5.806   3.304  16.212 -1.1768  2.8116  1.4925
 9454TIP3    H249854   5.883   3.433  16.190  2.3023  0.4392 -0.9100
 9455TIP3   OH249855   0.712   2.413  15.240  0.5784 -0.2963  0.5879
 9455TIP3    H149856   0.638   2.462  15.205  0.4169  0.4088  1.8951
 9455TIP3    H249857   0.788   2.443  15.189  0.1821 -0.0565  0.1397
 9456TIP3   OH249858   3.570   0.978   5.658  0.2573 -0.2175 -0.3078
 9456TIP3    H149859   3.573   1.045   5.726 -0.5109 -0.1686 -0.3125
 9456TIP3    H249860   3.556   1.027   5.577 -0.4235 -0.3873 -0.2971
 9457TIP3   OH249861   4.596   3.118   1.555  0.3340 -0.0290 -0.2247
 9457TIP3    H149862   4.634   3.133   1.468 -0.3546  0.1653 -0.4960
 9457TIP3    H249863   4.596   3.023   1.566  0.7452 -0.0364 -0.2910
 9458TIP3   OH249864   0.605   5.217  15.791  0.8190 -0.6632  0.5274
 9458TIP3    H149865   0.584   5.129  15.762  2.3703 -1.1993  0.9607
 9458TIP3    H249866   0.665   5.251  15.724  0.9274 -0.2774  0.8164
 9459TIP3   OH249867   3.636   6.372  12.795 -0.2125  0.1138  0.4674
 9459TIP3    H149868   3.603   6.363  12.706 -2.1380  4.5053  0.5740
 9459TIP3    H249869   3.692   6.296  12.808 -1.5611 -1.7454 -3.7179
 9460TIP3   OH249870   2.243   5.565   3.006 -0.1140 -0.1972 -0.5092
 9460TIP3    H149871   2.243   5.510   2.928  0.9297  0.5260 -1.0116
 9460TIP3    H249872   2.311   5.528   3.062  1.0040  0.9480 -1.1036
 9461TIP3   OH249873   1.386   1.444   2.065  0.6409 -0.2043 -0.5161
 9461TIP3    H149874   1.364   1.404   2.149  0.0687  0.4677 -0.3430
 9461TIP3    H249875   1.302   1.465   2.025  0.9340  2.0975  0.0162
 9462TIP3   OH249876   2.602   0.462  13.312 -0.0455  0.7400 -0.3169
 9462TIP3    H149877   2.598   0.471  13.408 -0.2400  0.4976 -0.2999
 9462TIP3    H249878   2.643   0.543  13.282 -3.0677  2.3820 -0.2717
 9463TIP3   OH249879   2.648   5.219   2.366 -0.5343 -0.0238 -0.5256
 9463TIP3    H149880   2.716   5.235   2.301 -0.0614 -0.2960 -0.0975
 9463TIP3    H249881   2.644   5.299   2.418  0.7347 -0.6739  0.6100
 9464TIP3   OH249882   6.209   3.387   5.107  0.1108 -1.0852  0.0656
 9464TIP3    H149883   6.159   3.357   5.030  0.3285 -0.3194 -0.3854
 9464TIP3    H249884   6.291   3.420   5.070  0.1394 -0.5499  0.6126
 9465TIP3   OH249885   5.970   2.348   2.813 -0.0716 -0.0297  0.5322
 9465TIP3    H149886   5.901   2.357   2.879 -0.4420  0.9666  0.0175
 9465TIP3    H249887   5.971   2.254   2.793  0.6079 -0.4876  2.5316
 9466TIP3   OH249888   3.497   2.514   2.534 -0.5967 -0.4173  0.1877
 9466TIP3    H149889   3.415   2.504   2.582 -1.6008  0.3975 -1.3210
 9466TIP3    H249890   3.516   2.427   2.499  0.3705 -1.1201  2.3756
 9467TIP3   OH249891   1.084   3.863  15.069  0.1507 -0.1026 -0.1387
 9467TIP3    H149892   1.155   3.926  15.062 -0.5006  0.5566 -0.9586
 9467TIP3    H249893   1.042   3.882  15.152  2.4042 -2.0809  1.5348
 9468TIP3   OH249894   4.891   6.697   4.816 -0.4802  0.3683 -0.2173
 9468TIP3    H149895   4.802   6.665   4.806 -1.0057  1.9588 -0.7598
 9468TIP3    H249896   4.882   6.792   4.828  1.1552  0.6233 -0.7735
 9469TIP3   OH249897   2.727   5.348  11.212 -0.3332  0.2977  0.3020
 9469TIP3    H149898   2.804   5.387  11.254  0.2105 -1.0406  0.5919
 9469TIP3    H249899   2.653   5.399  11.244  0.1911  0.0033  2.0208
 9470TIP3   OH249900   0.598   0.337   2.584 -0.2646 -0.0753  0.1737
 9470TIP3    H149901   0.527   0.315   2.645 -0.3579 -2.0899 -0.6032
 9470TIP3    H249902   0.616   0.429   2.599 -1.0900 -0.2563  2.4391
 9471TIP3   OH249903   0.235   6.215   5.701  0.4139 -0.2270  0.4991
 9471TIP3    H149904   0.284   6.258   5.770  0.8695 -0.0855  0.0832
 9471TIP3    H249905   0.158   6.270   5.688  0.1900 -0.3924  1.0693
 9472TIP3   OH249906   2.503   3.961   0.044 -0.2089 -0.6433  0.0155
 9472TIP3    H149907   2.419   3.988   0.009  0.2907  2.6978  1.1974
 9472TIP3    H249908   2.567   4.011  -0.006  1.0647 -2.4783 -0.2625
 9473TIP3   OH249909   1.765   1.427   1.687 -0.5331  0.1432 -0.2492
 9473TIP3    H149910   1.738   1.510   1.726  1.5863  0.7399  0.0090
 9473TIP3    H249911   1.752   1.439   1.593  1.6356  1.5227 -0.4024
 9474TIP3   OH249912   6.070   6.043  12.046  0.4197  0.2051 -0.2935
 9474TIP3    H149913   6.135   6.089  12.099  1.8927 -1.5465 -0.5260
 9474TIP3    H249914   6.083   6.077  11.958  0.2636  0.6696 -0.1363
 9475TIP3   OH249915   1.791   6.150  15.736  0.1472 -0.2550 -0.8993
 9475TIP3    H149916   1.855   6.164  15.806 -1.9941 -1.1902  1.2904
 9475TIP3    H249917   1.787   6.055  15.725 -2.0311 -0.2991  0.1100
 9476TIP3   OH249918   2.579   3.126  15.104 -0.9733  0.1594 -0.2490
 9476TIP3    H149919   2.661   3.103  15.148 -0.4154  3.3249  0.5123
 9476TIP3    H249920   2.523   3.049  15.115  0.6407 -0.7157  2.3808
 9477TIP3   OH249921   5.583   1.326   0.038  0.5152  0.3246  0.3375
 9477TIP3    H149922   5.637   1.251   0.015 -1.1031 -0.4700 -1.0337
 9477TIP3    H249923   5.569   1.372  -0.045 -2.3473 -0.5042  0.2862
 9478TIP3   OH249924   6.747   1.724  13.351 -0.9763  0.5844 -0.1710
 9478TIP3    H149925   6.682   1.792  13.333 -0.3941  1.5149  1.2532
 9478TIP3    H249926   6.831   1.767  13.341 -0.5856 -0.1806 -0.2423
 9479TIP3   OH249927   4.107   2.822   5.280  0.5286 -0.6535 -0.3532
 9479TIP3    H149928   4.039   2.851   5.219  0.2293  0.2473  0.4005
 9479TIP3    H249929   4.064   2.816   5.364  1.1091 -1.2316 -0.0908
 9480TIP3   OH249930   0.225   1.113  10.663 -0.6077  0.6017  0.0785
 9480TIP3    H149931   0.224   1.205  10.690  0.3147  1.1593 -1.7234
 9480TIP3    H249932   0.178   1.112  10.579  0.0030 -0.4551 -0.2589
 9481TIP3   OH249933   6.351   6.566  15.141 -0.1303 -0.5821  0.5459
 9481TIP3    H149934   6.359   6.654  15.180 -2.2802  0.6298 -1.5975
 9481TIP3    H249935   6.380   6.578  15.051  0.0405 -2.2019  0.3867
 9482TIP3   OH249936   0.119   5.056   3.207 -0.2109  0.1306 -0.3126
 9482TIP3    H149937   0.159   5.143   3.204  0.5518 -0.2127 -0.1810
 9482TIP3    H249938   0.168   5.005   3.142 -0.7546 -0.1566 -0.4973
 9483TIP3   OH249939   1.054   4.437  11.785 -0.2445 -0.1159  0.4903
 9483TIP3    H149940   1.096   4.464  11.868  1.2151  0.8080 -0.5225
 9483TIP3    H249941   1.006   4.358  11.808  1.6501 -0.9224  1.8419
 9484TIP3   OH249942   0.174   6.056   2.153  0.0366  0.0643 -0.1428
 9484TIP3    H149943   0.242   5.989   2.162 -0.7938 -0.6530  0.8982
 9484TIP3    H249944   0.220   6.132   2.116  1.3317 -0.5165  0.2453
 9485TIP3   OH249945   5.301   4.982  16.062 -0.7660 -0.7438 -0.7839
 9485TIP3    H149946   5.253   4.923  16.120  1.8547 -2.8792 -0.7159
 9485TIP3    H249947   5.306   5.065  16.110 -0.1478 -1.9543  1.2867
 9486TIP3   OH249948   3.024   0.613  12.765 -0.1653 -0.1697  0.4306
 9486TIP3    H149949   3.069   0.596  12.682  0.0740  2.4085 -0.0216
 9486TIP3    H249950   3.020   0.528  12.808  0.3245 -1.4261 -1.9232
 9487TIP3   OH249951   4.383   2.190  11.448 -0.5175 -0.1383 -0.6157
 9487TIP3    H149952   4.469   2.222  11.420  0.6002 -2.4204  0.0091
 9487TIP3    H249953   4.322   2.223  11.382  1.2254 -0.6167 -2.5261
 9488TIP3   OH249954   3.359   4.578  16.680 -0.2525  0.1922 -0.4300
 9488TIP3    H149955   3.388   4.666  16.702 -2.2580  1.2114 -1.7259
 9488TIP3    H249956   3.423   4.547  16.616  0.1173  0.9230 -0.4187
 9489TIP3   OH249957   1.509   3.221   2.801 -0.0937  0.1005 -0.2636
 9489TIP3    H149958   1.428   3.222   2.750 -0.6980 -0.5388  0.6661
 9489TIP3    H249959   1.481   3.233   2.892  0.9268  0.6800 -0.0105
 9490TIP3   OH249960   1.337   6.813   3.376  0.2794 -0.1237 -0.3180
 9490TIP3    H149961   1.384   6.877   3.430 -0.8553 -0.4818  1.1141
 9490TIP3    H249962   1.311   6.863   3.299  1.5082  0.5226 -0.3363
 9491TIP3   OH249963   2.587   2.427   1.026 -0.4150 -0.8375 -0.2654
 9491TIP3    H149964   2.513   2.488   1.033 -1.9322 -2.5786 -0.7895
 9491TIP3    H249965   2.548   2.341   1.043  2.3380 -1.3354  4.2262
 9492TIP3   OH249966   3.339   4.833   4.053  0.4278 -0.7977 -0.1176
 9492TIP3    H149967   3.386   4.779   4.117 -2.2042 -1.5411  1.2661
 9492TIP3    H249968   3.335   4.779   3.974 -0.9810 -2.0934  0.8184
 9493TIP3   OH249969   0.397   2.673  16.967  0.6306 -0.2013 -0.2691
 9493TIP3    H149970   0.452   2.597  16.952 -0.2623 -1.1414  1.1205
 9493TIP3    H249971   0.459   2.747  16.970  1.5875 -0.9701 -0.7565
 9494TIP3   OH249972   4.231   6.266   6.103 -0.2130 -0.3012  0.1681
 9494TIP3    H149973   4.287   6.218   6.042  2.7995  2.8960  0.2673
 9494TIP3    H249974   4.234   6.215   6.184  0.8923 -1.2379 -0.4589
 9495TIP3   OH249975   0.886   3.224  13.371  0.2630  0.4567 -0.4354
 9495TIP3    H149976   0.807   3.181  13.404 -0.1869  1.5808 -0.0202
 9495TIP3    H249977   0.915   3.280  13.444  1.1189  0.4731 -0.7873
 9496TIP3   OH249978   5.280   6.483  14.701 -0.2728  1.0494 -0.3805
 9496TIP3    H149979   5.239   6.472  14.615 -1.6369 -2.6363  0.6655
 9496TIP3    H249980   5.216   6.534  14.751 -0.0213  2.1377 -1.1474
 9497TIP3   OH249981   6.231   1.435   6.099  0.0823 -0.2330  0.0640
 9497TIP3    H149982   6.241   1.393   6.185  1.3232  0.3297  0.1916
 9497TIP3    H249983   6.320   1.452   6.069 -0.3666  0.4059 -0.9381
 9498TIP3   OH249984   5.437   3.008   3.947  0.2478  0.5627 -0.0805
 9498TIP3    H149985   5.510   3.012   4.009  1.2458 -0.4145 -1.1490
 9498TIP3    H249986   5.476   2.971   3.867 -1.7040 -1.2029 -0.2579
 9499TIP3   OH249987   2.479   1.055  13.777 -0.1765 -0.0593  0.3094
 9499TIP3    H149988   2.526   1.128  13.737 -1.3515  1.3918  1.5282
 9499TIP3    H249989   2.390   1.086  13.788 -1.4095 -2.6898 -1.6983
 9500TIP3   OH249990   0.735   1.809   3.728 -0.1311  0.0596 -0.0737
 9500TIP3    H149991   0.741   1.754   3.650 -0.4991 -1.2058  0.7708
 9500TIP3    H249992   0.663   1.869   3.709  0.4850  0.4851 -1.1362
 9501TIP3   OH249993   1.341   6.733  11.935  0.0738  0.0830 -0.0375
 9501TIP3    H149994   1.306   6.744  12.023 -1.3271  1.4038 -0.7359
 9501TIP3    H249995   1.265   6.711  11.881  0.8268 -0.2083 -1.0111
 9502TIP3   OH249996   4.323   2.256  16.901  0.4306 -0.4637  0.5755
 9502TIP3    H149997   4.353   2.304  16.979  0.0379 -0.0729  0.4891
 9502TIP3    H249998   4.354   2.167  16.915 -2.1698 -1.1205  2.5939
 9503TIP3   OH249999   1.762   5.362  11.085 -0.5828 -0.1344  0.0388
 9503TIP3    H150000   1.750   5.434  11.147 -1.4998  0.2410 -0.5729
 9503TIP3    H250001   1.856   5.345  11.087 -0.5880 -0.0806  1.4861
 9504TIP3   OH250002   2.769   0.411   3.605  0.4955 -0.0322  0.3655
 9504TIP3    H150003   2.776   0.395   3.699  1.8380 -0.3494  0.2181
 9504TIP3    H250004   2.754   0.505   3.598  1.2965  0.1334  0.8588
 9505TIP3   OH250005   1.482   6.081  13.312  0.5821  0.0164  0.7763
 9505TIP3    H150006   1.395   6.120  13.309  1.0373  1.0334  0.4735
 9505TIP3    H250007   1.483   6.030  13.393 -0.4247 -0.3346  0.5801
 9506TIP3   OH250008   1.122   3.059   5.079  0.4843 -0.0344  0.4731
 9506TIP3    H150009   1.050   3.018   5.031  2.2873 -0.5010 -1.9242
 9506TIP3    H250010   1.105   3.153   5.072 -0.3978 -0.1596  0.7920
 9507TIP3   OH250011   2.659   3.676   4.863 -0.4056 -0.3371 -0.1508
 9507TIP3    H150012   2.684   3.760   4.902 -0.6369  0.0324 -0.7861
 9507TIP3    H250013   2.585   3.698   4.806 -0.3406 -0.9393 -0.4652
 9508TIP3   OH250014   1.457   1.365   0.956  0.3237 -0.0780  0.2083
 9508TIP3    H150015   1.421   1.331   1.038  0.3592  0.4920  0.4651
 9508TIP3    H250016   1.407   1.322   0.887 -1.0059  0.8741  0.5682
 9509TIP3   OH250017   0.885   2.285   2.478 -0.5622  0.3220  0.2146
 9509TIP3    H150018   0.972   2.312   2.447 -0.8799  0.1424 -0.8597
 9509TIP3    H250019   0.849   2.364   2.520 -0.0424  0.5155  0.2932
 9510TIP3   OH250020   3.168   2.614  15.752  0.0483 -0.1323  0.5602
 9510TIP3    H150021   3.108   2.581  15.685 -0.5587 -0.6991  1.3731
 9510TIP3    H250022   3.208   2.536  15.790  0.1089  0.1615  1.1162
 9511TIP3   OH250023   5.644   2.591  12.522 -0.2945 -0.7035 -0.6614
 9511TIP3    H150024   5.689   2.512  12.549  0.2617  0.0753  0.7142
 9511TIP3    H250025   5.574   2.602  12.587  0.7094  0.8745  0.1753
 9512TIP3   OH250026   6.483   6.484  16.490  0.5200 -0.0802  0.0385
 9512TIP3    H150027   6.482   6.575  16.457  1.5356 -0.0342  0.1282
 9512TIP3    H250028   6.427   6.437  16.429  1.2904  0.2871 -0.9760
 9513TIP3   OH250029   0.096   4.554  15.741 -0.3140  0.0783  0.0926
 9513TIP3    H150030   0.133   4.480  15.789  1.1073  1.8482  1.7823
 9513TIP3    H250031   0.130   4.631  15.786 -3.6414  1.7828 -0.2029
 9514TIP3   OH250032   6.420   1.140  16.559  0.1040 -0.0730  0.4167
 9514TIP3    H150033   6.438   1.125  16.652  0.7210 -2.7848 -0.0884
 9514TIP3    H250034   6.415   1.235  16.550 -0.5581  0.2176  3.3260
 9515TIP3   OH250035   1.023   2.672   3.899 -0.1044 -0.6508  0.1415
 9515TIP3    H150036   1.026   2.759   3.859  1.6877 -0.3194  0.9605
 9515TIP3    H250037   1.015   2.612   3.825  3.3280 -0.0534 -0.7904
 9516TIP3   OH250038   3.322   0.608  12.751 -0.1857  0.4682  0.1846
 9516TIP3    H150039   3.274   0.585  12.671  1.2215 -0.6774 -0.3419
 9516TIP3    H250040   3.309   0.702  12.761 -0.6092  0.5595 -1.2342
 9517TIP3   OH250041   2.888   5.513  14.504 -0.2416 -0.2290 -0.5710
 9517TIP3    H150042   2.864   5.434  14.552  0.9147 -0.3413 -0.1783
 9517TIP3    H250043   2.810   5.532  14.450 -1.6333  0.0290  1.4681
 9518TIP3   OH250044   5.089   2.867   5.491  0.1024 -0.4193 -0.4160
 9518TIP3    H150045   5.028   2.827   5.552  1.1304  0.5859  1.3004
 9518TIP3    H250046   5.174   2.861   5.534  0.9113  0.0183 -1.8843
 9519TIP3   OH250047   3.761   3.413  14.611  0.5429 -0.8533  0.8938
 9519TIP3    H150048   3.760   3.489  14.553 -0.9082 -1.1231  0.5484
 9519TIP3    H250049   3.838   3.363  14.583  0.5146 -0.3893 -0.0342
 9520TIP3   OH250050   6.758   5.925  12.205 -0.0748  0.2663 -0.0152
 9520TIP3    H150051   6.727   5.884  12.285 -0.8875  0.2421 -0.3319
 9520TIP3    H250052   6.765   6.018  12.227  3.0408 -0.1809  1.0957
 9521TIP3   OH250053   1.481   5.635  10.724  0.6497 -0.2298  0.1611
 9521TIP3    H150054   1.536   5.710  10.749 -0.5127 -0.0594  2.3484
 9521TIP3    H250055   1.505   5.567  10.787  0.3200 -1.0752 -0.6167
 9522TIP3   OH250056   0.317   3.803   4.653  0.2346 -0.0043  0.0433
 9522TIP3    H150057   0.249   3.762   4.708 -0.7689 -0.8789 -1.8227
 9522TIP3    H250058   0.308   3.761   4.568  0.8748  2.2881 -1.2103
 9523TIP3   OH250059   5.852   3.962   1.078 -0.6363  0.3912  0.2813
 9523TIP3    H150060   5.848   4.054   1.104 -1.0120  0.2058  0.8741
 9523TIP3    H250061   5.887   3.916   1.154  1.0545  0.2522 -0.5462
 9524TIP3   OH250062   2.546   0.117   2.700  0.8854 -0.0925  0.4579
 9524TIP3    H150063   2.618   0.062   2.731 -0.4147 -0.7679  2.3980
 9524TIP3    H250064   2.473   0.057   2.685  0.3434  0.7269 -0.3069
 9525TIP3   OH250065   0.563   1.026   3.175  0.2821  0.6253  0.1605
 9525TIP3    H150066   0.481   0.977   3.177  1.5270 -1.4746  2.2804
 9525TIP3    H250067   0.537   1.116   3.197 -1.5466  0.1996 -0.1372
 9526TIP3   OH250068   4.277   2.417   0.082  0.5117 -0.5718  0.7342
 9526TIP3    H150069   4.211   2.392   0.017  1.0545  0.8841 -0.4082
 9526TIP3    H250070   4.229   2.419   0.165 -0.9568  0.6548 -0.1151
 9527TIP3   OH250071   0.335   6.015  11.462  0.1495 -0.3093  0.3982
 9527TIP3    H150072   0.306   5.930  11.428  0.4651 -0.1978 -0.1474
 9527TIP3    H250073   0.281   6.029  11.540 -1.4130 -0.0217 -0.7234
 9528TIP3   OH250074   6.794   6.352   3.219 -0.2147 -0.1997  0.1540
 9528TIP3    H150075   6.815   6.392   3.135 -0.0734  0.2354  0.3953
 9528TIP3    H250076   6.853   6.395   3.282 -0.5228 -0.3078  0.5214
 9529TIP3   OH250077   1.511   6.107  11.608 -0.4953  0.1907  0.0530
 9529TIP3    H150078   1.604   6.085  11.604 -0.2229  0.9383  1.8087
 9529TIP3    H250079   1.498   6.169  11.536  0.9480  2.0147  1.2909
 9530TIP3   OH250080   0.454   4.300  12.764 -0.0299  0.7458 -0.5532
 9530TIP3    H150081   0.431   4.304  12.857  1.2481  0.8733 -0.2339
 9530TIP3    H250082   0.375   4.327  12.719 -0.8718  0.0673  0.4790
 9531TIP3   OH250083   4.230   6.559  15.665 -0.8676  0.1908  0.4520
 9531TIP3    H150084   4.259   6.638  15.620 -0.4686 -0.5700 -0.6530
 9531TIP3    H250085   4.162   6.589  15.725 -0.1787  1.4851  0.6071
 9532TIP3   OH250086   2.501   4.695   3.206  0.3547  0.0182 -0.5624
 9532TIP3    H150087   2.489   4.600   3.201 -1.1433  0.1869 -0.4025
 9532TIP3    H250088   2.554   4.717   3.130  0.0998 -0.8602 -0.9926
 9533TIP3   OH250089   6.311   2.702   2.007 -0.0579  0.7147 -0.3965
 9533TIP3    H150090   6.292   2.647   1.931 -2.3051  0.8750  0.0035
 9533TIP3    H250091   6.230   2.750   2.022  0.6941  1.4386  1.4904
 9534TIP3   OH250092   5.344   0.566   5.315 -0.3947 -0.3466 -0.4433
 9534TIP3    H150093   5.255   0.602   5.324 -0.4801 -0.3813 -1.1035
 9534TIP3    H250094   5.333   0.489   5.259 -0.0201 -0.6537 -0.1007
 9535TIP3   OH250095   4.808   2.945   2.004 -0.1760  0.0992 -0.6625
 9535TIP3    H150096   4.870   2.943   1.931 -0.6541  1.9385 -1.1344
 9535TIP3    H250097   4.844   3.010   2.064 -0.9712  0.2300 -0.3210
 9536TIP3   OH250098   3.285   3.631  11.450 -0.2431  0.2675 -0.2209
 9536TIP3    H150099   3.202   3.677  11.443  0.1863  0.8750 -1.4880
 9536TIP3    H250100   3.267   3.543  11.417 -0.4251  0.3524 -0.3469
 9537TIP3   OH250101   2.291   6.401   4.254 -0.3178 -0.4097 -0.0631
 9537TIP3    H150102   2.264   6.493   4.260  1.3156  0.0670  0.3562
 9537TIP3    H250103   2.278   6.366   4.342 -0.4637 -0.4400 -0.0967
 9538TIP3   OH250104   5.161   5.126  16.626 -0.3872 -0.0602 -0.6664
 9538TIP3    H150105   5.215   5.199  16.658  0.0855  0.2607 -2.1514
 9538TIP3    H250106   5.185   5.052  16.683 -0.0007  0.6344  0.0885
 9539TIP3   OH250107   3.074   1.617   3.092 -0.2250 -0.7088  0.1293
 9539TIP3    H150108   3.024   1.682   3.141  0.5709 -1.4187  1.9143
 9539TIP3    H250109   3.164   1.647   3.096 -0.1260 -0.8457 -0.8128
 9540TIP3   OH250110   3.944   0.103  11.494 -0.5084  0.1594  0.0095
 9540TIP3    H150111   3.990   0.161  11.435 -1.5295  0.1163 -0.8468
 9540TIP3    H250112   3.852   0.128  11.485 -0.8184 -0.7499  0.5674
 9541TIP3   OH250113   2.339   5.507   5.916  0.0107  0.0887  0.6546
 9541TIP3    H150114   2.281   5.582   5.931 -0.1765 -0.2168  1.4990
 9541TIP3    H250115   2.359   5.474   6.004 -0.5255 -1.3111  0.2684
 9542TIP3   OH250116   2.409   6.171  12.106 -0.3848  0.3821 -0.1999
 9542TIP3    H150117   2.414   6.081  12.076  2.4409  0.3037  0.3582
 9542TIP3    H250118   2.348   6.213  12.045 -1.0497 -1.6675 -1.0010
 9543TIP3   OH250119   5.956   0.727   3.648  0.4165  0.1810  0.3331
 9543TIP3    H150120   5.969   0.733   3.742 -1.0588  0.9725  0.5050
 9543TIP3    H250121   5.877   0.675   3.637 -0.1943  1.2257 -0.4040
 9544TIP3   OH250122   6.218   3.630  13.953  0.8466  0.1543  0.1254
 9544TIP3    H150123   6.207   3.555  14.012 -1.2696 -0.7250 -1.3208
 9544TIP3    H250124   6.229   3.591  13.866  0.4450  1.5075 -0.5483
 9545TIP3   OH250125   3.279   4.561   3.117 -0.8161  0.2665  0.0147
 9545TIP3    H150126   3.271   4.634   3.179 -2.4245 -1.7708  2.3036
 9545TIP3    H250127   3.228   4.588   3.041  0.0301  2.2240  0.1092
 9546TIP3   OH250128   0.313   1.349  13.819  0.7416  0.4131 -0.1736
 9546TIP3    H150129   0.388   1.317  13.869  1.1276  3.6885  1.4827
 9546TIP3    H250130   0.286   1.428  13.865 -0.6814  1.9908 -3.5754
 9547TIP3   OH250131   1.254   1.641  13.534 -0.0059 -0.3212  0.1607
 9547TIP3    H150132   1.275   1.679  13.448  0.4376  0.2774  0.5256
 9547TIP3    H250133   1.244   1.717  13.592 -0.6445 -0.7099  0.5653
 9548TIP3   OH250134   2.458   1.155   4.640  0.5395 -0.1619 -0.2155
 9548TIP3    H150135   2.463   1.073   4.689 -1.6141  0.3082  0.8302
 9548TIP3    H250136   2.379   1.147   4.587 -1.3704  2.3894  2.0996
 9549TIP3   OH250137   5.945   5.006  13.351 -0.2670 -0.0912 -0.2664
 9549TIP3    H150138   6.020   4.981  13.297  0.0692  0.2647  0.0277
 9549TIP3    H250139   5.982   5.021  13.438 -0.5164  1.0344 -0.3472
 9550TIP3   OH250140   4.621   3.492  15.753 -0.3489 -0.5312  0.0703
 9550TIP3    H150141   4.687   3.504  15.822 -1.4398  1.3690  0.8177
 9550TIP3    H250142   4.640   3.406  15.717  1.0540 -1.0247  1.8941
 9551TIP3   OH250143   0.791   4.662  15.445  0.1428  0.2792 -0.3250
 9551TIP3    H150144   0.814   4.600  15.515  0.3392  0.6068 -0.0991
 9551TIP3    H250145   0.870   4.666  15.391  0.7259  1.6371  0.6223
 9552TIP3   OH250146   6.136   4.705   6.121  0.2217  0.3860  0.0594
 9552TIP3    H150147   6.050   4.747   6.132 -1.0266 -1.8657 -0.6856
 9552TIP3    H250148   6.162   4.680   6.209 -0.1046  0.7058  0.2467
 9553TIP3   OH250149   1.815   5.501   0.561  1.1444 -0.5214 -0.5678
 9553TIP3    H150150   1.876   5.528   0.629  1.4397 -0.4158 -0.8741
 9553TIP3    H250151   1.870   5.459   0.495  0.8861 -0.4446 -0.8318
 9554TIP3   OH250152   1.421   3.019   0.712 -0.2017 -0.4325  0.3306
 9554TIP3    H150153   1.443   2.959   0.783  0.8838 -0.0441  0.3239
 9554TIP3    H250154   1.468   3.099   0.732 -0.7501  0.0432 -0.2619
 9555TIP3   OH250155   2.017   4.505   0.949 -1.2248 -0.3047 -0.4686
 9555TIP3    H150156   2.031   4.584   0.896  2.0299 -0.1386  0.5384
 9555TIP3    H250157   2.071   4.519   1.027 -1.0827 -3.2825  0.0191
 9556TIP3   OH250158   4.360   4.921  12.326  0.3861  0.0632  0.0929
 9556TIP3    H150159   4.350   5.015  12.340  2.4802  0.4320 -0.8025
 9556TIP3    H250160   4.448   4.911  12.290  0.5233 -2.3260  1.0083
 9557TIP3   OH250161   0.767   0.725   1.681 -0.7278  0.2148  0.0203
 9557TIP3    H150162   0.772   0.737   1.776  0.4219 -1.0149  0.1315
 9557TIP3    H250163   0.705   0.792   1.651 -1.0351  0.6594  1.6235
 9558TIP3   OH250164   3.363   6.081   1.586 -0.4315  0.2183 -0.8921
 9558TIP3    H150165   3.354   6.009   1.524  1.0452 -1.2543  0.5687
 9558TIP3    H250166   3.339   6.043   1.671  2.3753  0.8093  0.2388
 9559TIP3   OH250167   3.893   4.742  14.233 -0.3405  0.1103 -0.4937
 9559TIP3    H150168   3.984   4.748  14.261 -0.6338  0.8026  0.3307
 9559TIP3    H250169   3.866   4.833  14.218 -0.2785 -0.2207 -2.7854
 9560TIP3   OH250170   3.154   4.061  17.279  0.3179  0.5734  0.3118
 9560TIP3    H150171   3.232   4.090  17.232 -0.2604  2.4832  0.4932
 9560TIP3    H250172   3.121   4.140  17.323  0.4092 -1.0120  3.3159
 9561TIP3   OH250173   5.189   4.027  14.219  0.1747 -0.1221  0.0826
 9561TIP3    H150174   5.156   4.114  14.196 -0.2746 -0.0982  0.7811
 9561TIP3    H250175   5.110   3.975  14.235  0.4569 -0.3048  0.9098
 9562TIP3   OH250176   0.847   0.939   2.292  0.1739  0.4493 -0.0019
 9562TIP3    H150177   0.915   0.987   2.247  0.2605 -1.9439 -2.5421
 9562TIP3    H250178   0.772   0.941   2.233 -0.7935  0.0133  1.1757
 9563TIP3   OH250179   1.149   3.336   1.050 -0.6593  0.7921  0.2822
 9563TIP3    H150180   1.226   3.378   1.088 -0.9618  0.4466  1.3048
 9563TIP3    H250181   1.118   3.398   0.984  2.2331 -0.3827 -2.3222
 9564TIP3   OH250182   1.840   3.248   5.367 -0.0241 -0.2267 -0.5102
 9564TIP3    H150183   1.781   3.240   5.442  0.6589  1.9595  0.2949
 9564TIP3    H250184   1.810   3.181   5.306 -1.2757 -1.3246  1.2547
 9565TIP3   OH250185   5.127   1.492   2.331 -0.1975 -0.7424  0.1995
 9565TIP3    H150186   5.158   1.437   2.403 -0.1938 -0.2128  0.5992
 9565TIP3    H250187   5.207   1.526   2.290 -0.2163  2.9556  3.0013
 9566TIP3   OH250188   1.753   5.691   2.560  0.4662  0.1595  0.2451
 9566TIP3    H150189   1.745   5.652   2.473  1.2946 -1.4815  0.8838
 9566TIP3    H250190   1.720   5.781   2.550 -0.8046 -0.4738 -1.4206
 9567TIP3   OH250191   4.708   5.363  14.300 -0.5478 -0.1352 -0.5046
 9567TIP3    H150192   4.790   5.336  14.341 -1.3753 -0.3689  1.0404
 9567TIP3    H250193   4.719   5.456  14.282  0.5259 -0.4459 -1.4580
 9568TIP3   OH250194   3.139   4.261   1.797  0.4956  0.7400 -0.0264
 9568TIP3    H150195   3.086   4.307   1.731 -0.1691 -0.1212 -0.0893
 9568TIP3    H250196   3.121   4.308   1.878 -0.6042  0.2794  0.0129
 9569TIP3   OH250197   0.877   0.889  12.234  0.1372 -0.5303  0.1705
 9569TIP3    H150198   0.873   0.795  12.252 -1.7338 -0.4137  0.4219
 9569TIP3    H250199   0.964   0.902  12.195  0.6483 -2.2551  0.6866
 9570TIP3   OH250200   4.133   1.809  12.790  0.0461 -0.1182 -0.5411
 9570TIP3    H150201   4.166   1.763  12.867  0.3790 -0.4321 -0.8688
 9570TIP3    H250202   4.141   1.902  12.813 -1.5415 -0.2223  0.5015
 9571TIP3   OH250203   2.266   0.983   1.082  0.2744 -0.1340 -0.7191
 9571TIP3    H150204   2.307   1.040   1.017  0.6534  2.0938  1.3897
 9571TIP3    H250205   2.173   1.006   1.079  0.4672  0.8069  0.3164
 9572TIP3   OH250206   1.427   6.312  15.156 -0.3023 -0.2183  0.1145
 9572TIP3    H150207   1.477   6.305  15.074 -1.4341  0.9594 -0.6926
 9572TIP3    H250208   1.338   6.287  15.132 -0.6875  0.3401  0.9308
 9573TIP3   OH250209   2.093   2.348  14.534 -0.0140 -0.2909  0.0174
 9573TIP3    H150210   2.110   2.315  14.622  0.8433 -0.3207 -0.1642
 9573TIP3    H250211   2.167   2.319  14.481  0.8569  2.0408 -0.1118
 9574TIP3   OH250212   3.927   3.895   0.161 -0.0026  0.0512 -0.0701
 9574TIP3    H150213   3.914   3.989   0.154 -0.8738 -0.0784 -0.2826
 9574TIP3    H250214   3.873   3.858   0.091 -1.9039 -0.7671  1.7845
 9575TIP3   OH250215   3.480   6.166  14.327  0.2634  0.2043  0.0983
 9575TIP3    H150216   3.531   6.212  14.394 -0.8667  1.1901  0.3133
 9575TIP3    H250217   3.443   6.091  14.372  0.2135  0.3837  0.3584
 9576TIP3   OH250218   5.442   4.933   2.605 -0.5023  0.0647 -0.2296
 9576TIP3    H150219   5.346   4.944   2.606 -0.3112  2.0268 -0.3182
 9576TIP3    H250220   5.473   5.007   2.552  1.0463 -0.7956 -0.5470
 9577TIP3   OH250221   4.003   6.223  16.405 -0.6453 -0.4188 -0.2513
 9577TIP3    H150222   3.925   6.196  16.357 -0.9637  1.1031 -0.6166
 9577TIP3    H250223   4.072   6.224  16.339 -0.7138  0.0402 -0.3108
 9578TIP3   OH250224   2.630   4.982   3.142 -0.2288 -0.0073  0.5430
 9578TIP3    H150225   2.715   4.959   3.179 -0.4559 -0.3215  0.8775
 9578TIP3    H250226   2.586   5.031   3.212 -0.8947 -1.1218  0.9216
 9579TIP3   OH250227   1.841   5.070  12.515  0.0821 -0.1032  0.5072
 9579TIP3    H150228   1.798   5.148  12.549 -1.0650 -0.0074 -1.0751
 9579TIP3    H250229   1.932   5.096  12.501 -0.3429  1.0036 -0.1910
 9580TIP3   OH250230   3.902   5.333  14.533 -0.2582 -0.3430 -0.2046
 9580TIP3    H150231   3.965   5.328  14.605 -1.5542 -0.0033  0.9901
 9580TIP3    H250232   3.894   5.427  14.516 -1.1105 -0.3238  0.2724
 9581TIP3   OH250233   1.441   5.909   2.741 -0.8182 -0.2829 -0.3009
 9581TIP3    H150234   1.459   5.962   2.663  1.7376 -0.8884 -0.1642
 9581TIP3    H250235   1.415   5.823   2.706 -0.3367 -0.3509 -0.4953
 9582TIP3   OH250236   4.054   4.221  14.426  0.3688 -0.2408 -0.4353
 9582TIP3    H150237   3.981   4.201  14.367  1.3618  0.5096 -1.9667
 9582TIP3    H250238   4.030   4.304  14.467  0.1377 -0.2453 -0.5621
 9583TIP3   OH250239   0.493   1.680  15.558  0.0170 -0.5991  0.6893
 9583TIP3    H150240   0.411   1.711  15.519  0.4284  1.6162  1.5095
 9583TIP3    H250241   0.554   1.674  15.485 -0.5041 -0.9206  0.2793
 9584TIP3   OH250242   3.097   1.907   6.344  0.3520 -0.0362 -0.6619
 9584TIP3    H150243   3.018   1.854   6.335  1.0433 -1.1948 -0.1403
 9584TIP3    H250244   3.145   1.893   6.262  0.9178 -0.8799 -0.1938
 9585TIP3   OH250245   3.050   0.457   4.391  0.0418 -0.1719  0.1143
 9585TIP3    H150246   3.141   0.431   4.409 -0.4876 -1.4710  1.0154
 9585TIP3    H250247   3.050   0.484   4.299  0.7699 -2.7708 -0.6785
 9586TIP3   OH250248   0.304   5.573   2.892 -0.3304 -0.2577  0.3442
 9586TIP3    H150249   0.239   5.568   2.822 -0.1475 -0.3400  0.1797
 9586TIP3    H250250   0.387   5.547   2.851  0.3110  2.3205 -0.1000
 9587TIP3   OH250251   2.295   5.240   0.321 -0.2493 -0.2141  0.3621
 9587TIP3    H150252   2.206   5.205   0.318 -0.2283 -0.1912 -1.1778
 9587TIP3    H250253   2.283   5.333   0.340 -0.6688  0.0866 -1.2632
 9588TIP3   OH250254   4.850   3.553  12.298  0.6439  0.3220  0.4512
 9588TIP3    H150255   4.890   3.512  12.221 -1.2437 -0.9591  0.1051
 9588TIP3    H250256   4.923   3.593  12.345  1.9819  0.1077 -1.3932
 9589TIP3   OH250257   6.300   4.618  16.630 -0.6099  0.4458 -0.5974
 9589TIP3    H150258   6.229   4.672  16.664 -1.5810 -0.8378 -0.5369
 9589TIP3    H250259   6.351   4.677  16.575 -3.0818  0.8266 -2.5509
 9590TIP3   OH250260   0.600   2.495  16.349 -0.2214  0.0059 -0.0746
 9590TIP3    H150261   0.622   2.402  16.343  2.2846  0.5932 -0.6914
 9590TIP3    H250262   0.620   2.518  16.440 -1.0327 -0.0900  0.1321
 9591TIP3   OH250263   2.868   4.769   4.137 -0.4629  0.3697  0.3111
 9591TIP3    H150264   2.825   4.841   4.183 -0.2529  0.5850  0.1685
 9591TIP3    H250265   2.937   4.811   4.086 -1.2273  0.2266 -0.8545
 9592TIP3   OH250266   2.045   0.954   1.624 -0.0046 -0.0214  0.2895
 9592TIP3    H150267   2.107   0.955   1.551  1.1135  1.9783  1.2219
 9592TIP3    H250268   2.091   0.907   1.694 -0.5090 -0.6651  0.1966
 9593TIP3   OH250269   6.546   1.469   2.872  0.2760  0.1767  0.0388
 9593TIP3    H150270   6.529   1.542   2.932 -0.9080 -0.1878  0.1661
 9593TIP3    H250271   6.459   1.436   2.850  0.7996 -1.0459 -0.2122
 9594TIP3   OH250272   4.324   0.539  12.363  0.0797  0.2654  0.4853
 9594TIP3    H150273   4.283   0.546  12.450 -2.1795 -0.1082 -0.5071
 9594TIP3    H250274   4.319   0.627  12.327 -1.2635 -0.0938 -0.2371
 9595TIP3   OH250275   0.632   3.687  17.193 -0.0673  0.1557 -0.6394
 9595TIP3    H150276   0.584   3.769  17.205  0.6618  0.8962 -2.5819
 9595TIP3    H250277   0.723   3.711  17.210 -0.4459 -1.6268  4.8332
 9596TIP3   OH250278   6.527   4.480   1.601 -0.3925  0.2724 -0.1769
 9596TIP3    H150279   6.538   4.440   1.515 -0.2506  0.0123 -0.0382
 9596TIP3    H250280   6.616   4.496   1.631 -0.3566 -2.3076  1.1729
 9597TIP3   OH250281   2.582   1.434  14.193 -0.7623  0.2581 -0.4244
 9597TIP3    H150282   2.595   1.525  14.164  0.4326 -0.2562 -1.5680
 9597TIP3    H250283   2.500   1.407  14.153  0.3367 -0.0918 -2.5338
 9598TIP3   OH250284   5.766   5.752  15.871 -0.3931 -0.0985  0.2343
 9598TIP3    H150285   5.744   5.667  15.909  1.0958 -0.6287 -0.0294
 9598TIP3    H250286   5.716   5.756  15.790 -1.2910 -0.2507  0.7691
 9599TIP3   OH250287   5.752   2.058   0.732 -0.3934 -0.2323 -0.1867
 9599TIP3    H150288   5.729   2.114   0.658 -2.1608 -2.0842 -1.0804
 9599TIP3    H250289   5.735   2.112   0.809 -1.5979  0.6299 -1.0358
 9600TIP3   OH250290   1.056   2.769  10.808  0.0756  0.3688 -0.1424
 9600TIP3    H150291   1.023   2.858  10.813 -2.0609 -0.4475  1.2764
 9600TIP3    H250292   0.983   2.718  10.772  2.0130 -0.4817 -3.0805
 9601TIP3   OH250293   2.520   2.797   0.643  0.2512  0.0099  0.2529
 9601TIP3    H150294   2.559   2.813   0.729 -0.2575  2.7875  0.0182
 9601TIP3    H250295   2.440   2.749   0.662  0.2727  0.3796  1.3237
 9602TIP3   OH250296   2.695   3.365  13.852 -0.5370 -0.2761  0.1144
 9602TIP3    H150297   2.604   3.373  13.880 -0.2637  1.1351  0.6088
 9602TIP3    H250298   2.689   3.349  13.758 -1.2592  1.6526 -0.1912
 9603TIP3   OH250299   6.712   6.184  12.083  0.1654  0.6953 -0.3919
 9603TIP3    H150300   6.620   6.204  12.066 -0.1446 -0.1833  0.2041
 9603TIP3    H250301   6.741   6.137  12.006  0.2182  1.2797 -0.7334
 9604TIP3   OH250302   5.645   3.859  11.122 -0.4303 -0.2178  0.5235
 9604TIP3    H150303   5.596   3.847  11.041  0.7527  0.1152 -0.2569
 9604TIP3    H250304   5.719   3.799  11.114  0.7207  1.1538  0.4958
 9605TIP3   OH250305   4.416   5.164  16.372 -0.2139  0.0628  0.0938
 9605TIP3    H150306   4.430   5.205  16.286 -1.3803  1.3788  0.5147
 9605TIP3    H250307   4.336   5.113  16.361 -0.0346 -0.2441  0.2267
 9606TIP3   OH250308   5.840   1.199  11.993 -0.4917 -0.8300  0.4363
 9606TIP3    H150309   5.787   1.246  12.058 -0.7053 -1.6343  0.8626
 9606TIP3    H250310   5.814   1.107  12.005  2.3347 -1.4743  1.9154
 9607TIP3   OH250311   1.646   6.237   5.710 -0.0012 -0.0243  0.6396
 9607TIP3    H150312   1.633   6.310   5.649  4.8303  1.3481  0.9782
 9607TIP3    H250313   1.619   6.272   5.795 -1.0122  0.1443  0.2566
 9608TIP3   OH250314   6.045   0.666  16.830 -0.5039 -0.0634  0.1162
 9608TIP3    H150315   6.100   0.591  16.852  0.4121  0.7467  0.5997
 9608TIP3    H250316   5.968   0.655  16.886 -0.3732 -0.6359  0.1912
 9609TIP3   OH250317   2.438   3.646  12.446 -0.1066 -0.6086  0.3015
 9609TIP3    H150318   2.444   3.572  12.386  0.2362  0.5053 -1.0729
 9609TIP3    H250319   2.438   3.723  12.389  1.4271  0.5332  1.7650
 9610TIP3   OH250320   2.913   2.090  13.958 -0.6301  0.3488 -0.0696
 9610TIP3    H150321   2.886   2.000  13.972  0.6013  0.1479  1.0337
 9610TIP3    H250322   2.976   2.086  13.886 -1.7185  0.5345 -1.0561
 9611TIP3   OH250323   1.900   3.498   2.853 -0.1439 -0.0600 -0.2637
 9611TIP3    H150324   1.892   3.524   2.945  0.8818  0.5119 -0.3292
 9611TIP3    H250325   1.935   3.409   2.857 -2.6907 -1.0866 -0.0613
 9612TIP3   OH250326   3.582   0.972   4.348 -0.0067 -0.1924  0.1975
 9612TIP3    H150327   3.528   1.038   4.304  0.8591 -0.1319 -0.7860
 9612TIP3    H250328   3.558   0.890   4.304 -1.2925 -0.5967  1.6097
 9613TIP3   OH250329   0.436   0.740   5.643 -0.0500 -1.0953 -0.2006
 9613TIP3    H150330   0.458   0.787   5.563  3.1845 -1.4081  0.4474
 9613TIP3    H250331   0.391   0.662   5.613 -1.3679  0.1425 -1.5359
 9614TIP3   OH250332   0.639   1.487   2.881 -0.0918  0.9607 -0.0195
 9614TIP3    H150333   0.579   1.500   2.955 -0.3283 -0.3853  0.0273
 9614TIP3    H250334   0.647   1.392   2.873 -0.0863  1.0989 -1.7502
 9615TIP3   OH250335   5.314   5.595   3.652 -0.0184 -0.2421 -0.5859
 9615TIP3    H150336   5.241   5.650   3.624  0.4513 -0.0961 -1.5244
 9615TIP3    H250337   5.286   5.561   3.737 -0.5133  1.0724 -0.2048
 9616TIP3   OH250338   5.761   4.036  11.785  0.0373 -0.1991 -0.2373
 9616TIP3    H150339   5.825   4.033  11.714 -0.6294 -2.4247 -0.7755
 9616TIP3    H250340   5.693   3.973  11.759 -1.4519  0.7709  1.1919
 9617TIP3   OH250341   6.638   0.785  11.156  0.4347  0.6578 -0.4450
 9617TIP3    H150342   6.725   0.770  11.192  0.6605  0.5524 -1.0358
 9617TIP3    H250343   6.602   0.856  11.210  0.6061  0.2202  0.2593
 9618TIP3   OH250344   4.788   3.035   0.010 -0.1278 -0.0345 -0.7161
 9618TIP3    H150345   4.739   3.118   0.008  0.0021  0.0730  0.2938
 9618TIP3    H250346   4.845   3.043   0.086 -1.4807 -1.8280  0.5383
 9619TIP3   OH250347   2.260   0.012   2.946 -0.3380  0.2276  0.9229
 9619TIP3    H150348   2.306  -0.017   2.868  1.1424 -3.2117  2.9477
 9619TIP3    H250349   2.178   0.050   2.914  0.1069 -1.3635 -2.2394
 9620TIP3   OH250350   1.830   1.241  13.209  0.0271 -0.8569 -0.2800
 9620TIP3    H150351   1.767   1.190  13.158  0.6548  0.4091 -2.3875
 9620TIP3    H250352   1.865   1.179  13.273 -1.2214 -2.3447 -1.0058
 9621TIP3   OH250353   3.527   5.359  14.171  0.5202  0.0563  0.7941
 9621TIP3    H150354   3.473   5.296  14.123  0.9029  1.0698 -1.0322
 9621TIP3    H250355   3.495   5.355  14.261 -2.7874  0.7680 -0.2491
 9622TIP3   OH250356   1.990   3.801  11.992 -0.2378 -0.3045  0.1507
 9622TIP3    H150357   1.941   3.788  11.910 -2.4781  1.2146  1.1988
 9622TIP3    H250358   1.959   3.733  12.050  1.2773 -1.3153 -0.1884
 9623TIP3   OH250359   3.785   4.675   2.442 -0.5103  0.0271 -0.0696
 9623TIP3    H150360   3.807   4.682   2.535  1.3878  2.0166 -0.6110
 9623TIP3    H250361   3.807   4.585   2.419  1.2463  0.1811  0.8941
 9624TIP3   OH250362   1.745   2.448   0.705 -0.3360 -0.1807  0.9052
 9624TIP3    H150363   1.754   2.538   0.674  1.6402  0.1665  2.3754
 9624TIP3    H250364   1.680   2.453   0.775 -1.5328 -0.2109 -0.1941
 9625TIP3   OH250365   4.959   1.691   2.532  0.2896 -0.5272  0.3814
 9625TIP3    H150366   4.946   1.610   2.580 -1.2794  0.4189  1.5841
 9625TIP3    H250367   4.982   1.663   2.443  1.1506 -2.2618  1.1293
 9626TIP3   OH250368   3.235   3.048   0.407 -0.0666 -0.0142  0.1783
 9626TIP3    H150369   3.152   3.049   0.455  1.3566 -0.0935  2.7154
 9626TIP3    H250370   3.266   3.138   0.412  0.3395 -0.1399 -0.1349
 9627TIP3   OH250371   4.181   2.790  11.778 -0.1047  0.1136  0.2092
 9627TIP3    H150372   4.272   2.807  11.753 -0.9335  0.0550 -3.0536
 9627TIP3    H250373   4.137   2.874  11.768 -0.3241  0.3295  2.5194
 9628TIP3   OH250374   0.091   2.557  11.923 -0.3509 -0.0252  0.1594
 9628TIP3    H150375   0.006   2.602  11.926  0.0084  0.6396  0.6253
 9628TIP3    H250376   0.088   2.495  11.996 -0.5254 -0.1685  0.0321
 9629TIP3   OH250377   1.947   4.911   0.345 -0.3704  0.2035 -0.2615
 9629TIP3    H150378   1.922   4.841   0.285  0.6797  0.8437 -1.4639
 9629TIP3    H250379   1.873   4.918   0.405 -0.5429 -1.8418 -0.2023
 9630TIP3   OH250380   6.482   6.255  15.149  0.2481 -0.3878 -0.1715
 9630TIP3    H150381   6.530   6.277  15.229  1.6741  0.1885 -1.1422
 9630TIP3    H250382   6.448   6.339  15.118  1.2600 -0.2997 -1.1110
 9631TIP3   OH250383   5.051   3.693  11.822 -0.6558 -0.0938  0.3873
 9631TIP3    H150384   5.097   3.677  11.904 -2.2356 -0.1454  1.2701
 9631TIP3    H250385   5.039   3.606  11.785 -0.3251 -0.1042  0.2976
 9632TIP3   OH250386   3.372   0.196   2.633  0.8707  0.3768 -0.2870
 9632TIP3    H150387   3.461   0.216   2.606  1.6233  0.3006  2.0554
 9632TIP3    H250388   3.368   0.223   2.724 -1.3944  0.0052 -0.2504
 9633TIP3   OH250389   1.519   3.878  12.694 -0.3907 -0.4633 -0.1916
 9633TIP3    H150390   1.439   3.831  12.672  0.1864 -0.8290 -1.5672
 9633TIP3    H250391   1.565   3.820  12.754  0.4043 -1.7929 -2.0239
 9634TIP3   OH250392   3.843   2.555   4.502  0.1263 -0.3862  0.4188
 9634TIP3    H150393   3.820   2.537   4.594  0.5744 -0.4824  0.5125
 9634TIP3    H250394   3.873   2.471   4.468 -1.1770 -0.6325 -0.1650
 9635TIP3   OH250395   4.650   5.033   3.344  0.4099  0.9685 -0.4343
 9635TIP3    H150396   4.745   5.036   3.358  0.6636  1.2244 -2.1253
 9635TIP3    H250397   4.614   5.005   3.428  2.0968 -0.4733 -0.1728
 9636TIP3   OH250398   2.877   4.356  15.758 -0.1325  0.8969 -0.0843
 9636TIP3    H150399   2.818   4.320  15.693  1.0659  1.5805 -1.5892
 9636TIP3    H250400   2.965   4.334  15.726  0.4587  0.2283  1.9080
 9637TIP3   OH250401   0.395   6.375  13.523 -0.1116 -0.1999  0.0142
 9637TIP3    H150402   0.375   6.469  13.519  1.4047  0.1634  0.8047
 9637TIP3    H250403   0.363   6.347  13.608  0.1530 -0.2342  0.1021
 9638TIP3   OH250404   4.508   6.371   6.286  0.0087 -0.1784 -0.0477
 9638TIP3    H150405   4.450   6.296   6.300  0.9076 -0.9567 -0.4151
 9638TIP3    H250406   4.591   6.332   6.259 -0.0383  1.0320 -1.9944
 9639TIP3   OH250407   2.730   2.563  12.188 -0.1635 -0.3540 -0.2732
 9639TIP3    H150408   2.807   2.590  12.138  0.2442  0.4635  0.7744
 9639TIP3    H250409   2.751   2.476  12.220  0.2447 -0.2214 -0.1783
 9640TIP3   OH250410   5.156   6.080   3.045 -0.4288 -0.2879 -0.0449
 9640TIP3    H150411   5.136   6.019   2.975 -2.0176  0.2102 -0.0467
 9640TIP3    H250412   5.213   6.031   3.104  0.4691 -0.8827 -1.4041
 9641TIP3   OH250413   1.876   6.777   1.082 -0.2587  0.4962  0.3241
 9641TIP3    H150414   1.795   6.738   1.115 -0.3627  1.1606  0.8642
 9641TIP3    H250415   1.935   6.702   1.067  0.3178  0.2684  3.4361
 9642TIP3   OH250416   3.875   1.711  13.185  0.2460  0.7351  0.5229
 9642TIP3    H150417   3.940   1.698  13.254 -0.2216  0.1169  0.8488
 9642TIP3    H250418   3.876   1.805  13.169  1.2574  0.7318  0.4903
 9643TIP3   OH250419   1.297   2.667  16.888 -0.0146 -0.5007  0.3923
 9643TIP3    H150420   1.386   2.677  16.856 -0.1265  1.3367  0.5886
 9643TIP3    H250421   1.305   2.609  16.964  1.3764  1.4476  1.8064
 9644TIP3   OH250422   6.063   5.799  13.060  0.3847 -0.1397 -0.7101
 9644TIP3    H150423   6.122   5.807  13.134 -0.5515  0.5125 -0.0227
 9644TIP3    H250424   6.096   5.724  13.010  0.8142 -0.7983  0.5481
 9645TIP3   OH250425   1.944   6.664   5.443 -0.0278 -0.3299  0.4697
 9645TIP3    H150426   1.881   6.663   5.372  0.5071  1.8740 -0.0784
 9645TIP3    H250427   1.956   6.757   5.464  0.2302 -0.8932  3.0731
 9646TIP3   OH250428   3.844   1.789   4.076  0.3644  0.4285 -0.0879
 9646TIP3    H150429   3.763   1.827   4.110 -0.3893  0.3324 -1.7595
 9646TIP3    H250430   3.844   1.811   3.983  2.6912  1.1998  0.0626
 9647TIP3   OH250431   0.221   1.831  12.481 -0.0051  0.5222  0.6997
 9647TIP3    H150432   0.151   1.787  12.432 -0.0585  1.1977  0.1538
 9647TIP3    H250433   0.217   1.793  12.568  1.2909 -2.0699 -0.3043
 9648TIP3   OH250434   2.757   5.273   5.128  0.4591 -0.2928  0.3167
 9648TIP3    H150435   2.827   5.306   5.071  0.3656  0.9586  0.9111
 9648TIP3    H250436   2.797   5.269   5.215  0.4409 -1.6920  0.2839
 9649TIP3   OH250437   4.447   6.402  15.639 -0.2183  0.9001  0.4336
 9649TIP3    H150438   4.378   6.467  15.657  0.5625  1.6605  0.7090
 9649TIP3    H250439   4.492   6.437  15.562 -1.2806 -0.5239 -0.8705
 9650TIP3   OH250440   2.567   1.991   6.041  0.0991 -0.8100  0.0220
 9650TIP3    H150441   2.479   1.955   6.050 -0.7948  1.3913  0.3841
 9650TIP3    H250442   2.584   2.034   6.125  1.0858 -0.2942 -0.4280
 9651TIP3   OH250443   0.660   5.023   1.337  0.2659 -0.2681  0.2746
 9651TIP3    H150444   0.638   4.964   1.409  1.6685  0.7695  1.5653
 9651TIP3    H250445   0.719   4.972   1.282 -1.0756 -1.1838 -0.3527
 9652TIP3   OH250446   2.374   6.312  15.577  0.0818  0.2122  0.3149
 9652TIP3    H150447   2.314   6.237  15.585 -0.7037  0.8175  0.1554
 9652TIP3    H250448   2.390   6.340  15.667  0.8444 -0.5085  0.4091
 9653TIP3   OH250449   4.118   1.009  14.988  0.0089  0.6301  0.2410
 9653TIP3    H150450   4.170   1.034  14.912  2.0947 -2.5244  0.5809
 9653TIP3    H250451   4.055   0.945  14.955 -0.8141  1.1826  0.6983
 9654TIP3   OH250452   3.955   6.578   5.322  0.0574 -0.2106 -0.3032
 9654TIP3    H150453   4.014   6.585   5.397  0.5504  1.3812 -0.8229
 9654TIP3    H250454   4.012   6.585   5.246 -0.5482 -0.9196 -0.8289
 9655TIP3   OH250455   1.918   5.272  15.000  0.1666 -0.1144 -0.5160
 9655TIP3    H150456   1.964   5.249  14.920 -1.8342  0.0428 -1.7367
 9655TIP3    H250457   1.845   5.210  15.005 -0.1363  0.3258  0.7989
 9656TIP3   OH250458   0.661   3.621   5.473 -0.3708 -0.2844  0.1341
 9656TIP3    H150459   0.568   3.628   5.452 -0.3230  0.4816  0.1700
 9656TIP3    H250460   0.706   3.632   5.390 -0.3566 -1.9560 -0.0874
 9657TIP3   OH250461   3.894   2.122   1.761  0.1555 -0.0133 -0.1509
 9657TIP3    H150462   3.815   2.069   1.756  0.9547 -1.0877 -1.7407
 9657TIP3    H250463   3.879   2.194   1.699  0.1228  0.1619  0.0629
 9658TIP3   OH250464   2.096   1.764   0.996  0.0170 -0.0996 -0.0436
 9658TIP3    H150465   2.095   1.732   0.905 -0.7013 -0.1607 -0.0223
 9658TIP3    H250466   2.178   1.731   1.032  1.2302  1.5388 -1.2281
 9659TIP3   OH250467   3.528   3.585  15.783  0.0565 -0.4263 -0.2297
 9659TIP3    H150468   3.457   3.540  15.829  0.1487 -1.7409 -1.3661
 9659TIP3    H250469   3.521   3.556  15.693  2.5801 -1.2633 -0.1861
 9660TIP3   OH250470   6.526   6.739   1.811  0.2129  0.0811 -0.6376
 9660TIP3    H150471   6.548   6.649   1.788 -0.3411  0.1320 -1.3782
 9660TIP3    H250472   6.563   6.751   1.899 -0.6383 -1.1983 -0.1028
 9661TIP3   OH250473   0.053   5.553  16.023  0.0907 -0.1532 -0.2513
 9661TIP3    H150474   0.145   5.526  16.029 -0.1117 -0.9644 -0.7205
 9661TIP3    H250475   0.034   5.553  15.929 -0.7949 -1.4254 -0.0997
 9662TIP3   OH250476   1.986   4.813  12.602  0.0886  0.5733  0.0826
 9662TIP3    H150477   2.023   4.774  12.681  0.6594 -0.4296 -0.6695
 9662TIP3    H250478   1.891   4.803  12.613  0.2445 -2.0579 -0.5724
 9663TIP3   OH250479   2.520   4.948  12.185  0.0203 -0.3156 -0.3312
 9663TIP3    H150480   2.463   5.007  12.234  1.3764  0.4392  0.3530
 9663TIP3    H250481   2.541   4.878  12.246 -1.1204 -1.2311 -0.9623
 9664TIP3   OH250482   6.255   0.047  16.041  0.8331 -0.2721 -0.0205
 9664TIP3    H150483   6.290  -0.039  16.017 -0.0563 -0.3239 -1.2163
 9664TIP3    H250484   6.191   0.066  15.972 -2.1661 -0.5983  2.5224
 9665TIP3   OH250485   6.109   5.520  16.556  0.2784 -0.2272  0.2159
 9665TIP3    H150486   6.190   5.471  16.565 -0.3415 -1.0649  1.2980
 9665TIP3    H250487   6.059   5.474  16.488 -0.1452 -0.8935  0.9705
 9666TIP3   OH250488   3.889   0.895   4.416  0.0758  0.6638  0.0670
 9666TIP3    H150489   3.804   0.939   4.422 -1.4865 -2.2065 -0.1808
 9666TIP3    H250490   3.892   0.862   4.326  0.3132 -1.4629  0.8432
 9667TIP3   OH250491   3.707   5.274   5.124  0.3461 -0.4619 -0.0832
 9667TIP3    H150492   3.612   5.286   5.114  0.4267  0.8997  0.6177
 9667TIP3    H250493   3.715   5.189   5.168 -0.4813 -1.1584 -1.2345
 9668TIP3   OH250494   4.544   1.083   4.266  0.3848  0.4108  0.5817
 9668TIP3    H150495   4.508   1.097   4.178  1.2190 -3.1804 -0.4277
 9668TIP3    H250496   4.638   1.075   4.252  0.6245  0.7409  1.9480
 9669TIP3   OH250497   5.250   6.537   5.556 -0.3273 -0.1484  0.2138
 9669TIP3    H150498   5.280   6.447   5.556 -2.2883 -0.8376 -2.4249
 9669TIP3    H250499   5.240   6.559   5.649 -0.2559 -2.7802  0.8695
 9670TIP3   OH250500   3.016   4.182   5.731  0.1811  0.0782 -0.1819
 9670TIP3    H150501   2.999   4.166   5.638  1.1664 -0.3096 -0.3014
 9670TIP3    H250502   3.079   4.254   5.732 -0.0828  0.3107  0.2031
 9671TIP3   OH250503   5.989   2.534  14.905  0.0060  0.6181 -0.1190
 9671TIP3    H150504   6.052   2.467  14.930  0.6030  1.1921 -0.0698
 9671TIP3    H250505   5.996   2.540  14.810 -1.2219 -0.5339 -0.3117
 9672TIP3   OH250506   3.869   6.086   0.411 -0.0910 -0.2074  0.0560
 9672TIP3    H150507   3.816   6.135   0.348 -0.7987 -2.1498 -0.9325
 9672TIP3    H250508   3.874   6.142   0.488 -0.7194  1.4636 -1.0899
 9673TIP3   OH250509   3.284   1.760  14.817  0.0072 -0.1217  0.5793
 9673TIP3    H150510   3.227   1.689  14.846  1.1509 -0.7268  1.3628
 9673TIP3    H250511   3.325   1.794  14.897  1.1358 -0.0366 -0.0161
 9674TIP3   OH250512   3.797   5.846   0.542 -0.3507  0.4830 -0.5123
 9674TIP3    H150513   3.806   5.914   0.475  0.5271  1.5460  0.6676
 9674TIP3    H250514   3.885   5.811   0.552 -0.3739  0.7030  0.4724
 9675TIP3   OH250515   5.383   5.824  16.991  0.0446 -0.2336  0.2629
 9675TIP3    H150516   5.296   5.788  17.006 -0.5253  0.5909 -0.9747
 9675TIP3    H250517   5.443   5.759  17.028 -1.1638  0.3404  3.3632
 9676TIP3   OH250518   1.428   4.928  15.054  0.4348  0.2151 -0.5142
 9676TIP3    H150519   1.460   4.906  14.967  0.3917 -0.8196 -0.2649
 9676TIP3    H250520   1.341   4.965  15.039  1.0899  1.5628 -1.0476
 9677TIP3   OH250521   5.951   2.782  14.990  0.9444  0.0921 -0.4696
 9677TIP3    H150522   5.905   2.805  14.910  0.3135 -0.6076 -0.3100
 9677TIP3    H250523   5.992   2.697  14.971  2.0951  0.6584 -0.5820
 9678TIP3   OH250524   0.785   2.623  15.411 -0.3677 -0.2288  0.0568
 9678TIP3    H150525   0.844   2.562  15.455 -1.6684 -2.1931 -0.8353
 9678TIP3    H250526   0.712   2.568  15.382 -1.9156  1.9002 -0.1406
 9679TIP3   OH250527   5.335   3.585   2.460  0.0853 -0.4986 -0.2348
 9679TIP3    H150528   5.325   3.497   2.425  0.5700 -0.4472 -0.5027
 9679TIP3    H250529   5.396   3.575   2.533 -0.2793 -0.4694  0.0795
 9680TIP3   OH250530   5.210   1.291  16.489  0.7682  0.4270 -0.6911
 9680TIP3    H150531   5.198   1.385  16.487  0.4431  0.5601  3.1163
 9680TIP3    H250532   5.127   1.255  16.457  0.6898  1.4263 -1.6166
 9681TIP3   OH250533   3.142   5.984  12.027 -0.7561  0.2356 -0.5978
 9681TIP3    H150534   3.178   5.913  11.973 -0.2743 -1.0314  1.3332
 9681TIP3    H250535   3.054   5.954  12.050 -0.2534 -0.1388  0.8989
 9682TIP3   OH250536   2.506   2.601  11.650 -0.3604  0.3051  0.2283
 9682TIP3    H150537   2.489   2.547  11.573  0.0909 -1.0313  1.0521
 9682TIP3    H250538   2.588   2.647  11.630 -0.7539  0.7120 -0.4772
 9683TIP3   OH250539   6.451   6.045  13.759 -0.1266 -0.0915  0.2338
 9683TIP3    H150540   6.526   6.100  13.783 -1.9188  1.5105  2.3681
 9683TIP3    H250541   6.414   6.087  13.681  0.6593 -0.3724 -0.2921
 9684TIP3   OH250542   6.024   2.906   4.602 -0.3110  0.4083 -0.7440
 9684TIP3    H150543   5.944   2.854   4.612  0.1396  0.1037  1.3936
 9684TIP3    H250544   6.020   2.970   4.673  1.7903 -0.1920 -0.0542
 9685TIP3   OH250545   5.761   6.121  15.678 -0.4021  0.1455  0.7311
 9685TIP3    H150546   5.687   6.145  15.624 -0.0459  1.4850  0.8152
 9685TIP3    H250547   5.809   6.056  15.627 -0.2849  1.1053 -0.3732
 9686TIP3   OH250548   5.488   5.671  11.956  0.0933  0.4879 -0.0697
 9686TIP3    H150549   5.418   5.607  11.971 -0.9670  1.4548 -0.7314
 9686TIP3    H250550   5.521   5.691  12.043 -0.4264 -0.0179  0.2527
 9687TIP3   OH250551   2.971   5.331  15.016 -0.2364  0.0559  0.4294
 9687TIP3    H150552   2.916   5.254  15.003 -1.5159  1.1626 -0.9425
 9687TIP3    H250553   2.920   5.403  14.979  2.1381  1.1220 -0.8563
 9688TIP3   OH250554   5.065   5.646  12.703  0.1056  0.0887 -0.2575
 9688TIP3    H150555   5.094   5.635  12.612 -1.3103 -0.0187 -0.7021
 9688TIP3    H250556   5.086   5.563  12.746 -0.2015 -0.2464 -0.7563
 9689TIP3   OH250557   3.608   0.457  10.891  0.1220  0.6405 -0.2550
 9689TIP3    H150558   3.590   0.536  10.941  0.2803 -0.0484  0.9073
 9689TIP3    H250559   3.524   0.433  10.852 -0.3253  0.3587  0.8751
 9690TIP3   OH250560   0.595   0.824  15.650 -0.4464 -0.1990  0.3074
 9690TIP3    H150561   0.688   0.822  15.674 -0.3053  0.0532 -0.2066
 9690TIP3    H250562   0.586   0.905  15.599 -0.1885 -1.9692 -2.6582
 9691TIP3   OH250563   6.391   2.060   3.524 -0.5133 -0.0352  0.7002
 9691TIP3    H150564   6.395   1.964   3.532  0.0840 -0.1627 -1.0139
 9691TIP3    H250565   6.429   2.091   3.606 -3.1903 -1.2216  2.4769
 9692TIP3   OH250566   4.568   3.302  14.309 -0.2716 -0.2266  0.7017
 9692TIP3    H150567   4.532   3.243  14.243  0.2234  0.6038 -0.3172
 9692TIP3    H250568   4.551   3.258  14.392 -0.1115 -1.6900 -0.0287
 9693TIP3   OH250569   4.169   3.670  12.747  0.1575  0.0354  0.3901
 9693TIP3    H150570   4.254   3.639  12.717 -0.6711 -0.2140 -1.7903
 9693TIP3    H250571   4.109   3.647  12.676 -1.9627 -0.9247  2.4344
 9694TIP3   OH250572   4.413   5.334  13.362  0.1511 -0.2533  0.4203
 9694TIP3    H150573   4.456   5.318  13.446  1.0909  2.4199  0.5122
 9694TIP3    H250574   4.367   5.417  13.374  0.8721  0.5273 -1.9006
 9695TIP3   OH250575   4.993   3.106   0.185  0.2249  0.4432 -0.4539
 9695TIP3    H150576   4.942   3.164   0.240  0.2923  0.4793 -0.4300
 9695TIP3    H250577   5.033   3.044   0.246  0.6200  0.7290 -0.4259
 9696TIP3   OH250578   6.125   0.462   2.499 -0.0206  0.3884 -0.1208
 9696TIP3    H150579   6.185   0.537   2.502 -0.4808  0.7495  0.1589
 9696TIP3    H250580   6.141   0.416   2.582  0.2116  0.2129 -0.2614
 9697TIP3   OH250581   1.335   5.193   1.877 -0.1224 -0.2076 -1.0144
 9697TIP3    H150582   1.262   5.150   1.921 -0.4457  1.0080 -0.3452
 9697TIP3    H250583   1.406   5.194   1.942  0.2742 -0.8193 -1.4415
 9698TIP3   OH250584   5.057   0.942   5.583  0.1191  0.7155 -0.4803
 9698TIP3    H150585   4.967   0.916   5.600  0.2483  1.1888  0.9509
 9698TIP3    H250586   5.050   1.013   5.519 -0.5753  1.4446  0.4087
 9699TIP3   OH250587   2.671   3.097  11.335 -0.2112  0.5160  0.2760
 9699TIP3    H150588   2.634   3.183  11.354  0.6301  0.7359  0.9556
 9699TIP3    H250589   2.686   3.058  11.421 -1.5111 -0.7174 -0.0339
 9700TIP3   OH250590   6.022   5.405  11.828 -0.1836  0.5004  0.8130
 9700TIP3    H150591   6.045   5.329  11.881 -0.5205  0.3224  0.7076
 9700TIP3    H250592   5.961   5.455  11.883 -1.4302 -0.2726  0.1544
 9701TIP3   OH250593   1.897   5.501  16.523 -0.3265 -0.3997  0.0755
 9701TIP3    H150594   1.984   5.528  16.553  0.3067 -0.4188 -1.7176
 9701TIP3    H250595   1.911   5.466  16.435 -1.9631 -1.5912  0.2615
 9702TIP3   OH250596   5.387   6.748  14.923 -0.0906  0.0910  0.2563
 9702TIP3    H150597   5.430   6.719  14.843  0.8913  0.8197  0.5085
 9702TIP3    H250598   5.439   6.822  14.953 -0.1034 -0.5283  1.8802
 9703TIP3   OH250599   4.731   2.850   5.254  0.0556  0.0426 -0.2699
 9703TIP3    H150600   4.666   2.919   5.240  0.0724 -0.4117 -2.6976
 9703TIP3    H250601   4.789   2.856   5.178  1.0139 -1.6130  0.3126
 9704TIP3   OH250602   5.033   4.077  16.580 -0.0914  0.7160 -0.0218
 9704TIP3    H150603   5.083   4.082  16.662  0.1764  1.6362 -0.2345
 9704TIP3    H250604   5.032   4.167  16.547 -0.8419  0.4830 -0.6502
 9705TIP3   OH250605   3.585   4.684  13.674 -0.0046 -0.3451 -0.1840
 9705TIP3    H150606   3.587   4.722  13.586 -0.2904  1.0760  0.4163
 9705TIP3    H250607   3.530   4.605  13.665 -0.5954  0.1666 -1.1221
 9706TIP3   OH250608   3.525   3.854  14.011 -0.5520 -0.2072  0.7640
 9706TIP3    H150609   3.497   3.945  14.026  0.7807  0.2548  0.5231
 9706TIP3    H250610   3.575   3.831  14.089 -0.1161 -0.4183  0.4283
 9707TIP3   OH250611   4.388   4.410  12.389 -0.0936  0.4677 -0.1660
 9707TIP3    H150612   4.480   4.386  12.402  0.0671 -0.1471 -2.3126
 9707TIP3    H250613   4.386   4.454  12.304 -1.8301  0.2534 -0.2566
 9708TIP3   OH250614   6.175   5.484  12.647 -0.2571 -0.0703 -0.5665
 9708TIP3    H150615   6.234   5.412  12.624 -0.1659  0.2643 -1.4165
 9708TIP3    H250616   6.195   5.553  12.583 -1.2226  0.2305 -0.5527
 9709TIP3   OH250617   2.991   3.553  12.383  0.2951  0.2374 -0.6406
 9709TIP3    H150618   2.935   3.496  12.436  1.5141 -0.9684 -0.6386
 9709TIP3    H250619   2.931   3.597  12.323 -0.7981 -0.1695  0.1459
 9710TIP3   OH250620   6.653   4.784   0.253 -0.0164 -0.4405 -0.2963
 9710TIP3    H150621   6.715   4.764   0.182 -1.3623 -1.6832 -1.1449
 9710TIP3    H250622   6.597   4.853   0.216  1.5821  1.5717  0.9056
 9711TIP3   OH250623   6.614   1.257  10.965 -0.6717  0.0805  0.0231
 9711TIP3    H150624   6.630   1.163  10.954  1.7540  0.5230 -0.4120
 9711TIP3    H250625   6.630   1.293  10.878  1.2135  1.2617  0.8369
 9712TIP3   OH250626   1.940   5.682  12.161  0.0679  0.1359 -0.5988
 9712TIP3    H150627   1.847   5.692  12.141  0.0574 -1.4511 -1.4474
 9712TIP3    H250628   1.982   5.678  12.075  0.5775 -2.0768 -0.2658
 9713TIP3   OH250629   4.075   3.985   3.996 -0.1426  0.0722 -0.1064
 9713TIP3    H150630   3.998   3.929   3.994 -1.2009  1.5171 -0.8805
 9713TIP3    H250631   4.073   4.026   4.083  0.2447 -0.5489  0.1983
 9714TIP3   OH250632   1.425   0.882  16.165 -0.2023 -0.1152 -0.0603
 9714TIP3    H150633   1.473   0.802  16.144 -1.3287  0.0981 -3.7437
 9714TIP3    H250634   1.475   0.952  16.125 -1.3473  0.5662 -0.3342
 9715TIP3   OH250635   3.726   6.137   0.175  0.4023 -0.4144  0.5668
 9715TIP3    H150636   3.664   6.078   0.218  2.1180 -2.3853  0.3962
 9715TIP3    H250637   3.721   6.113   0.082  0.8942 -0.0787  0.4544
 9716TIP3   OH250638   4.334   3.648  14.909 -0.2786 -0.1433  0.1650
 9716TIP3    H150639   4.389   3.638  14.831 -0.3439  1.2797 -0.0656
 9716TIP3    H250640   4.358   3.573  14.964 -0.0984 -1.0657 -1.1294
 9717TIP3   OH250641   6.653   3.779  16.860  0.5018  0.2547 -0.1502
 9717TIP3    H150642   6.673   3.829  16.939  1.2459  2.4940 -1.6945
 9717TIP3    H250643   6.563   3.803  16.839  1.1046  1.6006 -1.3116
 9718TIP3   OH250644   4.903   5.992  11.285 -0.0376 -0.6135  0.3174
 9718TIP3    H150645   4.951   6.014  11.365 -0.6971 -0.9349  0.8020
 9718TIP3    H250646   4.910   6.070  11.230 -0.5077  0.0024  1.1273
 9719TIP3   OH250647   2.290   4.433  12.189 -0.1195  0.0951 -0.2420
 9719TIP3    H150648   2.334   4.492  12.127 -0.7412 -0.8986 -1.6614
 9719TIP3    H250649   2.328   4.347  12.172 -3.3418 -1.0192 -2.3423
 9720TIP3   OH250650   6.582   3.963   0.886 -0.1283 -0.5824  0.0492
 9720TIP3    H150651   6.620   4.033   0.939  1.5735 -0.4522 -1.2943
 9720TIP3    H250652   6.527   3.913   0.947 -0.4227  1.2084  1.2806
 9721TIP3   OH250653   2.380   2.485   0.375 -0.7794 -0.0766  0.4366
 9721TIP3    H150654   2.360   2.560   0.431  0.3228  0.6358 -0.1007
 9721TIP3    H250655   2.334   2.504   0.293  0.9897  0.9484 -0.3558
 9722TIP3   OH250656   6.174   3.455   1.097 -0.1583 -0.0903 -0.0250
 9722TIP3    H150657   6.263   3.422   1.083 -0.1834 -0.0797 -0.2132
 9722TIP3    H250658   6.158   3.514   1.023 -0.1740  0.2205  0.2242
 9723TIP3   OH250659   3.681   2.949   6.126 -0.2050  0.3677 -0.4963
 9723TIP3    H150660   3.658   3.024   6.071  3.0404  0.0736 -2.4032
 9723TIP3    H250661   3.736   2.987   6.195 -0.0175  0.0096 -0.4510
 9724TIP3   OH250662   5.189   0.899  13.626 -0.1538  0.2163 -0.3903
 9724TIP3    H150663   5.126   0.922  13.694 -1.5860  1.4360 -2.0918
 9724TIP3    H250664   5.248   0.974  13.621 -0.5419  0.4935 -1.0138
 9725TIP3   OH250665   2.474   5.306  13.648  0.1282 -0.6260  0.1856
 9725TIP3    H150666   2.522   5.238  13.601 -0.6087 -1.9469  1.3233
 9725TIP3    H250667   2.526   5.321  13.727  1.3935  1.6304 -0.9933
 9726TIP3   OH250668   5.406   1.881  12.013 -0.1606  0.4443 -0.4919
 9726TIP3    H150669   5.428   1.973  11.998  1.3130 -0.0085 -1.1339
 9726TIP3    H250670   5.485   1.833  11.989 -0.7013 -0.9463  0.4597
 9727TIP3   OH250671   5.754   4.152  10.769 -0.0111  0.4087 -0.0148
 9727TIP3    H150672   5.722   4.064  10.749 -1.4551  0.4132  2.1069
 9727TIP3    H250673   5.687   4.211  10.734  0.5875  0.6484 -0.7721
 9728TIP3   OH250674   0.971   6.568  10.693  0.3716  0.1725 -0.3090
 9728TIP3    H150675   0.897   6.547  10.637  0.9508  1.4688 -1.5991
 9728TIP3    H250676   0.967   6.503  10.764 -1.8631  0.1291 -0.4526
 9729TIP3   OH250677   1.717   0.461   6.569 -0.6089  0.3051  0.4400
 9729TIP3    H150678   1.707   0.411   6.650  1.4139  2.1269  1.8868
 9729TIP3    H250679   1.645   0.524   6.570  0.2453  1.2852  1.5829
 9730TIP3   OH250680   3.431   3.775   5.648  0.1058 -0.2368  1.0985
 9730TIP3    H150681   3.464   3.719   5.718  1.2742  1.3232  1.8216
 9730TIP3    H250682   3.343   3.800   5.676  1.0589  1.4558  2.6893
 9731TIP3   OH250683   6.089   2.874   0.839 -0.3935  0.2841 -0.4308
 9731TIP3    H150684   6.140   2.955   0.844 -0.0522 -0.0196  2.0856
 9731TIP3    H250685   5.998   2.902   0.848 -0.4507  0.5693 -1.8465
 9732TIP3   OH250686   5.565   1.522  13.160 -0.3690  0.1703  0.0997
 9732TIP3    H150687   5.565   1.434  13.197  1.2257 -0.2538 -0.8224
 9732TIP3    H250688   5.503   1.571  13.213  1.1402 -0.6406  2.7219
 9733TIP3   OH250689   2.826   5.551  17.100 -0.5771 -0.4603  0.4683
 9733TIP3    H150690   2.850   5.589  17.015 -0.9461  0.5169  0.7932
 9733TIP3    H250691   2.860   5.462  17.097  0.1483 -0.1625 -0.3822
 9734TIP3   OH250692   5.612   1.737   6.570  0.1476 -0.2579 -0.1538
 9734TIP3    H150693   5.525   1.702   6.591  0.9601 -2.5838 -0.5504
 9734TIP3    H250694   5.609   1.755   6.476 -0.1274  0.3639 -0.0308
 9735TIP3   OH250695   1.502   5.047   3.106 -0.1027  0.5953 -0.0787
 9735TIP3    H150696   1.545   4.971   3.066  1.9510  1.1478  1.0433
 9735TIP3    H250697   1.453   5.010   3.180  1.9537  0.4931  1.2693
 9736TIP3   OH250698   1.928   2.887   4.325  0.3688  0.3496 -0.1163
 9736TIP3    H150699   1.902   2.979   4.334 -0.3211  0.0455  1.0857
 9736TIP3    H250700   1.980   2.885   4.245 -1.1823  1.4398 -1.1712
 9737TIP3   OH250701   6.527   4.424  13.462 -1.0126  0.3290  0.5943
 9737TIP3    H150702   6.622   4.428  13.456 -1.0978  0.5249 -0.8273
 9737TIP3    H250703   6.501   4.514  13.483 -0.9981  0.6633 -0.8200
 9738TIP3   OH250704   1.624   1.212   0.245 -0.1846  0.3666  0.1759
 9738TIP3    H150705   1.617   1.165   0.328 -1.1132 -0.0707 -0.1431
 9738TIP3    H250706   1.701   1.174   0.203  0.3151  0.6157  0.8438
 9739TIP3   OH250707   3.130   4.206  14.663  0.1703 -0.3279 -0.1747
 9739TIP3    H150708   3.172   4.208  14.577  1.1869  0.3938  0.3273
 9739TIP3    H250709   3.142   4.294  14.698  0.3539 -0.8032  0.9825
 9740TIP3   OH250710   3.872   3.706  13.791 -0.0246  0.1656  0.0549
 9740TIP3    H150711   3.777   3.696  13.777 -0.3633  0.6900  1.8995
 9740TIP3    H250712   3.894   3.788  13.747 -0.5546  0.4124  0.2499
 9741TIP3   OH250713   1.186   2.752   2.914 -0.0793 -0.5752  0.2356
 9741TIP3    H150714   1.177   2.666   2.873 -0.8445  0.3043 -1.4852
 9741TIP3    H250715   1.207   2.811   2.842  1.9574  0.4458  1.6318
 9742TIP3   OH250716   0.206   6.713  15.705  0.0341  0.4907  0.1034
 9742TIP3    H150717   0.244   6.627  15.719  0.9617  1.2780  2.6937
 9742TIP3    H250718   0.203   6.723  15.610  2.3879 -1.3010 -0.1921
 9743TIP3   OH250719   0.985   0.081  16.483 -0.1573 -0.2686 -0.1982
 9743TIP3    H150720   0.971   0.000  16.532 -1.3719 -0.3155 -0.6142
 9743TIP3    H250721   1.054   0.059  16.420 -1.4696 -1.3915 -1.2596
 9744TIP3   OH250722   4.398   4.195  11.444  0.2888 -0.6040 -0.4015
 9744TIP3    H150723   4.400   4.102  11.468 -0.3782 -0.4133  0.4210
 9744TIP3    H250724   4.482   4.210  11.399 -0.9097 -2.3063 -3.3253
 9745TIP3   OH250725   4.622   0.063   4.560  0.4646 -0.0527  0.2239
 9745TIP3    H150726   4.682   0.076   4.633  1.4710 -1.6306 -0.2911
 9745TIP3    H250727   4.581   0.149   4.546  0.2788  0.2661  2.5943
 9746TIP3   OH250728   3.742   1.727  11.387 -0.4409 -0.3962 -0.0126
 9746TIP3    H150729   3.745   1.680  11.304 -0.4183  1.0104 -0.8343
 9746TIP3    H250730   3.822   1.779  11.388 -0.8490  0.2391  0.4778
 9747TIP3   OH250731   6.169   4.752  13.712  0.1674 -0.4052 -0.2611
 9747TIP3    H150732   6.097   4.710  13.758  0.1582 -0.0484  0.0526
 9747TIP3    H250733   6.237   4.764  13.778 -0.5023  1.6846  0.0798
 9748TIP3   OH250734   5.185   5.751   1.788  0.1470 -0.6884 -0.1068
 9748TIP3    H150735   5.229   5.753   1.703 -0.2330 -0.3640 -0.3000
 9748TIP3    H250736   5.250   5.715   1.849  0.4283 -0.8943 -0.5297
 9749TIP3   OH250737   3.975   1.885  16.873  0.2167 -0.3718  0.2062
 9749TIP3    H150738   4.066   1.875  16.902  0.8090  0.4283 -1.3043
 9749TIP3    H250739   3.961   1.980  16.872  0.8134 -0.2538 -3.7597
 9750TIP3   OH250740   6.498   4.935  15.666 -0.0634  0.5883 -0.6266
 9750TIP3    H150741   6.536   4.847  15.678  0.7180  0.8179 -1.3563
 9750TIP3    H250742   6.520   4.982  15.747  0.6479  0.5132 -0.7709
 9751TIP3   OH250743   1.281   4.127  17.012 -0.1647  0.1879 -0.4059
 9751TIP3    H150744   1.337   4.188  17.060  2.0214 -1.5634 -0.6789
 9751TIP3    H250745   1.287   4.155  16.921 -1.4679  1.3016 -0.1719
 9752TIP3   OH250746   1.470   3.544   1.889 -0.3407  0.2877 -0.7141
 9752TIP3    H150747   1.454   3.454   1.861 -1.2736  0.2445 -0.0787
 9752TIP3    H250748   1.433   3.598   1.820 -1.3252  0.1781 -0.2843
 9753TIP3   OH250749   5.395   3.455   2.711  0.0256 -0.0262  0.1713
 9753TIP3    H150750   5.349   3.538   2.724 -0.4608 -0.2705  0.0251
 9753TIP3    H250751   5.480   3.467   2.754 -0.5781  0.0669  1.3601
 9754TIP3   OH250752   6.291   0.192   1.045 -0.4422 -0.1705  0.2424
 9754TIP3    H150753   6.365   0.235   1.001 -1.0151 -1.1882 -1.7656
 9754TIP3    H250754   6.262   0.256   1.110  0.9692  1.0335 -0.2694
 9755TIP3   OH250755   5.485   4.650   0.375  0.2731  0.1374 -0.3844
 9755TIP3    H150756   5.478   4.565   0.418  0.2770 -0.3251 -1.2984
 9755TIP3    H250757   5.579   4.667   0.371  0.2412  0.6340  0.6542
 9756TIP3   OH250758   3.415   1.108  14.018  0.6709  0.1437 -0.2510
 9756TIP3    H150759   3.406   1.021  14.056  0.7556  0.0770 -0.3845
 9756TIP3    H250760   3.390   1.098  13.926 -1.6943  0.7508  0.2937
 9757TIP3   OH250761   0.809   3.022   5.338  0.2840 -0.2704 -0.6882
 9757TIP3    H150762   0.887   2.976   5.368 -0.7736 -0.4397  1.9258
 9757TIP3    H250763   0.842   3.105   5.303  1.9610 -1.9149 -3.1932
 9758TIP3   OH250764   0.422   4.321   6.512  0.0086  0.1101 -0.0606
 9758TIP3    H150765   0.403   4.378   6.438  2.8926 -2.8381 -3.2635
 9758TIP3    H250766   0.358   4.250   6.505 -0.2515  0.2497  0.8086
 9759TIP3   OH250767   0.947   4.988   2.960 -0.4408  0.5371  0.3206
 9759TIP3    H150768   1.011   5.027   3.019 -1.3871 -0.3645  1.9691
 9759TIP3    H250769   0.865   5.035   2.978 -0.6718  0.4434 -0.4692
 9760TIP3   OH250770   4.711   4.567  12.185  0.3766  0.4930 -0.3074
 9760TIP3    H150771   4.804   4.585  12.196  0.5431  1.0394 -2.3511
 9760TIP3    H250772   4.704   4.530  12.097 -1.3819  0.7171 -0.2848
 9761TIP3   OH250773   2.338   5.918   4.700 -0.1271 -0.2646  0.2026
 9761TIP3    H150774   2.258   5.885   4.741 -0.8055 -0.7499 -1.4641
 9761TIP3    H250775   2.377   5.841   4.660 -0.1217  0.4199 -1.1137
 9762TIP3   OH250776   2.037   3.945   5.324 -0.1214 -0.0006  0.7763
 9762TIP3    H150777   2.002   3.858   5.340 -0.5534  0.3736  1.9820
 9762TIP3    H250778   2.089   3.964   5.402 -0.3121  0.9439  0.6808
 9763TIP3   OH250779   3.607   0.610  13.423  0.6870 -0.1425 -0.1527
 9763TIP3    H150780   3.626   0.699  13.393 -0.1222  0.2328  0.4099
 9763TIP3    H250781   3.515   0.614  13.450  1.3942 -0.4397  2.4144
 9764TIP3   OH250782   0.048   1.110   3.929 -0.0461 -0.2007 -0.4661
 9764TIP3    H150783   0.015   1.171   3.995 -0.3587 -0.8737 -0.0038
 9764TIP3    H250784   0.001   1.133   3.849 -1.5024 -1.0454  0.1433
 9765TIP3   OH250785   6.531   2.470   6.527 -0.2643  0.2524 -0.3287
 9765TIP3    H150786   6.499   2.380   6.526 -0.0494  0.1187  1.7774
 9765TIP3    H250787   6.457   2.522   6.556 -0.2526  0.6912 -1.0900
 9766TIP3   OH250788   3.057   4.451   3.552  0.2518 -0.3112 -0.0831
 9766TIP3    H150789   3.136   4.396   3.550  0.2702 -0.2544 -1.4158
 9766TIP3    H250790   3.091   4.540   3.545  0.1587 -0.1773  1.0522
 9767TIP3   OH250791   1.075   2.271   5.462  0.1696  0.2847 -0.1962
 9767TIP3    H150792   1.127   2.349   5.444 -1.1637  1.4241  0.7986
 9767TIP3    H250793   1.028   2.292   5.543 -1.8881 -0.6887 -1.1102
 9768TIP3   OH250794   1.943   4.140   5.596 -0.4103 -0.3913 -0.5608
 9768TIP3    H150795   2.012   4.164   5.657 -2.2356 -0.7509  1.7279
 9768TIP3    H250796   1.958   4.195   5.519  1.4139  0.7093  0.5426
 9769TIP3   OH250797   2.030   6.033  16.600  0.4888 -0.2481  0.8413
 9769TIP3    H150798   2.085   5.986  16.663  0.9454  0.0601  0.6688
 9769TIP3    H250799   2.087   6.100  16.563  1.1071 -2.3501 -2.1324
 9770TIP3   OH250800   0.530   2.450   0.005 -0.5996 -0.1659 -0.1113
 9770TIP3    H150801   0.439   2.470   0.026  0.3269  0.4315  3.6620
 9770TIP3    H250802   0.568   2.534  -0.023 -0.5530  0.1344  0.8528
 9771TIP3   OH250803   1.079   5.304  12.628  0.1524  0.2009 -0.5090
 9771TIP3    H150804   1.056   5.308  12.721  0.6814 -0.7420 -0.3356
 9771TIP3    H250805   1.152   5.242  12.623  0.0492  0.1468 -1.5721
 9772TIP3   OH250806   2.846   2.363  16.584 -0.0313  0.3011 -0.0011
 9772TIP3    H150807   2.875   2.407  16.504  0.4501  0.0375  0.0247
 9772TIP3    H250808   2.918   2.375  16.645 -0.3627  0.4259  0.3691
 9773TIP3   OH250809   3.043   1.861  15.961  0.7666  0.0547 -0.0608
 9773TIP3    H150810   2.960   1.829  15.997  1.5730 -1.1648  0.7771
 9773TIP3    H250811   3.083   1.784  15.920  0.9153  0.9179 -1.5540
 9774TIP3   OH250812   2.367   0.847  13.924  0.1614  0.1798  0.3288
 9774TIP3    H150813   2.431   0.881  13.862  0.1433 -0.5377 -0.0895
 9774TIP3    H250814   2.356   0.917  13.989 -0.9383  1.5489 -1.3032
 9775TIP3   OH250815   0.116   0.835  15.219 -0.3539  0.7198  0.0787
 9775TIP3    H150816   0.149   0.914  15.262 -0.2402 -0.2094  1.7455
 9775TIP3    H250817   0.021   0.839  15.232 -0.4435  1.0692 -0.6827
 9776TIP3   OH250818   3.224   1.250  12.832 -0.2912 -0.4309 -0.8123
 9776TIP3    H150819   3.173   1.247  12.752  1.1469  0.3815 -1.7727
 9776TIP3    H250820   3.235   1.158  12.857 -1.9037 -0.6320 -0.7593
 9777TIP3   OH250821   3.985   0.079  13.743 -0.3732  0.0917 -0.1129
 9777TIP3    H150822   4.031   0.131  13.810  2.0041 -0.8678 -0.9322
 9777TIP3    H250823   3.933   0.142  13.695 -0.1609  1.1883  1.0762
 9778TIP3   OH250824   0.307   5.453  15.726 -0.5357 -0.4393  0.2816
 9778TIP3    H150825   0.399   5.471  15.747 -0.1460 -1.8027 -0.2494
 9778TIP3    H250826   0.267   5.540  15.718  0.8199  0.1673 -0.0076
 9779TIP3   OH250827   1.858   5.117   0.662  0.3677 -0.0124  0.4446
 9779TIP3    H150828   1.781   5.091   0.713 -0.7947  0.0928 -1.2175
 9779TIP3    H250829   1.932   5.102   0.722 -0.9108 -0.2597  2.0161
 9780TIP3   OH250830   5.379   1.715   2.525  0.2045 -0.1752 -0.0846
 9780TIP3    H150831   5.421   1.718   2.439  0.2260  0.0767 -0.0640
 9780TIP3    H250832   5.447   1.682   2.584 -0.2835 -1.9185 -0.4502
 9781TIP3   OH250833   2.108   4.981   6.169  0.4957 -0.0048  0.1523
 9781TIP3    H150834   2.143   5.014   6.252  1.5024 -0.5344 -0.0446
 9781TIP3    H250835   2.181   4.991   6.108  0.2864 -1.1069 -0.2802
 9782TIP3   OH250836   0.053   3.166   3.063 -0.3029 -0.1705  0.2815
 9782TIP3    H150837   0.144   3.165   3.032  0.1229  0.7811  1.4801
 9782TIP3    H250838   0.028   3.074   3.067  0.9582 -0.4939  0.9460
 9783TIP3   OH250839   6.544   1.728   5.698 -0.1328 -0.6422  0.4604
 9783TIP3    H150840   6.598   1.798   5.661  1.0583 -1.0879  1.3392
 9783TIP3    H250841   6.557   1.654   5.640  1.3453 -1.1890  1.4692
 9784TIP3   OH250842   5.581   1.165  15.558  0.3253 -0.2095  0.1283
 9784TIP3    H150843   5.496   1.146  15.597 -0.8498  1.5969 -1.4462
 9784TIP3    H250844   5.569   1.153  15.464  1.8516 -0.1218 -0.1018
 9785TIP3   OH250845   5.831   6.340  13.096 -0.3541  0.1347 -0.4199
 9785TIP3    H150846   5.891   6.291  13.151 -0.8395  0.1931  0.1634
 9785TIP3    H250847   5.775   6.387  13.157  0.2118  1.5468 -0.9749
 9786TIP3   OH250848   5.809   6.416   1.354 -0.0795 -0.8580 -0.3905
 9786TIP3    H150849   5.734   6.360   1.334  0.9876 -2.2696 -0.5562
 9786TIP3    H250850   5.794   6.446   1.443 -0.0073 -2.5399  0.2176
 9787TIP3   OH250851   3.630   1.091  15.128 -0.5222 -0.5454 -0.2398
 9787TIP3    H150852   3.578   1.031  15.075  2.0990 -1.8679 -1.3792
 9787TIP3    H250853   3.698   1.037  15.168 -0.3674  1.0279  1.7718
 9788TIP3   OH250854   2.929   0.756   1.738 -0.2157  0.1829 -0.3881
 9788TIP3    H150855   2.853   0.753   1.679 -0.8508 -2.4727  0.4855
 9788TIP3    H250856   2.997   0.708   1.692  0.5090  1.3257 -0.5400
 9789TIP3   OH250857   4.321   1.327   1.943  0.8155  0.2221 -0.1031
 9789TIP3    H150858   4.391   1.383   1.910  1.5523  1.2827  3.1182
 9789TIP3    H250859   4.276   1.381   2.008  0.9713 -2.5880  2.4361
 9790TIP3   OH250860   1.360   5.221   0.669  0.3990 -0.0328 -0.4465
 9790TIP3    H150861   1.350   5.260   0.582  0.3253 -1.1799 -0.9599
 9790TIP3    H250862   1.436   5.264   0.707  1.7009 -1.0298 -1.9039
 9791TIP3   OH250863   6.570   6.572   6.084  0.5827  0.4047 -0.7031
 9791TIP3    H150864   6.509   6.545   6.152 -0.7055  1.9550 -1.1820
 9791TIP3    H250865   6.647   6.604   6.131  0.8699 -1.1572 -0.0782
 9792TIP3   OH250866   1.288   3.778  10.891  0.1187 -0.2399  0.3174
 9792TIP3    H150867   1.350   3.836  10.935  1.4036  0.7612 -2.7240
 9792TIP3    H250868   1.296   3.695  10.937  2.1002  0.5013  1.3650
 9793TIP3   OH250869   4.074   1.757   3.739  0.2502 -0.1972  0.1652
 9793TIP3    H150870   3.985   1.787   3.757 -0.0217 -0.7345 -0.2514
 9793TIP3    H250871   4.099   1.706   3.816 -0.7211 -2.0751 -0.7206
 9794TIP3   OH250872   3.112   0.255  14.972 -0.1096 -0.4805  0.5200
 9794TIP3    H150873   3.145   0.211  14.894  0.6899  1.6945 -0.4020
 9794TIP3    H250874   3.057   0.326  14.938  0.9750  1.0556  1.8919
 9795TIP3   OH250875   5.519   5.008  16.750  0.5803  0.0998 -0.1784
 9795TIP3    H150876   5.511   4.957  16.669 -0.7699  2.4393 -1.5480
 9795TIP3    H250877   5.434   4.999  16.793  0.1937  1.5323 -0.6318
 9796TIP3   OH250878   2.150   5.372   4.203  0.3177  0.1481 -0.2575
 9796TIP3    H150879   2.140   5.277   4.200  0.8221  0.0772  0.1953
 9796TIP3    H250880   2.112   5.403   4.121  0.2577 -0.4521 -0.4587
 9797TIP3   OH250881   3.385   3.510  12.746  0.3936  0.3596  0.1826
 9797TIP3    H150882   3.445   3.440  12.774  1.5404  1.3783  0.3214
 9797TIP3    H250883   3.437   3.562  12.685 -1.3514 -0.4968 -2.0801
 9798TIP3   OH250884   3.765   5.494   0.469 -0.1328  0.2881  0.0487
 9798TIP3    H150885   3.797   5.454   0.550  0.4222  1.6799  0.5363
 9798TIP3    H250886   3.833   5.557   0.445 -0.8936  0.7965 -0.7958
 9799TIP3   OH250887   3.581   5.395   3.209  0.1706  0.0726  0.4951
 9799TIP3    H150888   3.667   5.435   3.198 -0.1792  0.5009 -0.8796
 9799TIP3    H250889   3.597   5.301   3.206  0.6421  0.1508  0.6512
 9800TIP3   OH250890   2.296   6.617  15.799 -0.4486  0.4253 -0.8534
 9800TIP3    H150891   2.342   6.697  15.774  0.9362 -0.4995 -1.3351
 9800TIP3    H250892   2.258   6.637  15.885  0.1030  1.5029 -0.8511
 9801TIP3   OH250893   3.920   0.312  16.141 -0.5398 -0.3595  0.0290
 9801TIP3    H150894   3.935   0.406  16.139 -2.4233 -0.0740 -1.4450
 9801TIP3    H250895   3.826   0.302  16.128 -0.3746 -2.4376  0.3002
 9802TIP3   OH250896   3.105   2.862   0.722 -0.5703 -0.4184 -0.3198
 9802TIP3    H150897   3.067   2.832   0.639 -0.1124  0.1692 -0.7394
 9802TIP3    H250898   3.033   2.909   0.764 -1.4890 -2.5541  0.6107
 9803TIP3   OH250899   4.122   2.879  16.705  0.1346 -0.2882  0.0791
 9803TIP3    H150900   4.115   2.917  16.618 -0.0648 -0.4656  0.0185
 9803TIP3    H250901   4.156   2.790  16.691 -0.0638 -0.3790  0.1687
 9804TIP3   OH250902   4.481   0.639  11.979 -0.3574 -0.0167  0.5290
 9804TIP3    H150903   4.543   0.670  11.913  0.9947  0.0702  1.8340
 9804TIP3    H250904   4.526   0.650  12.062 -2.4105  0.7531  1.5756
 9805TIP3   OH250905   1.745   4.661  15.866 -0.4879  0.1676 -0.3763
 9805TIP3    H150906   1.793   4.742  15.846 -0.6062  0.1745 -0.6356
 9805TIP3    H250907   1.654   4.690  15.879 -0.2807  0.2656  0.9064
 9806TIP3   OH250908   2.120   3.070   0.478  0.2011  0.3057  0.3686
 9806TIP3    H150909   2.158   3.104   0.397  0.1329  1.2106  0.7114
 9806TIP3    H250910   2.055   3.136   0.504 -0.4211 -0.4113  0.6822
 9807TIP3   OH250911   3.593   0.498   2.649  0.4307 -0.6551  0.2300
 9807TIP3    H150912   3.628   0.566   2.592 -0.1820 -0.8881 -0.4290
 9807TIP3    H250913   3.598   0.418   2.597 -0.6794 -0.7648  0.2745
 9808TIP3   OH250914   5.224   4.433  13.277 -0.1984 -0.2966  0.6895
 9808TIP3    H150915   5.284   4.394  13.214 -0.1479  0.0791  0.5082
 9808TIP3    H250916   5.154   4.368  13.287 -0.8281  0.1652 -0.6618
 9809TIP3   OH250917   1.925   2.560  16.120 -0.4586 -0.2977  0.4615
 9809TIP3    H150918   1.902   2.481  16.169  1.2343  0.3649  2.3761
 9809TIP3    H250919   2.015   2.578  16.144 -0.5778  1.8093 -0.5640
 9810TIP3   OH250920   6.498   3.373  15.257 -0.1250  1.0216  0.5997
 9810TIP3    H150921   6.549   3.406  15.182 -0.7316  1.0734  0.2065
 9810TIP3    H250922   6.502   3.278  15.248 -0.9443  1.0335 -0.0202
 9811TIP3   OH250923   5.085   0.611  15.594  0.1907 -0.1356  0.1845
 9811TIP3    H150924   5.026   0.543  15.564 -1.8789  1.8387 -0.3613
 9811TIP3    H250925   5.159   0.564  15.633 -1.0973 -2.6467 -0.3314
 9812TIP3   OH250926   2.936   3.773  15.429 -0.3908  1.1175  0.1868
 9812TIP3    H150927   2.928   3.759  15.524  0.4930  0.2376  0.1471
 9812TIP3    H250928   2.954   3.686  15.394  0.7366  1.6654 -0.6299
 9813TIP3   OH250929   0.730   4.178  15.360  0.1729  0.2229  1.0125
 9813TIP3    H150930   0.667   4.249  15.343  0.0936 -0.2956 -1.0439
 9813TIP3    H250931   0.795   4.187  15.291  0.7525 -1.0480  1.3820
 9814TIP3   OH250932   1.165   5.680  13.032  0.0741 -0.1128 -0.3183
 9814TIP3    H150933   1.153   5.638  13.117 -1.0727  0.0448 -0.3893
 9814TIP3    H250934   1.237   5.742  13.045  0.9274 -1.1884  0.1202
 9815TIP3   OH250935   6.715   4.230   5.243  0.3292 -0.1052 -0.0346
 9815TIP3    H150936   6.688   4.140   5.255  2.1054 -0.8407 -1.2465
 9815TIP3    H250937   6.699   4.272   5.328  0.1548 -1.7263  0.7452
 9816TIP3   OH250938   1.856   6.339  16.258  0.3940  0.1224  0.0572
 9816TIP3    H150939   1.883   6.365  16.346 -1.5758  1.7116  0.2192
 9816TIP3    H250940   1.925   6.278  16.229  2.1465  1.1734  1.8662
 9817TIP3   OH250941   0.515   6.254   0.407  0.9338 -0.0690  0.3665
 9817TIP3    H150942   0.565   6.335   0.398 -0.0126  0.2546 -2.2791
 9817TIP3    H250943   0.465   6.247   0.326 -1.6675 -1.5200  2.0160
 9818TIP3   OH250944   6.666   2.138   0.823  0.2353  0.3039  0.4962
 9818TIP3    H150945   6.624   2.139   0.909 -0.8429 -2.2063  0.0517
 9818TIP3    H250946   6.615   2.200   0.770  0.0653  0.8474  1.2907
 9819TIP3   OH250947   3.445   1.375  15.616  0.3870  0.6971 -0.1215
 9819TIP3    H150948   3.421   1.319  15.689 -0.5513  3.8709  2.1298
 9819TIP3    H250949   3.374   1.363  15.553  0.4176 -0.9271  0.1465
 9820TIP3   OH250950   0.682   0.964  11.138  0.0126  0.2308  0.0756
 9820TIP3    H150951   0.605   0.928  11.182  0.2825 -0.5177 -0.0482
 9820TIP3    H250952   0.653   0.982  11.049  0.0022 -0.1386  0.0026
 9821TIP3   OH250953   5.648   4.131   6.126  0.3119  0.2130  0.1032
 9821TIP3    H150954   5.689   4.218   6.129 -0.8615  0.7243  2.4483
 9821TIP3    H250955   5.702   4.078   6.184 -0.4450  0.0691  0.6905
 9822TIP3   OH250956   3.629   0.230  12.226  0.3567 -1.0560 -0.2489
 9822TIP3    H150957   3.626   0.193  12.315 -0.5532  1.8304  0.9964
 9822TIP3    H250958   3.712   0.278  12.223 -0.4653  0.3898 -0.2788
 9823TIP3   OH250959   2.678   1.624   4.456 -0.2013 -0.1523 -0.3257
 9823TIP3    H150960   2.709   1.563   4.523 -0.4615 -1.5824 -1.5056
 9823TIP3    H250961   2.756   1.645   4.405 -0.5567 -1.2432 -1.3100
 9824TIP3   OH250962   3.435   2.438   0.071  0.6994  0.0303 -0.2382
 9824TIP3    H150963   3.520   2.475   0.094 -0.2915  0.1532  3.5960
 9824TIP3    H250964   3.372   2.505   0.096 -0.6247 -0.4662 -2.0994
 9825TIP3   OH250965   1.699   1.216   6.545 -0.4083 -0.4070 -0.2434
 9825TIP3    H150966   1.780   1.172   6.518  0.4275  1.0449 -0.2052
 9825TIP3    H250967   1.631   1.179   6.489  0.2681 -1.7043 -0.2200
 9826TIP3   OH250968   4.818   2.767   3.529 -0.4348  0.2944  0.2454
 9826TIP3    H150969   4.807   2.853   3.568 -2.3735  0.1617  0.0340
 9826TIP3    H250970   4.733   2.746   3.491 -0.1682 -1.9366  0.7545
 9827TIP3   OH250971   6.539   3.609  17.082 -0.2617 -0.2277  0.0994
 9827TIP3    H150972   6.555   3.669  17.009 -0.7983  0.9808  0.9717
 9827TIP3    H250973   6.627   3.581  17.109 -0.0094  0.1622 -0.3110
 9828TIP3   OH250974   0.073   3.574   4.738  0.2402  0.0598  0.1549
 9828TIP3    H150975   0.079   3.485   4.701  0.2822  0.4173 -0.7028
 9828TIP3    H250976  -0.003   3.570   4.796 -1.9663  0.4274 -2.6023
 9829TIP3   OH250977   2.999   4.551   4.265 -0.3983  0.4709 -0.3455
 9829TIP3    H150978   3.031   4.619   4.324  0.4614  0.8044 -1.1823
 9829TIP3    H250979   2.965   4.599   4.189  0.1163 -0.0198 -0.8927
 9830TIP3   OH250980   3.572   0.008   3.602 -0.2715 -0.1916  0.1207
 9830TIP3    H150981   3.512  -0.039   3.544  1.3581  0.5073 -2.1548
 9830TIP3    H250982   3.533   0.095   3.611 -0.9211 -0.5362  0.7116
 9831TIP3   OH250983   1.937   6.490   4.303  0.4524 -0.5271 -0.1687
 9831TIP3    H150984   1.911   6.476   4.212  1.2069 -0.9199 -0.3277
 9831TIP3    H250985   1.924   6.405   4.345  0.1702 -0.3636  0.0762
 9832TIP3   OH250986   3.574   4.388  13.085 -0.5157  0.0109 -0.0660
 9832TIP3    H150987   3.575   4.338  13.167  0.5320 -0.7744 -0.5369
 9832TIP3    H250988   3.501   4.351  13.036 -0.4052 -0.3367  0.0275
 9833TIP3   OH250989   4.956   3.135  16.175 -0.5025  0.0525  0.5326
 9833TIP3    H150990   5.018   3.193  16.220  1.5882 -0.4699 -1.5661
 9833TIP3    H250991   4.947   3.059  16.233 -0.9506  1.1446  1.9093
 9834TIP3   OH250992   6.724   6.681  13.076 -0.6830 -0.1408 -0.7387
 9834TIP3    H150993   6.714   6.752  13.139  0.0210  0.0914 -0.8849
 9834TIP3    H250994   6.768   6.612  13.124  1.6142  0.7547 -1.4795
 9835TIP3   OH250995   5.095   4.696   0.081 -0.2273 -1.0809  0.4896
 9835TIP3    H150996   5.120   4.719   0.170  1.7672 -0.2589 -0.2480
 9835TIP3    H250997   5.176   4.704   0.031 -1.5109 -0.6368 -1.5677
 9836TIP3   OH250998   3.934   3.261   2.386 -0.1045  0.1986 -0.5767
 9836TIP3    H150999   3.867   3.325   2.410  1.4257  1.5212  0.2142
 9836TIP3    H251000   4.010   3.284   2.439  1.1984 -0.8926 -1.9146
 9837TIP3   OH251001   6.620   5.198  16.302 -0.0682  0.0641  0.2493
 9837TIP3    H151002   6.659   5.274  16.260 -1.3215  1.5513  1.7207
 9837TIP3    H251003   6.633   5.127  16.239  1.1482  1.4592 -1.1257
 9838TIP3   OH251004   2.521   2.975   2.528 -0.0473 -0.0234 -0.5161
 9838TIP3    H151005   2.562   2.932   2.453  0.1871 -0.0044 -0.3971
 9838TIP3    H251006   2.441   2.924   2.544 -0.3512  0.2620 -1.0856
 9839TIP3   OH251007   1.023   4.389   5.427  0.0575 -0.6935 -0.4915
 9839TIP3    H151008   1.044   4.364   5.517  0.2995  3.6274  0.7619
 9839TIP3    H251009   1.079   4.333   5.373  2.4123 -1.0179  2.1687
 9840TIP3   OH251010   1.014   1.186  10.644  0.1093  0.3216 -0.0319
 9840TIP3    H151011   0.965   1.254  10.598 -0.7275  0.4731  1.0525
 9840TIP3    H251012   1.010   1.110  10.586 -1.5570  0.2887  0.1115
 9841TIP3   OH251013   4.486   4.715  12.812  1.1021  0.4854 -0.2476
 9841TIP3    H151014   4.437   4.775  12.869  0.0583 -0.1415 -0.4744
 9841TIP3    H251015   4.578   4.741  12.824  0.7463  1.5102  0.3738
 9842TIP3   OH251016   5.773   1.864  11.439 -0.3435 -0.0994  0.7058
 9842TIP3    H151017   5.759   1.922  11.514 -3.8848 -0.2697  0.2963
 9842TIP3    H251018   5.730   1.782  11.464 -1.1407 -0.3179 -1.2770
 9843TIP3   OH251019   3.326   3.698   3.949 -0.3123  0.3672 -0.2338
 9843TIP3    H151020   3.376   3.637   4.003  0.2544  0.6763 -0.4078
 9843TIP3    H251021   3.282   3.755   4.011  0.5539  0.8972 -0.0940
 9844TIP3   OH251022   1.756   6.073  11.504  0.4386 -0.4106 -0.1175
 9844TIP3    H151023   1.724   6.075  11.414  1.7573 -2.3181 -0.6535
 9844TIP3    H251024   1.829   6.011  11.503  2.7609  2.1707  1.5292
 9845TIP3   OH251025   4.190   5.713   4.031 -0.5483 -0.3753 -0.3646
 9845TIP3    H151026   4.130   5.699   3.957 -1.8782  1.5988  0.2969
 9845TIP3    H251027   4.244   5.787   4.005 -3.5760  2.8483  2.0930
 9846TIP3   OH251028   6.508   6.456   3.103  0.0142  0.0679  0.2148
 9846TIP3    H151029   6.586   6.468   3.049  0.7912 -1.8032  0.8688
 9846TIP3    H251030   6.445   6.415   3.045  0.7087 -1.5639  0.5748
 9847TIP3   OH251031   1.138   3.393   5.312  0.0207 -0.1170  0.0271
 9847TIP3    H151032   1.083   3.360   5.241  2.5847  0.1095 -2.1366
 9847TIP3    H251033   1.079   3.448   5.364 -1.7207  0.4189 -2.4215
 9848TIP3   OH251034   4.462   4.469   5.004  0.5031  0.7285 -0.1405
 9848TIP3    H151035   4.409   4.531   4.954  0.4534  0.9084  0.1363
 9848TIP3    H251036   4.410   4.450   5.082 -0.5199 -1.4161 -1.3112
 9849TIP3   OH251037   4.928   4.479  14.258 -0.2589  0.3412  0.5834
 9849TIP3    H151038   4.866   4.417  14.296  0.0550  0.3141  1.0560
 9849TIP3    H251039   4.958   4.532  14.332  0.1178  0.4996  0.3232
 9850TIP3   OH251040   3.643   5.648  17.104 -0.7727 -0.4521  0.2767
 9850TIP3    H151041   3.651   5.741  17.084  0.5612 -0.7816 -0.8438
 9850TIP3    H251042   3.708   5.606  17.048 -1.0583 -2.0201  1.0814
 9851TIP3   OH251043   5.161   2.820  14.880 -0.5685  0.2119  0.3236
 9851TIP3    H151044   5.198   2.887  14.938 -0.7823  1.3777 -0.8433
 9851TIP3    H251045   5.226   2.750  14.880  0.5067  1.1837  0.2240
 9852TIP3   OH251046   6.145   0.700  14.508 -0.1584 -0.2833  0.1058
 9852TIP3    H151047   6.227   0.741  14.479 -0.6795  1.3014  0.7894
 9852TIP3    H251048   6.079   0.736  14.449 -0.4995 -0.8499  0.1456
 9853TIP3   OH251049   1.118   5.310  15.282 -0.6001  0.7473 -0.0487
 9853TIP3    H151050   1.108   5.270  15.369 -1.5336  0.9878 -0.0435
 9853TIP3    H251051   1.201   5.275  15.249 -1.1463 -0.8127  0.1707
 9854TIP3   OH251052   1.670   3.708  12.846  0.5679  0.7116  0.2306
 9854TIP3    H151053   1.641   3.635  12.901  0.4322  1.3262  0.9919
 9854TIP3    H251054   1.742   3.748  12.896  0.9912  0.7787 -0.4277
 9855TIP3   OH251055   0.304   2.924   4.095 -0.0374  0.6166 -0.3179
 9855TIP3    H151056   0.283   3.016   4.111  0.7013  1.2720 -2.8658
 9855TIP3    H251057   0.398   2.918   4.106 -0.1976 -0.0394  0.7322
 9856TIP3   OH251058   2.488   6.496  16.906 -0.3830 -0.1357  0.2490
 9856TIP3    H151059   2.410   6.443  16.890 -1.7744  1.5115  1.4839
 9856TIP3    H251060   2.501   6.490  17.000  0.2169  0.6881  0.2182
 9857TIP3   OH251061   6.191   5.200   1.098 -0.2037 -0.7392  0.0797
 9857TIP3    H151062   6.136   5.248   1.036 -1.8162 -1.0895  1.1834
 9857TIP3    H251063   6.272   5.183   1.051  0.0561  2.2597 -0.6431
 9858TIP3   OH251064   2.292   2.247  14.391 -0.0903  0.9352  0.4832
 9858TIP3    H151065   2.289   2.310  14.319  1.6123 -1.7599 -2.0909
 9858TIP3    H251066   2.373   2.269  14.438  0.4518  0.7681 -0.3505
 9859TIP3   OH251067   3.346   2.822  17.143 -0.1439 -0.2031 -0.5541
 9859TIP3    H151068   3.420   2.798  17.199 -0.1219  1.0942  0.0046
 9859TIP3    H251069   3.357   2.916  17.128 -0.7136 -0.3334 -1.9161
 9860TIP3   OH251070   5.176   1.785  15.849  0.1828  0.0221 -0.0727
 9860TIP3    H151071   5.243   1.848  15.823  0.8289 -1.2388 -1.5651
 9860TIP3    H251072   5.114   1.836  15.901 -0.5345  2.4589 -3.1323
 9861TIP3   OH251073   3.291   4.150  11.718  0.5856  0.6556 -0.7185
 9861TIP3    H151074   3.361   4.137  11.783 -0.3939  0.0133  0.2373
 9861TIP3    H251075   3.231   4.212  11.760 -0.3560 -0.2234 -0.7479
 9862TIP3   OH251076   4.532   5.619   0.588  0.0873 -0.1216  0.1736
 9862TIP3    H151077   4.508   5.571   0.509  0.6974 -0.8906  0.4473
 9862TIP3    H251078   4.579   5.696   0.557 -1.2692  0.5399 -0.2919
 9863TIP3   OH251079   4.955   2.268  13.715  0.2802  0.6635  0.2011
 9863TIP3    H151080   4.980   2.226  13.798  1.2376  1.2590  0.2136
 9863TIP3    H251081   5.014   2.230  13.650 -0.7661 -0.1401 -0.3056
 9864TIP3   OH251082   1.433   1.397  14.222 -0.1202 -0.2507 -0.6111
 9864TIP3    H151083   1.448   1.453  14.145 -1.2623  0.4904 -0.3208
 9864TIP3    H251084   1.410   1.459  14.292  0.4643 -0.9546  0.2027
 9865TIP3   OH251085   0.311   1.742  13.583  0.3869 -0.3687 -0.0744
 9865TIP3    H151086   0.335   1.670  13.641 -2.1301 -0.0245  1.4760
 9865TIP3    H251087   0.377   1.809  13.600  0.8194 -1.0313  0.9234
 9866TIP3   OH251088   1.332   4.588  16.505 -0.4114 -0.1665 -1.1606
 9866TIP3    H151089   1.412   4.544  16.478 -1.4101 -1.4746 -2.0445
 9866TIP3    H251090   1.262   4.541  16.459 -1.6791  0.9699 -0.4236
 9867TIP3   OH251091   3.513   4.122   4.639 -0.1783  0.0839  0.2204
 9867TIP3    H151092   3.501   4.196   4.580 -0.3960  0.0282  0.1946
 9867TIP3    H251093   3.429   4.113   4.684  0.1629  0.4801  0.9511
 9868TIP3   OH251094   2.481   6.554   5.431  0.1511  0.2292  0.5026
 9868TIP3    H151095   2.505   6.471   5.470 -0.2738 -1.2627 -2.2480
 9868TIP3    H251096   2.555   6.612   5.449  1.5425 -1.4656  0.3646
 9869TIP3   OH251097   6.159   6.244   0.841 -0.0421 -0.3702  0.4376
 9869TIP3    H151098   6.156   6.154   0.809  1.4599 -0.3371  0.1763
 9869TIP3    H251099   6.097   6.291   0.785  0.5979 -0.8525 -0.7036
 9870TIP3   OH251100   5.243   5.519  11.632  0.4492 -0.2011 -0.0100
 9870TIP3    H151101   5.301   5.469  11.690 -0.8995 -2.0952 -0.2245
 9870TIP3    H251102   5.174   5.457  11.609 -0.4878  1.3527 -1.4939
 9871TIP3   OH251103   0.322   1.991  11.454  0.0459  0.0914  0.1573
 9871TIP3    H151104   0.289   2.000  11.365  0.4064 -0.4870 -0.0377
 9871TIP3    H251105   0.250   1.949  11.502 -0.3522  0.8852  0.2753
 9872TIP3   OH251106   3.066   3.601  17.205  0.1401 -1.0244  0.3219
 9872TIP3    H151107   3.076   3.510  17.234 -0.4256 -0.7899  1.2827
 9872TIP3    H251108   3.143   3.617  17.151  0.0569 -2.1934 -0.1701
 9873TIP3   OH251109   1.694   2.991  10.860 -0.0540  0.0843  0.6096
 9873TIP3    H151110   1.611   3.030  10.831 -0.1916 -2.3738 -2.5786
 9873TIP3    H251111   1.691   2.997  10.955 -2.5354  2.7307  0.4438
 9874TIP3   OH251112   1.486   1.261  10.551  0.5796  0.4665  0.0682
 9874TIP3    H151113   1.501   1.325  10.483  1.1751  1.3492  1.0193
 9874TIP3    H251114   1.554   1.195  10.538  0.4348  0.4153 -0.4396
 9875TIP3   OH251115   0.204   5.186   4.672 -0.1966 -0.0485 -0.2411
 9875TIP3    H151116   0.233   5.156   4.758  0.5980  0.0080 -0.4893
 9875TIP3    H251117   0.178   5.277   4.686 -1.0389 -0.3380  0.1518
 9876TIP3   OH251118   6.214   4.309   1.461 -0.3259  0.4594 -0.2839
 9876TIP3    H151119   6.251   4.221   1.461 -0.9994  0.1764 -0.7754
 9876TIP3    H251120   6.237   4.345   1.547 -0.5831 -0.4197  0.1534
 9877TIP3   OH251121   4.916   0.440  13.785  0.1490 -0.5501 -0.2686
 9877TIP3    H151122   4.849   0.380  13.752  0.6465 -1.2687  0.0150
 9877TIP3    H251123   4.944   0.401  13.868 -0.9937  1.1583  0.9608
 9878TIP3   OH251124   3.654   0.125  16.451 -0.1258  0.2919  0.3257
 9878TIP3    H151125   3.605   0.112  16.369 -1.0382  2.7100  0.4503
 9878TIP3    H251126   3.587   0.136  16.518  0.6245 -1.3022  1.3670
 9879TIP3   OH251127   4.877   1.395  11.342  0.1531  0.1626 -0.4943
 9879TIP3    H151128   4.820   1.430  11.411 -0.8115 -2.6360  0.1696
 9879TIP3    H251129   4.904   1.473  11.293 -2.5144  1.7768  0.4678
 9880TIP3   OH251130   2.085   4.228   3.054  0.0559  0.1517 -0.4668
 9880TIP3    H151131   2.062   4.135   3.058  0.9366 -0.0144  1.0783
 9880TIP3    H251132   2.095   4.246   2.961 -0.0001 -1.3312 -0.7761
 9881TIP3   OH251133   5.000   3.411   2.183 -0.5423  0.1566 -0.1278
 9881TIP3    H151134   5.008   3.435   2.091  1.2963  2.1266  0.5011
 9881TIP3    H251135   4.924   3.459   2.215 -0.4003  0.4883 -0.2976
 9882TIP3   OH251136   1.351   6.406   2.593 -0.1133  0.5330  0.0150
 9882TIP3    H151137   1.405   6.330   2.572 -1.2907 -0.9791  2.2113
 9882TIP3    H251138   1.283   6.408   2.526  1.2262  1.0070 -1.3485
 9883TIP3   OH251139   0.116   4.471  13.019  0.2094  0.0204  0.0525
 9883TIP3    H151140   0.128   4.556  12.978  1.0477  0.6991  1.6752
 9883TIP3    H251141   0.204   4.434  13.025 -0.2083 -1.2029 -1.1320
 9884TIP3   OH251142   6.205   2.488  14.216 -0.3000  0.2799 -0.3429
 9884TIP3    H151143   6.164   2.428  14.278  1.0929 -0.0739  0.2489
 9884TIP3    H251144   6.179   2.456  14.130 -1.2395  0.0514  0.0232
 9885TIP3   OH251145   5.737   2.201   3.873 -0.0992  0.4504  1.0076
 9885TIP3    H151146   5.735   2.281   3.925 -0.4781 -0.2965  2.1368
 9885TIP3    H251147   5.755   2.131   3.935 -2.7358 -0.7278  0.5068
 9886TIP3   OH251148   0.641   4.523  12.241  0.1476  0.7915 -0.9770
 9886TIP3    H151149   0.686   4.509  12.157 -0.6077 -1.3233 -1.0696
 9886TIP3    H251150   0.555   4.483  12.229  0.8042 -1.4779  1.4951
 9887TIP3   OH251151   6.604   4.256   6.689  0.1355 -0.0806 -0.2785
 9887TIP3    H151152   6.594   4.326   6.625 -0.2468  1.5230  1.4917
 9887TIP3    H251153   6.665   4.194   6.648  1.8393  2.1360 -1.1869
 9888TIP3   OH251154   3.904   6.112   6.221 -0.3334  0.0312  0.4857
 9888TIP3    H151155   3.841   6.170   6.263 -0.3513 -1.7793  3.0943
 9888TIP3    H251156   3.937   6.057   6.292  1.4111 -1.5681 -1.4907
 9889TIP3   OH251157   4.508   0.429   2.321 -0.2814  0.1880  0.0289
 9889TIP3    H151158   4.505   0.392   2.409  2.3119 -0.4781 -0.1001
 9889TIP3    H251159   4.448   0.503   2.323 -2.7277 -1.7558  1.3967
 9890TIP3   OH251160   3.552   0.602  11.756 -0.2317  0.0718 -0.2038
 9890TIP3    H151161   3.508   0.635  11.677  1.8377  1.9760 -0.6201
 9890TIP3    H251162   3.549   0.676  11.817  0.1166 -0.6417  0.6790
 9891TIP3   OH251163   2.666   6.093   0.839 -0.6707  0.1337 -0.0437
 9891TIP3    H151164   2.719   6.016   0.820  2.7689  1.4533  3.6085
 9891TIP3    H251165   2.704   6.162   0.784 -0.7692  0.3253  0.1271
 9892TIP3   OH251166   4.305   4.746  12.538 -0.8284  0.7018  0.4330
 9892TIP3    H151167   4.347   4.768  12.621 -3.3145  1.0370  1.6492
 9892TIP3    H251168   4.316   4.825  12.484  1.7978  0.0699 -0.0164
 9893TIP3   OH251169   6.752   4.322   1.910  0.2153  0.5645  0.6250
 9893TIP3    H151170   6.676   4.337   1.967  0.3663  0.3274  0.8877
 9893TIP3    H251171   6.783   4.410   1.889 -0.4830  0.6781  0.0475
 9894TIP3   OH251172   5.306   3.753  12.484  0.1748  0.1107  0.6719
 9894TIP3    H151173   5.340   3.670  12.519 -0.3390 -0.4945 -0.2547
 9894TIP3    H251174   5.368   3.819  12.515  0.5175 -0.5967  1.5315
 9895TIP3   OH251175   0.022   2.149   1.932 -0.5631  0.0509 -0.5065
 9895TIP3    H151176   0.055   2.215   1.994 -0.0479 -1.8876  1.3347
 9895TIP3    H251177  -0.071   2.141   1.954 -0.3986 -0.5772 -0.0262
 9896TIP3   OH251178   1.504   2.502  13.904 -0.3220  0.0181  0.4068
 9896TIP3    H151179   1.491   2.565  13.833 -0.4842  0.6669  1.0023
 9896TIP3    H251180   1.599   2.496  13.914 -0.2856 -0.5176 -0.2516
 9897TIP3   OH251181   3.972   4.676   5.578  0.5666  0.2551  0.0301
 9897TIP3    H151182   3.915   4.632   5.640 -0.3655 -1.4213 -1.9739
 9897TIP3    H251183   4.059   4.638   5.594  0.4324  0.1807  0.6100
 9898TIP3   OH251184   6.484   6.208   1.626  0.2977 -0.5259  0.3495
 9898TIP3    H151185   6.564   6.260   1.622 -0.2230  0.2889  0.4598
 9898TIP3    H251186   6.415   6.267   1.596 -0.2631 -1.2164  0.2700
 9899TIP3   OH251187   6.237   4.561  14.266 -0.3731 -0.0244  0.3197
 9899TIP3    H151188   6.235   4.620  14.341 -1.4646 -0.2640  0.4909
 9899TIP3    H251189   6.147   4.562  14.231 -0.3186 -1.2584  0.0911
 9900TIP3   OH251190   3.257   6.506   0.284 -0.0461  0.4815 -0.0039
 9900TIP3    H151191   3.327   6.465   0.233  1.4661  0.5505  1.9835
 9900TIP3    H251192   3.259   6.598   0.260  0.4741  0.4620 -0.0233
 9901TIP3   OH251193   4.247   0.863   3.531 -0.0874 -0.8371 -0.4540
 9901TIP3    H151194   4.258   0.816   3.448  2.2099 -0.9863 -0.0850
 9901TIP3    H251195   4.190   0.806   3.583 -1.4393 -0.8029 -1.8593
 9902TIP3   OH251196   5.430   4.515  12.632  0.4338  0.0967 -0.2242
 9902TIP3    H151197   5.498   4.580  12.646  0.3084  0.5324 -1.6478
 9902TIP3    H251198   5.349   4.565  12.625 -0.1112 -0.4494  1.8716
 9903TIP3   OH251199   5.306   5.601   3.944  0.3318 -0.4761 -0.7448
 9903TIP3    H151200   5.392   5.644   3.950  0.5312 -0.8546 -0.8827
 9903TIP3    H251201   5.326   5.507   3.941 -0.1822 -0.6406  0.9478
 9904TIP3   OH251202   4.211   3.916   0.001  0.3444  0.1546 -0.3126
 9904TIP3    H151203   4.182   3.960  -0.079  3.0294 -1.4313 -2.2436
 9904TIP3    H251204   4.194   3.823  -0.016  0.4061 -0.1410  1.1910
 9905TIP3   OH251205   1.050   0.246   4.949  0.1132 -0.0902  0.1614
 9905TIP3    H151206   0.962   0.210   4.941  0.2947 -0.7183  0.9475
 9905TIP3    H251207   1.037   0.336   4.979 -0.2387 -0.4067  0.9691
 9906TIP3   OH251208   3.139   0.471   3.353 -0.1768  0.0640 -0.0664
 9906TIP3    H151209   3.106   0.383   3.331  0.3463 -0.0652 -0.3328
 9906TIP3    H251210   3.232   0.467   3.332 -1.1482  2.4964 -5.7816
 9907TIP3   OH251211   4.984   1.321   3.360 -0.1161  0.2191 -0.0611
 9907TIP3    H151212   5.007   1.288   3.447  0.1254 -1.6770 -0.8052
 9907TIP3    H251213   4.891   1.299   3.351  0.3553 -1.4910 -1.0614
 9908TIP3   OH251214   2.234   5.517  13.628  0.0384  0.1604  0.5606
 9908TIP3    H151215   2.222   5.427  13.656  1.1892  0.0530  0.7225
 9908TIP3    H251216   2.146   5.554  13.628 -0.3708 -0.8031  1.0296
 9909TIP3   OH251217   3.119   1.746   1.892 -0.4428  0.1791 -0.2115
 9909TIP3    H151218   3.111   1.652   1.875  0.1754  0.4559 -2.2199
 9909TIP3    H251219   3.036   1.771   1.931 -0.2208 -1.3915  1.3608
 9910TIP3   OH251220   6.325   0.907  13.110 -0.3298 -0.7337  0.4228
 9910TIP3    H151221   6.282   0.914  13.025 -0.1518 -2.4055  0.1931
 9910TIP3    H251222   6.405   0.859  13.093 -0.5340 -1.5255  1.6183
 9911TIP3   OH251223   2.717   1.970  12.632 -0.1217 -0.4049  0.0032
 9911TIP3    H151224   2.686   1.956  12.542  1.4803  0.9149 -0.7645
 9911TIP3    H251225   2.649   2.024  12.672 -0.4423 -0.3139 -0.6534
 9912TIP3   OH251226   0.412   3.706   4.021  0.4659  0.8459  0.0069
 9912TIP3    H151227   0.440   3.631   3.968 -0.6486  1.0409 -0.8877
 9912TIP3    H251228   0.484   3.720   4.082  0.1899 -1.6865  0.9784
 9913TIP3   OH251229   6.539   2.412  12.608 -0.7199 -0.0362 -0.4289
 9913TIP3    H151230   6.521   2.324  12.577 -0.6142 -0.5654  0.9633
 9913TIP3    H251231   6.583   2.399  12.692  2.4676  1.2674 -1.8084
 9914TIP3   OH251232   6.594   2.972  11.175  0.2246 -0.2229  0.4661
 9914TIP3    H151233   6.680   2.967  11.217 -0.5400 -0.1382  2.0901
 9914TIP3    H251234   6.613   2.977  11.082  1.9349 -1.5797  0.7246
 9915TIP3   OH251235   2.185   4.323   4.615 -0.7531 -0.1317  0.0531
 9915TIP3    H151236   2.092   4.328   4.634 -0.6361  0.8859  0.4037
 9915TIP3    H251237   2.192   4.257   4.545 -1.6570 -0.6452  0.4394
 9916TIP3   OH251238   2.038   6.052   3.490  0.2693 -0.3350  0.2348
 9916TIP3    H151239   2.088   6.109   3.548 -1.2008  0.5798  0.6469
 9916TIP3    H251240   1.978   6.111   3.444 -1.6135 -1.5766  1.0290
 9917TIP3   OH251241   5.596   5.040   1.353  0.4239 -0.9413  0.6130
 9917TIP3    H151242   5.661   5.047   1.423  0.4383  0.4533  0.4861
 9917TIP3    H251243   5.516   5.077   1.391  0.0126 -1.6179  0.4047
 9918TIP3   OH251244   3.901   4.588  11.260 -0.2136 -0.3111  0.5532
 9918TIP3    H151245   3.918   4.611  11.170 -1.3861 -0.6767  0.2189
 9918TIP3    H251246   3.926   4.665  11.311  0.8466 -0.2630 -0.0357
 9919TIP3   OH251247   0.108   1.464  15.760  0.2803 -0.1637 -0.2838
 9919TIP3    H151248   0.119   1.386  15.706  1.2828  1.2436 -2.1836
 9919TIP3    H251249   0.133   1.436  15.848  0.4475 -2.0209 -0.9062
 9920TIP3   OH251250   0.003   2.070   1.117 -0.3253  0.0922  0.2725
 9920TIP3    H151251   0.048   2.007   1.061  0.0707  1.5975 -1.1598
 9920TIP3    H251252   0.072   2.129   1.147 -0.5424 -0.6992  2.3728
 9921TIP3   OH251253   6.270   6.820   5.315 -0.0717 -0.0530  0.1400
 9921TIP3    H151254   6.176   6.830   5.327 -0.5680  0.3338 -3.5073
 9921TIP3    H251255   6.284   6.726   5.305 -0.3278  0.0177 -0.9576
 9922TIP3   OH251256   0.474   1.056   4.098  0.1868  0.4423  0.1595
 9922TIP3    H151257   0.385   1.043   4.129  0.1111 -0.5916 -0.4747
 9922TIP3    H251258   0.510   1.124   4.155 -0.6350  0.0523  1.1482
 9923TIP3   OH251259   3.180   1.603  14.297 -0.5592  0.8280 -0.1234
 9923TIP3    H151260   3.122   1.534  14.328 -0.7626  1.0909  0.0904
 9923TIP3    H251261   3.131   1.646  14.227 -1.2400  1.9855  1.0312
 9924TIP3   OH251262   2.912   4.605  11.262  0.7511  0.0041  0.6616
 9924TIP3    H151263   2.891   4.642  11.348  1.1260  2.2934 -0.2123
 9924TIP3    H251264   2.914   4.680  11.203  1.6227 -1.4040 -1.1450
 9925TIP3   OH251265   1.686   0.833   0.038  0.5269 -0.1353 -0.0072
 9925TIP3    H151266   1.621   0.850  -0.030 -0.1860  2.0496  1.1458
 9925TIP3    H251267   1.755   0.783  -0.005 -1.4135 -1.5524 -1.5159
 9926TIP3   OH251268   4.233   1.295   1.370 -0.5228  0.7027 -0.4540
 9926TIP3    H151269   4.323   1.321   1.387 -0.5112 -0.0199  0.6213
 9926TIP3    H251270   4.239   1.207   1.333 -0.8165  0.4597  0.0757
 9927TIP3   OH251271   1.017   0.139   0.906 -0.4092  0.1885  0.1452
 9927TIP3    H151272   1.059   0.176   0.983 -1.8337  1.3838  0.3818
 9927TIP3    H251273   1.047   0.193   0.833  0.7669 -0.8045 -0.1068
 9928TIP3   OH251274   1.190   1.794  14.524  0.6551 -0.1251 -0.0212
 9928TIP3    H151275   1.129   1.794  14.451 -0.5093 -0.3964  0.9276
 9928TIP3    H251276   1.235   1.878  14.518  0.6673 -0.2086 -1.1214
 9929TIP3   OH251277   0.192   5.958   2.590  0.2862  0.2665  0.1457
 9929TIP3    H151278   0.121   5.984   2.531  0.5795 -0.7423 -0.6603
 9929TIP3    H251279   0.240   5.890   2.543  0.8348 -0.2027  1.3394
 9930TIP3   OH251280   6.231   2.312   2.927 -0.4318  0.0207  0.2718
 9930TIP3    H151281   6.250   2.247   2.860 -1.2515 -0.5966  0.6284
 9930TIP3    H251282   6.150   2.354   2.896 -0.3942  0.2497  0.4893
 9931TIP3   OH251283   1.694   0.325   6.843  0.6165  0.2076  0.2728
 9931TIP3    H151284   1.604   0.298   6.860  0.0112  0.6471 -2.0159
 9931TIP3    H251285   1.692   0.420   6.848  0.8450  0.2420 -0.2081
 9932TIP3   OH251286   3.839   4.444  12.915 -0.1024  0.2214 -0.4202
 9932TIP3    H151287   3.803   4.383  12.851 -0.3608 -0.4154  0.3273
 9932TIP3    H251288   3.775   4.445  12.987  2.4705 -2.9422  2.1282
 9933TIP3   OH251289   0.570   2.986  14.924  0.0810  0.1942 -0.0392
 9933TIP3    H151290   0.556   2.891  14.919  0.8351  0.1385 -1.2294
 9933TIP3    H251291   0.493   3.023  14.881  0.4246  0.0756 -0.7650
 9934TIP3   OH251292   1.340   6.556   3.450 -0.0591  0.1041  0.7274
 9934TIP3    H151293   1.382   6.584   3.531  0.7603  2.1442 -0.3485
 9934TIP3    H251294   1.346   6.632   3.392 -2.2575 -0.6852 -0.6331
 9935TIP3   OH251295   4.848   6.079  15.665 -0.0641 -0.5844  0.8958
 9935TIP3    H151296   4.907   6.154  15.655 -0.2608 -0.7816 -2.2550
 9935TIP3    H251297   4.763   6.117  15.686 -0.7917  0.3514 -3.3468
 9936TIP3   OH251298   3.750   3.559   2.903 -0.4727 -0.3807 -1.0149
 9936TIP3    H151299   3.762   3.602   2.818 -1.7986 -0.0332 -1.0375
 9936TIP3    H251300   3.702   3.623   2.956 -0.4733 -0.9535 -0.3130
 9937TIP3   OH251301   4.520   5.499   5.836  0.1446 -0.3827 -0.0969
 9937TIP3    H151302   4.513   5.409   5.867  1.2270 -0.4429 -0.0345
 9937TIP3    H251303   4.595   5.499   5.777 -0.5237  0.2380 -0.9573
 9938TIP3   OH251304   1.916   1.540  15.524  0.6277 -0.7191 -0.4786
 9938TIP3    H151305   1.863   1.565  15.449  0.5905  0.4323 -0.0693
 9938TIP3    H251306   1.876   1.458  15.555 -0.1868 -0.4767 -0.8782
 9939TIP3   OH251307   2.606   4.181  15.286 -0.3221  0.0004  0.1675
 9939TIP3    H151308   2.687   4.142  15.253 -1.8937 -2.0094 -1.3762
 9939TIP3    H251309   2.619   4.276  15.273 -0.1652 -0.5551 -4.6888
 9940TIP3   OH251310   1.224   4.052  13.438  0.3030 -0.3024 -0.1436
 9940TIP3    H151311   1.191   4.073  13.525  3.4157 -0.7020  1.2137
 9940TIP3    H251312   1.173   3.976  13.410  0.2543 -1.0790  1.9722
 9941TIP3   OH251313   2.271   5.176  16.878  0.1420  0.3318  0.1421
 9941TIP3    H151314   2.294   5.196  16.787  2.2691  1.3816  0.8969
 9941TIP3    H251315   2.204   5.108  16.870  0.8255 -0.1283 -2.2002
 9942TIP3   OH251316   5.327   2.577  13.544 -0.2862 -0.3016 -0.0546
 9942TIP3    H151317   5.332   2.653  13.486  0.5174  0.3046  0.8038
 9942TIP3    H251318   5.298   2.613  13.628  0.7916 -0.8440  0.5485
 9943TIP3   OH251319   4.817   2.687  17.226  0.4069  0.4973  0.7919
 9943TIP3    H151320   4.840   2.729  17.309 -0.1711  2.5440 -0.0347
 9943TIP3    H251321   4.772   2.756  17.177 -2.1004 -1.6255  0.0232
 9944TIP3   OH251322   4.011   0.184  12.162 -0.5578  0.9047 -0.2640
 9944TIP3    H151323   3.949   0.257  12.170 -1.6365 -0.2257  2.1735
 9944TIP3    H251324   4.097   0.226  12.163 -1.1837  2.2468 -0.3648
 9945TIP3   OH251325   3.061   6.784  14.220 -0.5637  0.4963  0.0929
 9945TIP3    H151326   2.969   6.809  14.209 -0.0638  2.6326  0.4285
 9945TIP3    H251327   3.107   6.867  14.233  1.2306 -0.6333  1.2875
 9946TIP3   OH251328   5.475   2.232   3.774 -0.3088  0.8012  0.0193
 9946TIP3    H151329   5.560   2.211   3.813 -1.2570  0.7995  2.1513
 9946TIP3    H251330   5.454   2.320   3.806  0.0551  1.9091 -2.6134
 9947TIP3   OH251331   5.541   0.608  16.066  0.6262  0.5944 -0.5753
 9947TIP3    H151332   5.608   0.577  16.005  0.8150 -0.9194  0.3505
 9947TIP3    H251333   5.588   0.619  16.149 -0.4467 -1.5671  0.3760
 9948TIP3   OH251334   3.138   1.965   3.016  0.2432 -0.1722  0.2413
 9948TIP3    H151335   3.187   1.884   3.029 -0.1526 -0.5839 -0.7600
 9948TIP3    H251336   3.202   2.027   2.982  0.5970  0.0033  1.2184
 9949TIP3   OH251337   6.538   0.910   0.136 -0.2343  0.2228 -0.0559
 9949TIP3    H151338   6.472   0.921   0.068  0.8535 -1.0737 -1.3806
 9949TIP3    H251339   6.523   0.821   0.170  0.7332 -0.0459 -0.2998
 9950TIP3   OH251340   3.099   4.811  15.813 -0.2443 -0.0875  0.1265
 9950TIP3    H151341   3.191   4.799  15.835 -0.3546 -0.4604  0.3895
 9950TIP3    H251342   3.096   4.810  15.717 -0.1585 -1.4466  0.1400
 9951TIP3   OH251343   0.686   3.750  16.469  0.3036  0.0284 -0.2564
 9951TIP3    H151344   0.708   3.673  16.522  1.0359  0.3788 -0.0542
 9951TIP3    H251345   0.598   3.731  16.435  0.2872 -0.6883  0.1774
 9952TIP3   OH251346   1.056   1.523  14.959  0.3361 -0.3554 -0.3513
 9952TIP3    H151347   1.134   1.551  14.912  0.5518 -0.5457 -0.1133
 9952TIP3    H251348   1.071   1.552  15.049  1.0585 -2.1649  0.1417
 9953TIP3   OH251349   0.688   2.531   0.981 -0.0384 -0.5832 -0.1372
 9953TIP3    H151350   0.747   2.596   0.944 -1.2368  1.4775  1.4684
 9953TIP3    H251351   0.700   2.454   0.926  3.2480  0.1550 -0.5850
 9954TIP3   OH251352   5.230   4.927  11.173 -0.8230 -0.3786  0.5503
 9954TIP3    H151353   5.305   4.880  11.211 -0.7665 -0.5899  0.1776
 9954TIP3    H251354   5.257   4.946  11.083 -0.6406  0.8026  0.8403
 9955TIP3   OH251355   0.417   3.138   4.262  0.1802 -0.1490 -0.2521
 9955TIP3    H151356   0.494   3.092   4.230  1.0011  0.4440  0.8369
 9955TIP3    H251357   0.377   3.078   4.325  0.2963 -0.0666 -0.0994
 9956TIP3   OH251358   1.990   2.231   4.559  0.9145  0.0836  0.4819
 9956TIP3    H151359   1.916   2.269   4.513  0.3856 -1.0645  0.3743
 9956TIP3    H251360   2.066   2.253   4.506  0.5012  0.1855 -0.0648
 9957TIP3   OH251361   4.716   3.579   2.711 -0.3938 -0.0739  0.0499
 9957TIP3    H151362   4.794   3.524   2.714  0.4478  0.9490 -1.8517
 9957TIP3    H251363   4.651   3.526   2.666 -0.5406 -0.6523  0.9573
 9958TIP3   OH251364   5.990   6.341  12.034  0.3955  0.3855 -0.6102
 9958TIP3    H151365   6.079   6.330  12.068  0.3892 -1.0109 -0.9933
 9958TIP3    H251366   5.934   6.303  12.102  0.1343  0.7236 -0.6362
 9959TIP3   OH251367   2.805   0.521   0.143 -0.1796 -0.3008  0.3257
 9959TIP3    H151368   2.734   0.538   0.205  0.1585  3.1456 -0.0909
 9959TIP3    H251369   2.883   0.552   0.189  0.4170  0.0216 -0.9001
 9960TIP3   OH251370   3.831   0.198   0.579  0.1814 -0.1412  0.1675
 9960TIP3    H151371   3.852   0.289   0.560 -1.2133  0.1106 -0.2477
 9960TIP3    H251372   3.735   0.194   0.573  0.2526 -1.6884 -0.0933
 9961TIP3   OH251373   4.747   4.437   1.267 -0.2305 -0.3369 -0.2588
 9961TIP3    H151374   4.673   4.486   1.234  1.3070  1.4401 -1.1402
 9961TIP3    H251375   4.743   4.449   1.362 -0.5132  0.5674 -0.3806
 9962TIP3   OH251376   5.381   1.624   5.261 -0.0287  1.0110 -0.2219
 9962TIP3    H151377   5.423   1.615   5.175 -0.2410 -0.5989 -0.1709
 9962TIP3    H251378   5.290   1.643   5.241  0.1311  1.6617 -0.3435
 9963TIP3   OH251379   1.511   6.444  16.958 -0.9235  0.8290  0.7484
 9963TIP3    H151380   1.597   6.481  16.975 -0.1041 -1.2715  1.3307
 9963TIP3    H251381   1.505   6.369  17.018 -1.8181 -1.0315 -1.5996
 9964TIP3   OH251382   2.189   3.653   3.103 -0.7602  0.0101  0.6063
 9964TIP3    H151383   2.220   3.711   3.033 -1.5690  0.6709  0.7834
 9964TIP3    H251384   2.203   3.565   3.069 -1.1002  0.3272 -0.3730
 9965TIP3   OH251385   2.192   6.368  12.009 -0.4045  0.2510  0.3747
 9965TIP3    H151386   2.162   6.417  12.086 -0.8263  0.7461 -0.0964
 9965TIP3    H251387   2.112   6.335  11.969 -0.0678 -1.6292  1.2011
 9966TIP3   OH251388   3.332   5.304   3.110  0.2654 -0.1512 -0.2822
 9966TIP3    H151389   3.318   5.375   3.047  1.8374 -0.4293 -0.9612
 9966TIP3    H251390   3.401   5.337   3.167 -0.3851 -0.3517  0.6221
 9967TIP3   OH251391   2.126   5.585  16.059 -0.4467 -0.2747  0.5843
 9967TIP3    H151392   2.159   5.545  15.978 -0.4769 -1.2175  1.0283
 9967TIP3    H251393   2.201   5.584  16.118 -0.9854 -1.5281  1.2683
 9968TIP3   OH251394   5.567   0.699  10.912  0.0590  0.1391  0.5692
 9968TIP3    H151395   5.535   0.617  10.950 -0.1022 -0.3853 -0.6855
 9968TIP3    H251396   5.547   0.692  10.819  2.7954  0.2819 -0.0694
 9969TIP3   OH251397   5.858   4.739  15.017  0.1806 -0.1973 -0.1300
 9969TIP3    H151398   5.773   4.770  14.989  0.3673  0.8022  0.4004
 9969TIP3    H251399   5.920   4.804  14.986  0.8599 -1.3885 -1.3166
 9970TIP3   OH251400   5.994   2.307  14.649  0.3475 -0.1541 -0.0811
 9970TIP3    H151401   5.994   2.211  14.652 -0.6814 -0.1298  1.1492
 9970TIP3    H251402   5.903   2.331  14.667  0.2542  1.0243 -2.0418
 9971TIP3   OH251403   0.046   4.609   2.499 -0.2047  0.3685  0.4006
 9971TIP3    H151404   0.106   4.638   2.430  0.5313  1.8921  1.6525
 9971TIP3    H251405   0.097   4.546   2.549 -0.7569 -0.7763 -0.4634
 9972TIP3   OH251406   3.990   0.725  14.172  0.7260  0.0954  0.0953
 9972TIP3    H151407   3.985   0.644  14.121  0.8171 -0.0109  0.2521
 9972TIP3    H251408   3.944   0.790  14.119 -0.7715 -0.4346  0.6939
 9973TIP3   OH251409   4.554   1.864   5.549  0.3069 -0.1102  0.1582
 9973TIP3    H151410   4.589   1.775   5.545 -0.6529 -0.5135  0.4581
 9973TIP3    H251411   4.556   1.886   5.642  2.1663  0.8593 -0.0872
 9974TIP3   OH251412   0.967   5.145   6.777 -0.4479  0.4463 -0.4884
 9974TIP3    H151413   0.876   5.163   6.754 -0.3717  0.3655 -0.8560
 9974TIP3    H251414   0.974   5.049   6.770 -0.6924  0.3250  0.8549
 9975TIP3   OH251415   0.750   4.498  15.917  0.3474 -0.3817  0.6855
 9975TIP3    H151416   0.845   4.508  15.925  0.1892  1.0590  1.0181
 9975TIP3    H251417   0.721   4.475  16.005  0.2126  0.8740  0.9799
 9976TIP3   OH251418   3.734   4.469  12.494  0.0485  0.2084  0.0035
 9976TIP3    H151419   3.652   4.518  12.493 -0.6808 -0.9841 -1.8633
 9976TIP3    H251420   3.790   4.513  12.430  0.2874  0.0759  0.1179
 9977TIP3   OH251421   6.546   4.099   1.479  0.1252  0.0159  0.1888
 9977TIP3    H151422   6.574   4.174   1.427  0.1469 -0.2804 -0.2331
 9977TIP3    H251423   6.556   4.127   1.570  0.8542  0.2549  0.0357
 9978TIP3   OH251424   0.653   4.034  13.248 -0.7756  0.2654 -0.0862
 9978TIP3    H151425   0.727   4.028  13.186  0.0956  0.8045  0.8928
 9978TIP3    H251426   0.629   4.127  13.247  0.6253  0.6706  1.9725
 9979TIP3   OH251427   5.765   3.901  15.523  0.3893  0.2582  0.1306
 9979TIP3    H151428   5.793   3.979  15.474  1.2648  1.7964  2.9847
 9979TIP3    H251429   5.678   3.924  15.556  0.6848  0.0698  1.0492
 9980TIP3   OH251430   1.888   1.702  12.099  0.1396 -0.0115 -0.0035
 9980TIP3    H151431   1.929   1.616  12.089 -1.2791 -0.7933  0.8115
 9980TIP3    H251432   1.885   1.738  12.011  0.2748 -1.0067 -0.4175
 9981TIP3   OH251433   1.468   0.260   5.482  0.3924  0.3439 -0.0601
 9981TIP3    H151434   1.553   0.276   5.524  0.1738  0.2406  0.4262
 9981TIP3    H251435   1.408   0.242   5.555 -0.0419  0.3915 -0.4016
 9982TIP3   OH251436   4.468   1.597   3.563  0.5902  0.1089 -0.1026
 9982TIP3    H151437   4.439   1.688   3.559 -1.6775 -0.5323  0.9199
 9982TIP3    H251438   4.483   1.573   3.471 -4.3062 -0.1248 -0.9984
 9983TIP3   OH251439   1.341   1.216  13.967 -0.2646 -0.3007 -0.2017
 9983TIP3    H151440   1.249   1.198  13.949 -0.2386 -0.2202 -0.4150
 9983TIP3    H251441   1.342   1.257  14.053 -0.1706 -2.9963  1.1352
 9984TIP3   OH251442   3.615   4.817  11.316 -0.8235  0.1158  0.3161
 9984TIP3    H151443   3.615   4.763  11.236  0.6850  1.0067 -0.3136
 9984TIP3    H251444   3.609   4.754  11.387  1.0691 -0.9402 -0.4044
 9985TIP3   OH251445   3.649   4.279  11.996  0.1735 -0.1841  0.2091
 9985TIP3    H151446   3.715   4.302  11.930  0.8471  0.3828  1.0764
 9985TIP3    H251447   3.695   4.287  12.080 -0.3126 -2.1100  0.6981
 9986TIP3   OH251448   1.030   0.912  10.950 -0.4246  0.5838 -1.0070
 9986TIP3    H151449   0.973   0.947  11.018 -0.4548 -2.5171  0.6469
 9986TIP3    H251450   0.972   0.858  10.896  0.7357 -2.0198  0.2642
 9987TIP3   OH251451   3.416   3.114   2.606 -0.0598  0.2282 -0.5141
 9987TIP3    H151452   3.326   3.127   2.636 -1.0543 -2.6185 -2.0309
 9987TIP3    H251453   3.407   3.087   2.514  2.2499 -1.3653 -0.3119
 9988TIP3   OH251454   6.303   0.228  16.373  0.2710  0.2337 -0.2261
 9988TIP3    H151455   6.256   0.300  16.330 -1.4270  0.2901  1.6206
 9988TIP3    H251456   6.234   0.166  16.397  1.7941 -2.4473 -2.5055
 9989TIP3   OH251457   1.187   3.947  14.192  0.0088 -0.1068  0.0925
 9989TIP3    H151458   1.102   3.991  14.198 -0.7064 -1.4193 -0.3117
 9989TIP3    H251459   1.244   4.000  14.248 -0.9635  1.0325  0.0373
 9990TIP3   OH251460   4.471   2.915   2.670 -0.4177 -0.0752  0.8102
 9990TIP3    H151461   4.546   2.897   2.613 -1.7353 -1.0410 -0.6403
 9990TIP3    H251462   4.431   2.830   2.686 -0.7523  0.3339  2.2486
 9991TIP3   OH251463   5.267   4.068   1.133 -0.1602 -0.3965 -0.1420
 9991TIP3    H151464   5.240   4.141   1.077  0.2725 -0.5252 -0.5290
 9991TIP3    H251465   5.234   4.090   1.220 -1.3481 -0.4689 -0.5584
 9992TIP3   OH251466   1.070   1.984  16.505  0.4869 -0.4753 -0.0962
 9992TIP3    H151467   1.105   1.898  16.527 -1.1868 -1.7294 -2.1693
 9992TIP3    H251468   1.083   1.993  16.411 -0.9142  0.7934 -0.2088
 9993TIP3   OH251469   3.652   6.165  13.608  0.0019  0.0382  0.9970
 9993TIP3    H151470   3.654   6.206  13.695  1.3937  0.5782  0.7251
 9993TIP3    H251471   3.732   6.196  13.565 -0.3204 -0.7889 -0.2243
 9994TIP3   OH251472   0.292   6.412  14.421  0.3036  0.1599  0.0045
 9994TIP3    H151473   0.217   6.352  14.424  0.5627 -0.2092 -0.8404
 9994TIP3    H251474   0.316   6.416  14.329  0.6706  1.0978  0.1314
 9995TIP3   OH251475   6.598   3.877  11.663 -0.2623 -0.0872 -0.0839
 9995TIP3    H151476   6.650   3.939  11.612  0.0240 -0.3419 -0.1077
 9995TIP3    H251477   6.588   3.918  11.749  2.2924 -1.2092  0.8102
 9996TIP3   OH251478   0.886   1.696   4.996  0.2666  0.0105 -0.0873
 9996TIP3    H151479   0.886   1.611   5.040  0.4168 -0.5268 -1.1264
 9996TIP3    H251480   0.840   1.681   4.914  2.4114  0.3466 -1.3962
 9997TIP3   OH251481   6.326   0.030   0.047 -0.0116 -0.0982 -0.5008
 9997TIP3    H151482   6.406  -0.016   0.069 -0.6520 -0.2901  1.5162
 9997TIP3    H251483   6.351   0.123   0.044  0.3564 -0.1904 -0.2182
 9998TIP3   OH251484   3.429   4.602  13.192  0.0585  0.4436 -0.2591
 9998TIP3    H151485   3.481   4.526  13.170  0.6451  0.1262  2.1048
 9998TIP3    H251486   3.469   4.674  13.144  0.1131 -0.5394 -1.7034
 9999TIP3   OH251487   4.779   2.473   3.304 -0.3108 -0.3503  0.2011
 9999TIP3    H151488   4.867   2.509   3.318 -0.1951 -1.1791  1.7214
 9999TIP3    H251489   4.794   2.393   3.253 -0.0813 -0.9955  1.2637
10000TIP3   OH251490   2.389   1.719  13.391  0.0881  0.5457 -0.6112
10000TIP3    H151491   2.442   1.733  13.312 -0.0810 -1.3359 -1.0816
10000TIP3    H251492   2.304   1.687  13.358 -0.6750  1.6516  0.2348
10001TIP3   OH251493   4.490   1.654   3.844 -0.4274 -0.2974  0.6043
10001TIP3    H151494   4.501   1.638   3.751  2.4888 -1.8313  1.1482
10001TIP3    H251495   4.510   1.747   3.856  1.5420 -0.6217 -0.0060
10002TIP3   OH251496   4.282   4.205  13.614 -0.3545 -0.5545  0.0534
10002TIP3    H151497   4.258   4.260  13.689  0.0957 -0.7475  0.3420
10002TIP3    H251498   4.377   4.214  13.608 -0.5387  0.5398 -1.3401
10003TIP3   OH251499   6.044   6.587  12.583  0.2374 -0.3198  0.1124
10003TIP3    H151500   6.017   6.617  12.496  2.3282  1.5689  0.0778
10003TIP3    H251501   6.001   6.502  12.593 -1.9734  0.5250 -1.7722
10004TIP3   OH251502   0.327   6.652  15.043  0.5224  0.6200 -0.4717
10004TIP3    H151503   0.367   6.661  15.129 -0.3691 -1.2475  0.1525
10004TIP3    H251504   0.322   6.558  15.028 -1.7187  0.8664 -1.4249
10005TIP3   OH251505   1.372   0.943   5.827 -0.7603 -0.2846 -0.1229
10005TIP3    H151506   1.374   0.997   5.747  0.5171  0.1158  0.1689
10005TIP3    H251507   1.384   1.006   5.898  0.8824 -0.9764  0.2072
10006TIP3   OH251508   3.952   4.977   0.555  0.0426 -0.7177  0.1744
10006TIP3    H151509   3.952   5.029   0.474  1.4482  0.6006  0.9895
10006TIP3    H251510   3.960   4.887   0.525  1.4692 -0.1820 -1.1411
10007TIP3   OH251511   3.150   6.138  15.734 -0.0268 -0.4579 -0.0427
10007TIP3    H151512   3.098   6.197  15.680 -2.0749 -1.5179  0.7370
10007TIP3    H251513   3.200   6.086  15.670 -0.0024  0.4710 -0.7951
10008TIP3   OH251514   3.363   0.334  12.443  0.3421 -0.1500  0.2055
10008TIP3    H151515   3.386   0.353  12.352  2.5585  1.0017  0.9638
10008TIP3    H251516   3.441   0.290  12.478 -0.8682 -1.4966  1.2932
10009TIP3   OH251517   3.961   2.635  10.559  0.2928  0.7270 -0.3685
10009TIP3    H151518   4.047   2.609  10.525  1.4307  1.0946  2.1162
10009TIP3    H251519   3.960   2.731  10.550 -0.4468  0.6019 -1.6978
10010TIP3   OH251520   3.569   1.914   2.471 -0.0124 -0.1106  0.6319
10010TIP3    H151521   3.617   1.958   2.401  1.0217 -0.1671  1.2963
10010TIP3    H251522   3.486   1.889   2.431 -0.4310  2.0296  0.1175
10011TIP3   OH251523   5.037   6.318  15.467 -0.2280 -0.3023  0.1569
10011TIP3    H151524   5.113   6.265  15.491  1.2016  1.5567 -0.0701
10011TIP3    H251525   4.988   6.328  15.549  0.8113  0.0577  0.7471
10012TIP3   OH251526   6.506   3.463   2.394 -0.3811 -0.0002 -0.0252
10012TIP3    H151527   6.433   3.415   2.354  0.3597 -0.5365 -0.7481
10012TIP3    H251528   6.571   3.395   2.413  0.9773  0.7907 -1.7280
10013TIP3   OH251529   4.226   3.224   4.189  0.8129 -0.4040  0.2968
10013TIP3    H151530   4.314   3.218   4.226  0.5739 -0.6618  0.8346
10013TIP3    H251531   4.192   3.307   4.221  0.6372 -0.5883  0.5964
10014TIP3   OH251532   4.079   0.221  11.779  0.0964 -0.0126  0.2396
10014TIP3    H151533   4.017   0.172  11.832 -0.4629  2.2464  1.7554
10014TIP3    H251534   4.025   0.283  11.730  0.8604 -0.2785 -0.9719
10015TIP3   OH251535   1.378   6.691   4.480 -0.0139  0.3693 -0.1391
10015TIP3    H151536   1.457   6.663   4.434  0.6958  1.3719  0.4524
10015TIP3    H251537   1.318   6.718   4.410 -0.3844 -1.7568 -0.6611
10016TIP3   OH251538   5.117   0.557  17.119 -0.1231  0.0214 -0.1148
10016TIP3    H151539   5.075   0.570  17.034  1.6446 -0.4967 -1.0966
10016TIP3    H251540   5.057   0.499  17.167 -1.5422  1.0027 -0.6820
10017TIP3   OH251541   0.266   2.802  12.911  0.1179  0.3441 -0.6007
10017TIP3    H151542   0.303   2.715  12.898 -1.6432 -0.8614  2.1063
10017TIP3    H251543   0.179   2.798  12.871 -0.9891  0.0025  1.7534
10018TIP3   OH251544   2.791   1.933  11.385 -0.0157  0.3245 -0.0431
10018TIP3    H151545   2.729   1.885  11.331  0.1374 -1.2084  1.1020
10018TIP3    H251546   2.870   1.878  11.385  1.2367  2.0447 -1.1580
10019TIP3   OH251547   0.623   1.490   3.481  0.1480 -0.1111  0.1102
10019TIP3    H151548   0.575   1.526   3.555 -1.7351  0.5726 -1.3990
10019TIP3    H251549   0.665   1.411   3.515 -0.6145  0.2447  1.9006
10020TIP3   OH251550   3.294   5.607   1.223 -0.1660 -0.0461 -0.6441
10020TIP3    H151551   3.301   5.590   1.129 -1.2266  1.1470 -0.9519
10020TIP3    H251552   3.324   5.526   1.265 -1.9840 -1.4780 -2.0371
10021TIP3   OH251553   4.421   2.634  14.865 -0.1444  0.1298  0.0875
10021TIP3    H151554   4.460   2.565  14.918 -0.5702  0.2015  0.4929
10021TIP3    H251555   4.489   2.656  14.801  0.6202  0.5055  1.0216
10022TIP3   OH251556   2.057   1.700   1.792 -0.0103  0.4990  0.2285
10022TIP3    H151557   1.980   1.658   1.829 -0.0218  0.0616 -0.2833
10022TIP3    H251558   2.130   1.674   1.848  0.1507 -1.0406 -0.6651
10023TIP3   OH251559   2.251   1.642   0.084  0.7386  0.4031  0.4344
10023TIP3    H151560   2.156   1.636   0.086  0.6472  1.7257  0.8633
10023TIP3    H251561   2.277   1.587   0.010 -0.2096 -1.5440  1.5270
10024TIP3   OH251562   5.705   2.920  17.131  0.2607 -0.6112 -0.0633
10024TIP3    H151563   5.650   2.963  17.065 -0.5169 -1.3153  0.1227
10024TIP3    H251564   5.682   2.962  17.213  0.8852 -0.0653 -0.1613
10025TIP3   OH251565   5.395   3.218   6.138  0.1927 -0.0372  0.4124
10025TIP3    H151566   5.416   3.139   6.188 -1.6339 -1.5957 -1.2358
10025TIP3    H251567   5.377   3.284   6.205  0.2782 -1.4131  1.8234
10026TIP3   OH251568   2.527   6.178   2.575 -0.4034  0.0240  0.8741
10026TIP3    H151569   2.468   6.178   2.650 -1.1322 -4.1659  0.4642
10026TIP3    H251570   2.582   6.101   2.588  0.0462 -0.2850 -2.4096
10027TIP3   OH251571   5.287   5.092  16.360 -0.5329  0.6926 -0.3210
10027TIP3    H151572   5.275   5.145  16.439 -1.6415 -0.5467  0.3510
10027TIP3    H251573   5.272   5.002  16.389  4.1296 -0.3722 -0.8045
10028TIP3   OH251574   6.180   0.184  16.896 -0.5913  0.5326  0.1677
10028TIP3    H151575   6.178   0.103  16.947 -1.4391  0.5317  0.1349
10028TIP3    H251576   6.097   0.185  16.849 -0.2642  1.0553 -0.4063
10029TIP3   OH251577   2.617   4.138   4.792  0.0485 -0.1831  0.3892
10029TIP3    H151578   2.649   4.049   4.778  1.5461  0.3718  0.2907
10029TIP3    H251579   2.523   4.132   4.774  0.2632 -1.5812 -0.3546
10030TIP3   OH251580   5.270   3.190   3.151  0.2746 -0.2788 -0.0928
10030TIP3    H151581   5.365   3.186   3.164  0.4580  2.2997 -0.3468
10030TIP3    H251582   5.259   3.197   3.056  0.0517  2.8374  0.1076
10031TIP3   OH251583   6.073   0.502  12.809 -0.5978 -0.5000  0.1672
10031TIP3    H151584   5.980   0.478  12.812 -0.6620 -0.2962 -0.1617
10031TIP3    H251585   6.119   0.423  12.838 -0.6823 -1.7616 -3.0044
10032TIP3   OH251586   3.293   2.985   8.689 -0.9527 -0.4879 -0.0051
10032TIP3    H151587   3.315   2.982   8.782  1.1961  1.5224 -0.4120
10032TIP3    H251588   3.230   3.057   8.681 -2.4136 -1.7185  0.1005
10033TIP3   OH251589   6.005   5.613   4.198 -0.0759 -0.1001 -0.0994
10033TIP3    H151590   6.079   5.673   4.186  0.0890 -0.1099  0.8210
10033TIP3    H251591   5.956   5.650   4.272  0.0511 -1.1267  0.5029
10034TIP3   OH251592   6.290   2.174  12.276 -0.0676  0.1470  0.4435
10034TIP3    H151593   6.329   2.204  12.358  1.5079 -0.4378 -0.0823
10034TIP3    H251594   6.311   2.242  12.213 -0.8764  0.3710  0.4088
10035TIP3   OH251595   6.384   3.233  14.184  0.3476  0.1014 -0.2957
10035TIP3    H151596   6.431   3.217  14.102 -0.1253 -0.6266 -0.4345
10035TIP3    H251597   6.339   3.150  14.201 -2.4312  1.3904 -1.1565
10036TIP3   OH251598   4.982   2.322   0.441 -0.1792  0.0727  0.3987
10036TIP3    H151599   4.973   2.230   0.420 -1.8626  0.3010  0.0035
10036TIP3    H251600   4.960   2.328   0.533  3.2423 -0.3575  1.3241
10037TIP3   OH251601   5.089   6.331   4.791 -0.7923 -0.5857  0.6151
10037TIP3    H151602   5.056   6.256   4.741 -0.0548 -0.0475 -0.7046
10037TIP3    H251603   5.182   6.313   4.803 -0.8247 -0.3803  1.2087
10038TIP3   OH251604   1.228   2.194   3.244 -0.4293 -0.2450 -0.5295
10038TIP3    H151605   1.168   2.202   3.317 -0.8632  1.1108 -1.0190
10038TIP3    H251606   1.272   2.110   3.258 -2.1134 -1.0518  0.0600
10039TIP3   OH251607   3.209   5.207   0.000 -0.2269  0.4965 -0.0880
10039TIP3    H151608   3.278   5.273   0.006 -0.1335  0.4592 -0.7688
10039TIP3    H251609   3.253   5.123   0.010 -0.2843  0.5116  0.3065
10040TIP3   OH251610   1.921   6.473  16.528  0.0544 -0.1046 -0.6203
10040TIP3    H151611   1.984   6.452  16.597  0.5198  1.3679 -0.5645
10040TIP3    H251612   1.931   6.568  16.515 -1.5960  0.0113 -1.1622
10041TIP3   OH251613   1.277   1.973   0.651 -0.1595  0.4498  0.2337
10041TIP3    H151614   1.258   1.951   0.560  1.3864  0.6785 -0.1449
10041TIP3    H251615   1.292   1.888   0.693 -2.8563  0.1885  0.7515
10042TIP3   OH251616   0.037   1.822  15.390 -0.2775 -0.0587 -0.1465
10042TIP3    H151617  -0.043   1.771  15.403  0.0346 -0.4037  0.4422
10042TIP3    H251618   0.092   1.799  15.464 -0.7597  2.3484  1.0295
10043TIP3   OH251619   0.710   0.281  15.419  0.5361 -0.1604 -0.5151
10043TIP3    H151620   0.794   0.271  15.463 -0.3114 -0.0545  1.1677
10043TIP3    H251621   0.707   0.209  15.356  0.6647 -1.9100  1.4132
10044TIP3   OH251622   2.374   6.695   5.856 -0.1704 -0.0303 -0.0910
10044TIP3    H151623   2.305   6.721   5.794  0.4496  0.5011 -0.5601
10044TIP3    H251624   2.439   6.764   5.849 -0.5783  0.5750  1.9281
10045TIP3   OH251625   1.882   6.486  14.306  0.7688  0.1629  0.5509
10045TIP3    H151626   1.862   6.548  14.235 -0.0393  0.0631  0.6833
10045TIP3    H251627   1.955   6.434  14.273  1.2744  1.0038  0.3225
10046TIP3   OH251628   0.558   1.627   1.551 -0.1107  0.1082  0.3858
10046TIP3    H151629   0.569   1.567   1.625 -1.1315  0.9255  1.2100
10046TIP3    H251630   0.463   1.638   1.543  0.0608  1.2628 -0.0637
10047TIP3   OH251631   1.378   6.035  14.282  0.1006  0.4968 -0.2829
10047TIP3    H151632   1.365   5.952  14.237 -0.4390 -1.6363  3.5363
10047TIP3    H251633   1.306   6.039  14.346  0.8166  3.3269  0.4194
10048TIP3   OH251634   6.229   1.090   2.738 -0.7414  0.3631 -0.0624
10048TIP3    H151635   6.305   1.042   2.705 -1.3214  1.7346 -3.6207
10048TIP3    H251636   6.163   1.023   2.755  0.3558 -0.5778  0.5867
10049TIP3   OH251637   0.823   5.868  14.770 -0.1408 -0.1942 -0.2469
10049TIP3    H151638   0.747   5.898  14.819 -0.6779  1.8123 -2.2043
10049TIP3    H251639   0.798   5.881  14.678  2.6267  0.6736 -0.9084
10050TIP3   OH251640   3.536   3.085  11.705  0.3569  0.1893  0.4361
10050TIP3    H151641   3.585   3.151  11.753 -0.3961 -0.3990  2.0459
10050TIP3    H251642   3.459   3.132  11.671 -0.7142 -0.0620  2.4537
10051TIP3   OH251643   6.684   5.556   4.292 -0.5919  0.1121 -0.2643
10051TIP3    H151644   6.649   5.645   4.288 -0.5417  0.1234 -0.4744
10051TIP3    H251645   6.744   5.557   4.367 -0.2444  0.3808 -0.5463
10052TIP3   OH251646   2.404   4.329   2.131 -0.1551 -0.1996  0.3284
10052TIP3    H151647   2.334   4.332   2.065  0.9544 -1.4784 -0.9361
10052TIP3    H251648   2.381   4.254   2.186  0.1663 -0.5662 -0.0342
10053TIP3   OH251649   6.290   2.981   6.020 -0.4568  0.2226  0.2166
10053TIP3    H151650   6.235   3.007   6.094 -0.8323 -0.5213  0.2103
10053TIP3    H251651   6.229   2.941   5.958  0.0682 -0.5015  0.1618
10054TIP3   OH251652   4.754   6.544  14.646 -0.3104  0.0604 -0.5645
10054TIP3    H151653   4.698   6.466  14.648  0.0340 -0.2521 -2.6257
10054TIP3    H251654   4.821   6.527  14.713 -0.0336 -1.5669 -1.2358
10055TIP3   OH251655   5.791   0.770   0.381  0.3893 -0.8863 -0.7166
10055TIP3    H151656   5.866   0.793   0.437 -0.2481 -0.9804  0.1915
10055TIP3    H251657   5.830   0.721   0.308  1.1483 -1.4773  0.0720
10056TIP3   OH251658   2.991   5.856  17.135  0.0722  0.1474 -0.8189
10056TIP3    H151659   2.945   5.808  17.066  0.8495  0.4892 -1.5839
10056TIP3    H251660   2.954   5.944  17.131 -1.5994 -0.4438  0.8095
10057TIP3   OH251661   6.602   0.258   3.463 -0.3475 -0.0702 -0.0750
10057TIP3    H151662   6.508   0.241   3.471 -0.6015  1.1819 -0.2798
10057TIP3    H251663   6.644   0.177   3.492 -1.4765 -0.3196  0.8881
10058TIP3   OH251664   1.408   4.505   0.775  0.2342  0.0408  0.3598
10058TIP3    H151665   1.456   4.442   0.829  0.0546 -0.7555 -0.3975
10058TIP3    H251666   1.435   4.591   0.808  2.2671 -0.3860 -0.1060
10059TIP3   OH251667   6.488   2.471   4.931  0.5687  0.3819 -0.5999
10059TIP3    H151668   6.530   2.491   4.847  1.1275 -1.1262 -0.6849
10059TIP3    H251669   6.509   2.380   4.947  0.4624  0.6669  1.2029
10060TIP3   OH251670   1.246   3.883   5.684  0.0122  0.2618 -0.2874
10060TIP3    H151671   1.314   3.933   5.638  0.0287 -0.6155 -1.2397
10060TIP3    H251672   1.272   3.886   5.776  1.6741 -0.5843 -0.7164
10061TIP3   OH251673   5.291   3.066  17.248  0.2835 -0.1036  0.0857
10061TIP3    H151674   5.300   2.970  17.247  0.6877 -0.0624 -0.3825
10061TIP3    H251675   5.205   3.082  17.211  0.3120 -0.2775 -0.0593
10062TIP3   OH251676   5.886   1.911  16.995 -0.6195  0.0712 -0.4164
10062TIP3    H151677   5.950   1.859  16.947 -1.3481 -1.1048 -0.1363
10062TIP3    H251678   5.938   1.975  17.043  0.2089  0.3485 -1.6591
10063TIP3   OH251679   6.276   1.166  13.637  0.5016 -0.3870  0.2339
10063TIP3    H151680   6.318   1.234  13.690  1.4633 -1.1584  0.4749
10063TIP3    H251681   6.334   1.155  13.562 -0.5770  0.3082 -0.7273
10064TIP3   OH251682   0.547   2.896   2.447  0.4224 -0.7049 -0.3519
10064TIP3    H151683   0.516   2.961   2.384 -1.8893  0.6836  2.1147
10064TIP3    H251684   0.634   2.927   2.472 -0.9060  1.8893  1.2826
10065TIP3   OH251685   0.770   0.146   2.509  0.2538  0.0076  1.0194
10065TIP3    H151686   0.804   0.166   2.422  0.7916 -0.2394  1.1714
10065TIP3    H251687   0.722   0.225   2.535 -3.5481 -1.3897 -1.2215
10066TIP3   OH251688   1.620   6.171   2.626  0.3367  0.1120  1.2035
10066TIP3    H151689   1.663   6.245   2.582 -4.8024  1.4267 -2.0675
10066TIP3    H251690   1.582   6.210   2.705 -0.5052  0.5193  0.6087
10067TIP3   OH251691   5.008   0.878   1.631  0.3584 -0.3035 -0.0525
10067TIP3    H151692   4.980   0.793   1.666  0.8511  0.0013  1.1142
10067TIP3    H251693   5.095   0.892   1.670 -1.2792  2.5016  2.8382
10068TIP3   OH251694   3.018   0.374  17.041 -0.4836 -0.2584  0.3408
10068TIP3    H151695   2.970   0.371  17.124 -0.7402 -0.4816  0.1868
10068TIP3    H251696   3.034   0.282  17.020 -0.4677 -0.2046  0.1169
10069TIP3   OH251697   6.792   3.234   3.805 -0.0901  0.5837 -0.4304
10069TIP3    H151698   6.723   3.300   3.799  0.8717  1.6205 -0.3789
10069TIP3    H251699   6.805   3.221   3.899 -0.9253 -0.3719 -0.4477
10070TIP3   OH251700   3.254   6.108  12.828 -0.3250  0.0932  0.1463
10070TIP3    H151701   3.185   6.168  12.855 -1.9893 -1.4050 -0.6846
10070TIP3    H251702   3.272   6.056  12.907 -1.6943 -0.9551 -0.2081
10071TIP3   OH251703   6.230   0.822   5.991  0.2102 -0.3561  0.1461
10071TIP3    H151704   6.195   0.847   6.076 -1.5870  1.9286 -1.2061
10071TIP3    H251705   6.315   0.866   5.986  1.0609 -1.8100  1.3748
10072TIP3   OH251706   2.490   6.512   2.846 -0.7359 -0.5116  0.4284
10072TIP3    H151707   2.498   6.540   2.937 -2.1428  1.0267  0.1101
10072TIP3    H251708   2.517   6.420   2.847 -1.2033 -0.6659  2.4788
10073TIP3   OH251709   5.238   1.396  14.671 -0.4105  0.1439 -0.0341
10073TIP3    H151710   5.165   1.334  14.678  0.3800 -0.9672 -1.3336
10073TIP3    H251711   5.208   1.461  14.608 -0.3780 -0.1713 -0.3772
10074TIP3   OH251712   5.745   3.938   3.173  0.0711  0.3899  0.5472
10074TIP3    H151713   5.792   4.016   3.202 -0.1124  0.4294  0.7506
10074TIP3    H251714   5.708   3.902   3.254 -0.8744  0.7805  0.2935
10075TIP3   OH251715   5.217   3.960  14.776 -0.2431  0.2619 -0.3713
10075TIP3    H151716   5.212   3.928  14.685 -0.6378  0.8569 -0.5640
10075TIP3    H251717   5.193   4.052  14.769 -0.7902  0.1776  0.4167
10076TIP3   OH251718   3.101   2.530  13.818  0.1315 -0.1564  0.1635
10076TIP3    H151719   3.099   2.587  13.895  1.0558 -1.1531  0.9372
10076TIP3    H251720   3.117   2.443  13.853 -0.2533 -0.7476 -1.1017
10077TIP3   OH251721   2.936   4.731  11.511 -0.8788 -0.2445  0.2274
10077TIP3    H151722   2.946   4.652  11.564 -0.1597  0.7578  1.6097
10077TIP3    H251723   2.963   4.802  11.569  0.2956  0.8414 -1.6183
10078TIP3   OH251724   5.593   4.400  13.844 -0.1028  0.0777  0.0883
10078TIP3    H151725   5.660   4.469  13.847 -0.6455  0.5890  0.6659
10078TIP3    H251726   5.578   4.378  13.936  0.0249 -0.7837 -0.0866
10079TIP3   OH251727   5.117   4.668   2.321 -0.0410 -0.5711  0.5235
10079TIP3    H151728   5.147   4.725   2.391 -1.8184  0.4432  0.4812
10079TIP3    H251729   5.056   4.607   2.363 -0.2358 -0.6955  0.0746
10080TIP3   OH251730   2.191   4.081   0.228  0.5205  0.4080 -0.6468
10080TIP3    H151731   2.120   4.137   0.259  1.0773  2.1845 -2.4374
10080TIP3    H251732   2.269   4.136   0.233  1.1470 -0.3058 -2.0666
10081TIP3   OH251733   5.735   4.647   0.270  0.1349  0.2287 -0.1239
10081TIP3    H151734   5.800   4.709   0.236 -0.0488  0.7051  0.3936
10081TIP3    H251735   5.786   4.569   0.292  0.3438  0.1306 -0.9254
10082TIP3   OH251736   4.090   1.918   1.574 -0.0812 -0.3981 -0.0457
10082TIP3    H151737   4.153   1.988   1.593 -0.0961 -0.7197  1.2306
10082TIP3    H251738   4.008   1.949   1.613 -0.4636 -0.4520 -0.7932
10083TIP3   OH251739   4.590   6.191   4.262 -0.0917  0.1106 -0.2309
10083TIP3    H151740   4.575   6.217   4.353  1.8725 -1.7420  0.6665
10083TIP3    H251741   4.673   6.234   4.239 -0.6565  0.6905 -1.2021
10084TIP3   OH251742   3.446   5.064   5.468  0.1757 -0.3626  0.0545
10084TIP3    H151743   3.412   5.151   5.489 -1.6311 -0.5385 -1.9994
10084TIP3    H251744   3.515   5.081   5.404 -0.5518 -0.4720 -0.7629
10085TIP3   OH251745   6.420   5.035   4.399  0.6961 -0.5260 -0.5943
10085TIP3    H151746   6.403   5.117   4.354 -0.0159 -0.8624 -0.9633
10085TIP3    H251747   6.505   5.006   4.366  0.8369 -0.0618 -0.6426
10086TIP3   OH251748   2.253   4.906  16.972  0.5538  0.0326 -0.7503
10086TIP3    H151749   2.339   4.918  16.933  0.7526  0.8614 -0.0654
10086TIP3    H251750   2.263   4.934  17.063 -0.3158 -0.3117 -0.5421
10087TIP3   OH251751   0.762   4.321  14.376 -0.0252 -0.4458 -0.7285
10087TIP3    H151752   0.738   4.336  14.467  1.8328  0.1711 -0.3253
10087TIP3    H251753   0.762   4.225  14.367 -0.0892 -0.5117 -0.0478
10088TIP3   OH251754   3.599   5.849   4.027  0.1716 -0.1573  0.8903
10088TIP3    H151755   3.655   5.863   4.103 -0.4732  1.3277  1.1098
10088TIP3    H251756   3.512   5.880   4.055  0.0996  1.1280 -0.6985
10089TIP3   OH251757   6.727   3.781   0.353  0.3682  0.4101 -0.0309
10089TIP3    H151758   6.652   3.749   0.403  0.3606  1.6352  0.7642
10089TIP3    H251759   6.796   3.717   0.372  0.1840  0.5188  1.0684
10090TIP3   OH251760   2.069   5.256   2.497  0.5068 -0.3787 -0.0242
10090TIP3    H151761   2.088   5.242   2.404 -0.2777 -1.4523 -0.0362
10090TIP3    H251762   2.127   5.195   2.543 -0.0841 -0.8438  0.1160
10091TIP3   OH251763   2.634   5.335  11.502  0.9245 -0.3413 -0.3079
10091TIP3    H151764   2.724   5.350  11.474  0.3441  0.2119 -1.9279
10091TIP3    H251765   2.581   5.379  11.436 -0.5554 -1.2359  0.2624
10092TIP3   OH251766   3.480   5.823   5.407  0.3766 -0.1549  0.1588
10092TIP3    H151767   3.411   5.885   5.385 -1.4360 -1.3984  2.0681
10092TIP3    H251768   3.517   5.796   5.322 -0.7248  1.3597 -0.8202
10093TIP3   OH251769   3.608   0.502   5.663 -0.4357 -0.3282  0.3782
10093TIP3    H151770   3.544   0.573   5.653 -0.0091 -0.1471 -1.2388
10093TIP3    H251771   3.605   0.479   5.756 -1.7641  0.6976  0.5969
10094TIP3   OH251772   4.499   6.430   3.684 -0.2604 -0.0849 -0.3174
10094TIP3    H151773   4.549   6.395   3.757 -1.9481 -1.8109  0.0445
10094TIP3    H251774   4.430   6.482   3.725 -0.0012  0.6260 -0.7633
10095TIP3   OH251775   2.171   2.680   5.936  0.3707 -0.3807  0.3307
10095TIP3    H151776   2.233   2.741   5.896  0.0889  0.2943  0.9071
10095TIP3    H251777   2.218   2.641   6.009  0.8710 -1.5834 -0.6220
10096TIP3   OH251778   1.642   1.000  13.752 -0.0952 -0.0442  0.5810
10096TIP3    H151779   1.600   1.060  13.690  0.2986  1.5959  1.8516
10096TIP3    H251780   1.616   0.913  13.723  1.6035  0.5684 -2.9829
10097TIP3   OH251781   4.468   2.801  15.163 -0.2675  0.7740  0.2804
10097TIP3    H151782   4.545   2.808  15.106  0.5765  2.3947  1.5937
10097TIP3    H251783   4.410   2.741  15.116  2.2009 -1.2978 -0.2572
10098TIP3   OH251784   2.791   1.619   4.899  0.1071 -0.8973  0.6470
10098TIP3    H151785   2.778   1.537   4.947  0.6922 -1.1766  0.3313
10098TIP3    H251786   2.830   1.678   4.964 -0.0010 -0.9725  0.7816
10099TIP3   OH251787   3.335   3.683  10.997  0.3126 -0.2117 -0.2696
10099TIP3    H151788   3.275   3.747  10.959  0.7725  0.4994  0.1824
10099TIP3    H251789   3.334   3.610  10.935 -0.7742 -0.0795 -0.4224
10100TIP3   OH251790   2.925   1.566   5.709  0.3579  0.4976  0.0546
10100TIP3    H151791   2.937   1.566   5.804 -3.6476  0.8950  0.6531
10100TIP3    H251792   2.949   1.655   5.682 -0.4723  1.0402  1.0438
10101TIP3   OH251793   1.691   6.579  13.338 -0.1994  0.3208  0.2201
10101TIP3    H151794   1.679   6.614  13.249 -0.9639 -0.1016  0.1491
10101TIP3    H251795   1.773   6.530  13.334 -0.0784  0.5498 -0.1727
10102TIP3   OH251796   5.325   5.311  16.720  0.0278  0.3906  0.2302
10102TIP3    H151797   5.360   5.396  16.695 -3.2889  1.5032 -0.9198
10102TIP3    H251798   5.285   5.325  16.806 -0.3794 -0.0505  0.1183
10103TIP3   OH251799   5.120   5.650   4.802 -0.3169 -0.4973 -0.5191
10103TIP3    H151800   5.065   5.706   4.748 -0.9270 -0.5164  0.0724
10103TIP3    H251801   5.169   5.597   4.740 -2.1333 -1.5954 -1.0622
10104TIP3   OH251802   0.372   6.455  15.662 -0.2234 -0.1959 -0.0484
10104TIP3    H151803   0.445   6.419  15.612 -1.2579 -1.1273 -0.9225
10104TIP3    H251804   0.383   6.419  15.750  0.4049 -0.2598 -0.1505
10105TIP3   OH251805   3.545   4.296   3.443  0.1226 -0.4839 -0.1989
10105TIP3    H151806   3.491   4.375   3.448  0.6843  0.0967 -2.6070
10105TIP3    H251807   3.593   4.294   3.526 -2.4865 -0.2161  1.3421
10106TIP3   OH251808   4.909   6.116   5.196 -0.0400 -0.0429 -0.2348
10106TIP3    H151809   4.929   6.194   5.143  2.1861 -1.5509 -1.7069
10106TIP3    H251810   4.993   6.092   5.235 -1.3610  0.1327  2.8191
10107TIP3   OH251811   3.153   4.292   4.487  0.5328 -1.0539  0.0615
10107TIP3    H151812   3.171   4.257   4.574  0.0233 -2.3415 -0.3446
10107TIP3    H251813   3.086   4.360   4.502  1.3320 -0.4109  0.8089
10108TIP3   OH251814   0.958   1.049   0.903 -0.2785  0.4671 -0.0832
10108TIP3    H151815   1.012   1.071   0.828 -1.0417  0.8827 -0.5159
10108TIP3    H251816   0.911   0.971   0.877  1.2885 -0.8362  0.8884
10109TIP3   OH251817   2.736   6.034   3.264  0.2610  0.2814 -0.5773
10109TIP3    H151818   2.768   6.111   3.216 -0.5901 -0.3853 -2.2371
10109TIP3    H251819   2.641   6.043   3.263  0.1993 -0.2188  0.2039
10110TIP3   OH251820   2.615   6.293   4.148 -0.1855  0.0992 -0.1980
10110TIP3    H151821   2.650   6.358   4.209  0.2752 -2.0323  1.8691
10110TIP3    H251822   2.693   6.249   4.114 -0.5853 -0.8615  0.1159
10111TIP3   OH251823   1.340   3.546  11.038 -0.7069  0.6169  0.0410
10111TIP3    H151824   1.309   3.496  10.962  0.1986  1.4157 -0.8556
10111TIP3    H251825   1.332   3.484  11.111  0.0838 -0.7422 -0.9972
10112TIP3   OH251826   4.981   0.382   6.588  0.2731 -0.1200 -0.6761
10112TIP3    H151827   4.945   0.470   6.594  0.6364  0.0670 -1.1894
10112TIP3    H251828   5.071   0.395   6.559  0.7938 -0.5702  0.6860
10113TIP3   OH251829   2.996   6.452   4.875 -0.3093  0.0647 -0.7230
10113TIP3    H151830   2.961   6.363   4.881 -1.0023  0.2780 -1.5159
10113TIP3    H251831   3.039   6.466   4.959 -1.4715 -0.4817 -0.0195
10114TIP3   OH251832   3.940   5.395   3.957 -0.3339  0.2297 -0.4442
10114TIP3    H151833   3.891   5.476   3.942 -0.6947 -0.2995 -2.3188
10114TIP3    H251834   4.019   5.423   4.003 -1.7703  1.2594  1.4979
10115TIP3   OH251835   4.366   5.040  11.128  0.2431 -0.8389  0.0131
10115TIP3    H151836   4.326   5.075  11.048 -0.0655 -0.7744  0.1920
10115TIP3    H251837   4.415   4.964  11.099 -1.3390 -1.8955  0.0133
10116TIP3   OH251838   4.255   1.387  10.659  0.2713  0.2684  0.2831
10116TIP3    H151839   4.252   1.292  10.657  2.0444  0.2002 -3.0732
10116TIP3    H251840   4.347   1.408  10.673 -0.0662  1.4884  0.7573
10117TIP3   OH251841   5.507   0.089  17.279  0.0921  0.2909  0.2678
10117TIP3    H151842   5.543   0.164  17.325  0.3413  1.0109 -1.0658
10117TIP3    H251843   5.413   0.109  17.272  0.3235  1.0132 -1.0250
10118TIP3   OH251844   4.734   6.474   0.107  0.2523  0.2490  0.3458
10118TIP3    H151845   4.739   6.495   0.201  1.1242  1.6520 -0.0087
10118TIP3    H251846   4.708   6.382   0.105 -0.8072  0.4827  1.9607
10119TIP3   OH251847   3.668   6.462   3.802 -0.1554  0.7178  0.3425
10119TIP3    H151848   3.611   6.460   3.725  1.1523 -0.2208 -0.6195
10119TIP3    H251849   3.721   6.541   3.791  1.8561 -0.7979 -1.0830
10120TIP3   OH251850   2.031   4.118  15.057 -0.2192 -0.0291  0.2030
10120TIP3    H151851   2.068   4.069  15.130  1.2357 -0.1059 -0.5769
10120TIP3    H251852   2.007   4.203  15.094  1.2467  0.2177  0.5983
10121TIP3   OH251853   6.589   2.459   1.840 -0.1423  0.4566 -0.0325
10121TIP3    H151854   6.602   2.541   1.888 -1.8676  0.4525  0.4818
10121TIP3    H251855   6.570   2.487   1.750 -0.1555  0.5922  0.0129
10122TIP3   OH251856   6.193   5.251   5.183  0.0629  0.2528  0.4574
10122TIP3    H151857   6.250   5.178   5.160  0.7354  0.3265  1.7933
10122TIP3    H251858   6.248   5.328   5.171  0.1595  0.3464  1.4708
10123TIP3   OH251859   6.353   6.737   5.934  0.2306  0.0117 -0.4068
10123TIP3    H151860   6.413   6.670   5.902  0.9030  0.1876  0.4780
10123TIP3    H251861   6.364   6.736   6.029 -1.5418 -0.2964 -0.1885
10124TIP3   OH251862   1.746   3.409   0.091  0.0731  0.7667  0.6858
10124TIP3    H151863   1.715   3.394   0.180 -1.0314  0.6247  0.2830
10124TIP3    H251864   1.667   3.405   0.037  1.0188 -1.7357 -0.6229
10125TIP3   OH251865   5.918   3.592   1.511  0.8442 -0.1395 -0.0169
10125TIP3    H151866   5.913   3.497   1.507  1.2683 -0.2179  0.9470
10125TIP3    H251867   6.000   3.614   1.466  0.2655 -0.1541 -1.0783
10126TIP3   OH251868   4.028   4.890   0.009 -0.8796  0.5290  0.1531
10126TIP3    H151869   4.098   4.896  -0.056 -0.3858  0.9197  0.7171
10126TIP3    H251870   3.950   4.868  -0.042 -0.1505 -0.9698 -0.3653
10127TIP3   OH251871   4.498   6.170  11.159  0.3204 -0.2203 -0.4823
10127TIP3    H151872   4.446   6.142  11.233 -1.3935  0.4976 -1.3964
10127TIP3    H251873   4.562   6.232  11.196 -3.3959  3.6570 -0.2086
10128TIP3   OH251874   1.800   4.782   0.583 -0.1247  0.1004 -0.0414
10128TIP3    H151875   1.843   4.856   0.625  2.0093 -0.2836 -1.4942
10128TIP3    H251876   1.772   4.726   0.656  0.7853  0.9400  0.9639
10129TIP3   OH251877   3.532   3.662   5.880 -0.7309  0.5989 -0.1758
10129TIP3    H151878   3.480   3.587   5.909 -1.7312  0.6640 -1.7550
10129TIP3    H251879   3.538   3.718   5.956 -1.2536 -0.3785  0.5956
10130TIP3   OH251880   2.178   1.554  10.565 -0.4868 -0.0373 -0.2138
10130TIP3    H151881   2.253   1.525  10.514 -0.7258 -0.6841 -0.1975
10130TIP3    H251882   2.193   1.648  10.577  0.4061 -0.1972 -0.0473
10131TIP3   OH251883   4.011   5.675   3.834 -0.5611 -0.3644  0.1397
10131TIP3    H151884   3.923   5.647   3.809 -0.6266  0.3411 -0.4194
10131TIP3    H251885   4.017   5.766   3.806 -0.4814  0.3336  2.3135
10132TIP3   OH251886   2.573   4.512  14.649 -0.6591  0.3772 -0.2330
10132TIP3    H151887   2.526   4.510  14.566 -0.9209  1.6889 -0.1255
10132TIP3    H251888   2.648   4.569  14.633 -0.8943  0.9057  0.5244
10133TIP3   OH251889   6.206   2.756   3.439  0.3239  0.4580 -0.2589
10133TIP3    H151890   6.213   2.673   3.486  1.4975  1.8162  2.0509
10133TIP3    H251891   6.120   2.790   3.462 -0.4858 -0.4891 -1.8571
10134TIP3   OH251892   2.678   0.274   6.055  0.0098 -0.3088 -0.3662
10134TIP3    H151893   2.657   0.364   6.079 -0.2818 -0.9228  1.7820
10134TIP3    H251894   2.714   0.236   6.135  0.4493 -2.0097 -1.3514
10135TIP3   OH251895   4.240   5.921  11.701  0.5502 -0.7408 -0.6937
10135TIP3    H151896   4.197   6.006  11.693 -2.1416 -1.9530 -0.0643
10135TIP3    H251897   4.231   5.898  11.794 -0.4114 -2.4726 -1.1718
10136TIP3   OH251898   1.585   3.560   0.340 -0.2063  0.1762  0.0195
10136TIP3    H151899   1.548   3.604   0.417 -0.4092 -0.4321  0.2751
10136TIP3    H251900   1.587   3.467   0.365  1.0735  0.1578 -0.1652
10137TIP3   OH251901   5.455   4.383  12.334 -0.4722  0.1057  0.5284
10137TIP3    H151902   5.531   4.401  12.389  0.0933 -1.6218  0.3472
10137TIP3    H251903   5.408   4.467  12.330  0.4859  0.7451  2.0563
10138TIP3   OH251904   5.439   6.693  15.960  0.1247  0.1027  0.5093
10138TIP3    H151905   5.429   6.604  15.993 -0.1165  1.0716  3.1399
10138TIP3    H251906   5.353   6.733  15.974  0.1565  0.6997 -0.8871
10139TIP3   OH251907   3.724   1.535   3.008  0.7263 -0.3595  0.1892
10139TIP3    H151908   3.630   1.526   3.022  0.5334  1.0390 -0.1470
10139TIP3    H251909   3.745   1.468   2.943  0.0066 -0.8380  0.4519
10140TIP3   OH251910   2.242   4.795  12.033  0.2455  0.1220 -0.9531
10140TIP3    H151911   2.327   4.750  12.035 -0.4560 -1.1870  1.6727
10140TIP3    H251912   2.242   4.850  12.111 -1.0745  0.6298 -1.2938
10141TIP3   OH251913   5.413   6.518   0.379  0.6599  0.3151  0.2062
10141TIP3    H151914   5.384   6.555   0.296 -0.8707 -0.4158  0.3973
10141TIP3    H251915   5.390   6.584   0.445  1.6576  0.7891  0.0986
10142TIP3   OH251916   0.712   5.400  13.178 -0.9742  0.2439 -0.3301
10142TIP3    H151917   0.761   5.473  13.141  3.6081 -2.1627  0.5678
10142TIP3    H251918   0.731   5.403  13.272 -1.4834 -1.5115 -0.1449
10143TIP3   OH251919   5.861   5.352   3.168  0.6001  0.2409 -0.1466
10143TIP3    H151920   5.811   5.422   3.211  0.7151  0.2440 -0.0169
10143TIP3    H251921   5.950   5.362   3.202  0.8842  0.7669 -1.0172
10144TIP3   OH251922   1.386   2.712   5.038 -0.4597 -0.1569  0.1254
10144TIP3    H151923   1.411   2.645   5.102  2.0183  0.8047  0.1987
10144TIP3    H251924   1.393   2.668   4.953 -1.2654 -0.6951  0.3296
10145TIP3   OH251925   5.671   0.091  16.440  0.1571  0.2868 -0.1359
10145TIP3    H151926   5.733   0.109  16.511  1.2753  1.1213 -1.2877
10145TIP3    H251927   5.647  -0.000  16.452  0.4205  0.3867  1.2507
10146TIP3   OH251928   2.548   2.142  14.631 -0.0098  0.1060 -0.0490
10146TIP3    H151929   2.535   2.222  14.579  1.1773 -0.3300 -1.0344
10146TIP3    H251930   2.632   2.108  14.601  0.4422 -0.4412  1.7929
10147TIP3   OH251931   6.562   5.493  15.021  0.0784  0.5246 -0.1264
10147TIP3    H151932   6.574   5.442  14.941  0.7418  1.2987 -0.5336
10147TIP3    H251933   6.650   5.500  15.058 -0.3906 -0.8269  1.3073
10148TIP3   OH251934   1.784   1.983  16.881  0.0563 -0.5591 -0.2018
10148TIP3    H151935   1.841   2.033  16.939  0.7200 -1.8178  0.2466
10148TIP3    H251936   1.841   1.917  16.843 -0.8092 -0.9603 -0.8055
10149TIP3   OH251937   2.619   3.281   3.525  0.3109  0.3463  0.1657
10149TIP3    H151938   2.697   3.326   3.493  0.2634  0.0459 -0.3813
10149TIP3    H251939   2.603   3.212   3.461  0.0081 -0.0423  0.6566
10150TIP3   OH251940   4.464   3.663  14.091  0.4850  0.7757  0.3571
10150TIP3    H151941   4.517   3.729  14.136 -0.9169  2.1524  0.0043
10150TIP3    H251942   4.476   3.682  13.998 -0.6524  1.1023  0.2780
10151TIP3   OH251943   3.886   5.095  12.108  0.5422 -0.5147  0.3028
10151TIP3    H151944   3.924   5.164  12.053  1.4400 -0.7946  0.5650
10151TIP3    H251945   3.929   5.105  12.193 -0.5745 -0.3225  0.8446
10152TIP3   OH251946   6.660   3.727  13.891 -0.0959 -0.4736  0.3726
10152TIP3    H151947   6.632   3.636  13.882 -1.1274 -0.2388  1.0700
10152TIP3    H251948   6.640   3.749  13.982 -3.1143  1.5288 -0.7080
10153TIP3   OH251949   2.241   1.018   2.083  0.1916  0.2203 -0.2698
10153TIP3    H151950   2.169   1.043   2.142 -0.3850  1.1198 -1.3400
10153TIP3    H251951   2.305   1.089   2.093  1.5082 -1.1853  1.6049
10154TIP3   OH251952   4.013   3.995  12.949  0.2336  0.3933 -0.4068
10154TIP3    H151953   3.943   4.000  12.884  1.4233  1.5294 -1.6206
10154TIP3    H251954   4.017   4.082  12.987  1.6835  0.6322 -1.0930
10155TIP3   OH251955   6.569   4.998  15.394  0.0274  0.0496  0.4579
10155TIP3    H151956   6.552   4.987  15.488  0.8419 -1.0267  0.4837
10155TIP3    H251957   6.618   4.920  15.369 -1.0126 -0.1376 -1.0828
10156TIP3   OH251958   1.739   4.345   4.791 -0.6668  0.6569 -0.2241
10156TIP3    H151959   1.818   4.318   4.744 -0.2933  0.3195  0.5864
10156TIP3    H251960   1.745   4.441   4.793  0.1559  0.6028  0.5505
10157TIP3   OH251961   3.925   4.288  13.940 -0.0112 -0.0495 -0.3521
10157TIP3    H151962   3.865   4.287  13.866 -1.1722  1.7019  0.5261
10157TIP3    H251963   3.968   4.374  13.935 -0.0810  0.0710  0.9883
10158TIP3   OH251964   0.455   2.316   4.964 -0.0679  0.3470 -0.1428
10158TIP3    H151965   0.483   2.250   4.902 -1.7248  0.6599 -1.2460
10158TIP3    H251966   0.492   2.287   5.048  0.9466 -0.8458 -0.9817
10159TIP3   OH251967   4.250   2.603   5.323 -0.1964 -0.7803 -0.4870
10159TIP3    H151968   4.257   2.642   5.410  0.9300 -1.6264 -0.1875
10159TIP3    H251969   4.227   2.676   5.265  2.1354  0.4063  0.0230
10160TIP3   OH251970   3.594   2.448   5.014  0.3323  0.5452  0.0402
10160TIP3    H151971   3.544   2.530   5.010 -1.9849 -0.8076  0.5699
10160TIP3    H251972   3.613   2.436   5.107  0.8216  0.5600 -0.0571
10161TIP3   OH251973   4.232   3.758   4.596 -0.0430 -0.2710 -0.2061
10161TIP3    H151974   4.313   3.769   4.646 -0.7911  2.3264  0.5128
10161TIP3    H251975   4.261   3.739   4.507  1.3233 -0.9881  0.3710
10162TIP3   OH251976   0.629   2.287  13.631 -0.6262 -0.3790 -0.2904
10162TIP3    H151977   0.706   2.233  13.644 -0.7296 -0.9314 -1.7783
10162TIP3    H251978   0.574   2.270  13.707  1.0326  0.6150  1.1641
10163TIP3   OH251979   4.487   1.222  14.211  0.3062 -0.1862  0.2250
10163TIP3    H151980   4.530   1.307  14.222 -1.4017  0.7917 -0.4090
10163TIP3    H251981   4.394   1.244  14.203 -0.1454 -2.1270  0.0845
10164TIP3   OH251982   2.257   3.400  13.476 -0.2327 -0.7182  0.3246
10164TIP3    H151983   2.172   3.439  13.495 -0.1269 -0.1683 -0.2948
10164TIP3    H251984   2.237   3.325  13.421 -0.0922  1.6603 -3.1560
10165TIP3   OH251985   0.839   2.747   1.879 -0.3226 -0.1333  0.0194
10165TIP3    H151986   0.790   2.756   1.961 -0.8543  2.4012 -0.5284
10165TIP3    H251987   0.793   2.678   1.831 -1.6532  0.2622  0.6957
10166TIP3   OH251988   2.597   4.543   1.652 -0.4127  0.1998 -0.4377
10166TIP3    H151989   2.633   4.468   1.604  0.5644 -0.7978  1.7973
10166TIP3    H251990   2.502   4.532   1.645 -0.2844 -1.4705  0.1365
10167TIP3   OH251991   5.566   3.444   2.137  0.1305 -0.5173 -0.4823
10167TIP3    H151992   5.625   3.488   2.199 -1.2579  0.9109 -0.1618
10167TIP3    H251993   5.481   3.483   2.153 -0.5042 -1.0803 -2.4061
10168TIP3   OH251994   4.223   0.968   1.604  0.5166 -0.6111  0.0743
10168TIP3    H151995   4.134   1.002   1.597  1.3611  1.4907 -0.8016
10168TIP3    H251996   4.242   0.930   1.519  1.2638  1.0152 -0.5010
10169TIP3   OH251997   1.214   3.110  16.288  0.5349  0.3397 -0.3775
10169TIP3    H151998   1.202   3.076  16.200  0.1882 -0.6252  0.0369
10169TIP3    H251999   1.143   3.071  16.339  1.1228  0.3609  0.4699
10170TIP3   OH252000   4.849   1.629  12.805 -0.5254 -0.7715 -0.5434
10170TIP3    H152001   4.779   1.568  12.779 -1.0227 -0.9747  1.2379
10170TIP3    H252002   4.820   1.714  12.774 -0.0513 -1.3364 -2.6307
10171TIP3   OH252003   2.352   4.892   3.474 -0.5034 -1.1236 -0.2874
10171TIP3    H152004   2.389   4.855   3.554 -0.7418  3.5820  2.1248
10171TIP3    H252005   2.259   4.868   3.477 -1.1181  1.3583  2.3656
10172TIP3   OH252006   1.629   6.530   4.330  0.3433  0.0041 -0.8292
10172TIP3    H152007   1.711   6.577   4.339  0.9851 -1.1132 -0.7763
10172TIP3    H252008   1.616   6.487   4.415  0.1190 -0.4850 -1.1080
10173TIP3   OH252009   5.858   3.328  11.565 -0.3074  0.4149 -0.1791
10173TIP3    H152010   5.883   3.343  11.656 -0.4519  1.2094 -0.2640
10173TIP3    H252011   5.894   3.403  11.518  2.0611 -1.2939 -1.2104
10174TIP3   OH252012   0.856   3.571   4.986 -0.3987 -0.2729 -0.4268
10174TIP3    H152013   0.951   3.583   4.990 -0.1266 -2.5748  1.2956
10174TIP3    H252014   0.839   3.537   4.899  0.8408 -3.2552  0.4419
10175TIP3   OH252015   1.862   3.713  13.021 -0.6310  0.4421 -0.0332
10175TIP3    H152016   1.813   3.713  13.103 -1.1223  0.8653 -0.3196
10175TIP3    H252017   1.926   3.643  13.031 -1.3652 -0.1925  0.3149
10176TIP3   OH252018   5.241   3.963   2.803 -0.3313 -0.3091 -0.0048
10176TIP3    H152019   5.168   3.966   2.742  0.2697 -0.2865 -0.7235
10176TIP3    H252020   5.302   4.029   2.770  0.2707 -0.7277  0.2687
10177TIP3   OH252021   4.377   0.112   6.686  0.3135 -0.0635 -0.2937
10177TIP3    H152022   4.310   0.090   6.751 -1.2381  2.1576 -1.0758
10177TIP3    H252023   4.329   0.122   6.604  1.9188 -0.4585 -1.3016
10178TIP3   OH252024   6.407   6.537   4.554  0.7433 -0.0387  0.2860
10178TIP3    H152025   6.316   6.557   4.578  0.2902 -0.1106 -1.3035
10178TIP3    H252026   6.420   6.447   4.584  0.0672 -0.2596 -0.0617
10179TIP3   OH252027   1.804   4.374   4.221  0.3010 -0.1567 -0.4489
10179TIP3    H152028   1.815   4.463   4.254 -0.2378 -0.6293  1.0025
10179TIP3    H252029   1.772   4.323   4.296  1.3007 -1.7356 -1.0661
10180TIP3   OH252030   1.512   4.814  13.646  1.0324 -0.2304  0.8212
10180TIP3    H152031   1.427   4.853  13.666 -0.1718 -3.2050  1.8086
10180TIP3    H252032   1.574   4.866  13.696 -0.4107  0.8701  1.5291
10181TIP3   OH252033   3.730   1.899  14.515 -0.2949 -0.4377 -0.1316
10181TIP3    H152034   3.772   1.845  14.582  0.7041  0.2635 -0.1670
10181TIP3    H252035   3.661   1.946  14.561 -0.9401 -1.4705 -0.0302
10182TIP3   OH252036   3.042   0.289  16.014  0.1504 -0.1437  0.5574
10182TIP3    H152037   3.079   0.342  15.943 -0.1694 -1.4688 -0.6011
10182TIP3    H252038   3.072   0.333  16.094  1.8301  0.4503 -0.3739
10183TIP3   OH252039   3.284   0.405  15.643  0.1067 -0.1951 -0.2003
10183TIP3    H152040   3.240   0.359  15.570  1.0885 -1.4604  0.0012
10183TIP3    H252041   3.217   0.410  15.711 -0.4381 -0.0926 -0.7337
10184TIP3   OH252042   1.669   6.058  12.478 -0.6470  0.5016  0.0250
10184TIP3    H152043   1.574   6.058  12.478 -0.6530  0.6963  1.7542
10184TIP3    H252044   1.693   5.969  12.502 -0.3673  0.0247 -1.9256
10185TIP3   OH252045   4.344   2.640  16.369 -0.3301 -0.2962  0.1994
10185TIP3    H152046   4.312   2.595  16.448 -0.4567  0.7365  0.7418
10185TIP3    H252047   4.414   2.697  16.401  0.2636 -0.5626 -0.5903
10186TIP3   OH252048   2.713   5.438  10.574  0.0642  0.3285  0.4508
10186TIP3    H152049   2.668   5.516  10.543 -0.6729  0.0493  0.7895
10186TIP3    H252050   2.798   5.469  10.605 -0.9072  1.2707  2.2441
10187TIP3   OH252051   0.808   6.595   4.196 -0.0624 -0.1587  0.1979
10187TIP3    H152052   0.891   6.615   4.239 -0.0477  0.3254 -0.0399
10187TIP3    H252053   0.745   6.583   4.268  0.5155 -1.9255  0.4060
10188TIP3   OH252054   3.353   3.818  15.582 -0.2360 -0.0843  0.0014
10188TIP3    H152055   3.380   3.751  15.519  0.6801  0.5630 -0.3181
10188TIP3    H252056   3.309   3.885  15.528  1.5953  1.0411 -0.1613
10189TIP3   OH252057   6.620   2.601   5.127  0.4440 -0.4263  0.2623
10189TIP3    H152058   6.548   2.583   5.067  1.1563  1.2663 -1.1570
10189TIP3    H252059   6.610   2.694   5.150 -0.1928 -1.1713  3.3280
10190TIP3   OH252060   5.885   0.824   1.443 -0.4297  0.2365 -0.3140
10190TIP3    H152061   5.844   0.852   1.361  1.8922 -0.0622 -1.6181
10190TIP3    H252062   5.956   0.887   1.457  1.4635 -1.8164 -0.4482
10191TIP3   OH252063   6.403   0.220   1.959  0.3637 -0.6068 -0.2794
10191TIP3    H152064   6.443   0.142   1.996  1.2724 -0.3477 -0.6995
10191TIP3    H252065   6.319   0.190   1.923  0.8158 -1.4284 -0.6432
10192TIP3   OH252066   0.632   5.193   2.353 -0.0544  0.4595  0.7557
10192TIP3    H152067   0.719   5.189   2.312 -0.0161  0.4205  0.8419
10192TIP3    H252068   0.650   5.207   2.446 -0.1810  3.5936  0.3620
10193TIP3   OH252069   0.494   2.354   2.992 -0.9411  0.3062  0.1059
10193TIP3    H152070   0.539   2.437   3.004 -0.7980  0.0015  1.8352
10193TIP3    H252071   0.522   2.323   2.906  0.3803  1.1948  0.2052
10194TIP3   OH252072   1.486   5.865   0.537 -0.1229 -0.7640 -0.1947
10194TIP3    H152073   1.446   5.780   0.518 -0.9708 -0.8554  1.8368
10194TIP3    H252074   1.525   5.854   0.624 -0.4505  1.0051  0.1860
10195TIP3   OH252075   3.056   1.028  10.742  0.1154 -0.2842 -0.0477
10195TIP3    H152076   3.024   1.060  10.826 -1.7277 -0.1179 -0.7878
10195TIP3    H252077   3.117   1.096  10.712  0.0599  0.1041  0.7221
10196TIP3   OH252078   3.462   6.409   1.757 -0.4042 -0.3847  0.1787
10196TIP3    H152079   3.471   6.379   1.847 -1.2549 -0.6042  0.1965
10196TIP3    H252080   3.492   6.500   1.759  1.8520 -1.1023  0.1935
10197TIP3   OH252081   2.962   3.989   3.078  0.5320  0.2155  0.3023
10197TIP3    H152082   2.961   3.995   2.982 -0.3114 -0.1740  0.2760
10197TIP3    H252083   2.903   4.058   3.107 -0.3637 -0.6076  0.4729
10198TIP3   OH252084   0.816   1.841  12.677  0.1940 -0.1931 -0.5424
10198TIP3    H152085   0.852   1.787  12.607  0.3098  2.7477 -2.8100
10198TIP3    H252086   0.890   1.857  12.735  0.4830 -1.2332 -0.6076
10199TIP3   OH252087   0.599   4.970  15.676 -0.6188  0.1192  0.6731
10199TIP3    H152088   0.568   4.946  15.589  1.6132  2.8830 -0.9703
10199TIP3    H252089   0.649   4.895  15.706  2.2070  0.7153 -2.2965
10200TIP3   OH252090   6.697   0.345   3.186 -0.2053  0.2358 -0.3234
10200TIP3    H152091   6.741   0.317   3.105 -1.2272 -1.0708 -0.4434
10200TIP3    H252092   6.699   0.268   3.242 -0.7223  0.7298  0.3775
10201TIP3   OH252093   2.196   0.808   4.667 -0.3182  0.1132  0.0307
10201TIP3    H152094   2.230   0.813   4.756  2.3189  1.3518 -0.9945
10201TIP3    H252095   2.143   0.888   4.658 -1.0217 -0.2737  0.6227
10202TIP3   OH252096   2.514   2.414   0.042 -0.2818  0.0733  0.4589
10202TIP3    H152097   2.482   2.400  -0.048  1.1784 -1.1835  0.1109
10202TIP3    H252098   2.514   2.326   0.081 -0.8527  0.6049  1.6805
10203TIP3   OH252099   0.731   6.511  14.243  0.4409  0.5405 -0.0436
10203TIP3    H152100   0.673   6.562  14.299 -0.9972 -0.2105 -0.8163
10203TIP3    H252101   0.749   6.568  14.169 -0.3243  0.3257 -0.4011
10204TIP3   OH252102   6.012   1.974   5.232  0.2309  0.1353  0.4638
10204TIP3    H152103   5.983   2.064   5.243 -1.0361  0.4202 -4.0236
10204TIP3    H252104   5.946   1.935   5.173  2.8043 -2.5396 -0.7604
10205TIP3   OH252105   3.661   6.102  11.617 -0.4125 -0.1552 -0.0753
10205TIP3    H152106   3.573   6.136  11.603 -0.9232 -0.4657  2.1641
10205TIP3    H252107   3.710   6.130  11.540 -1.6590  2.7276  0.1271
10206TIP3   OH252108   3.994   3.037   4.871 -0.3249  0.6726  0.2722
10206TIP3    H152109   4.001   2.957   4.923 -0.7763  0.4655  0.0115
10206TIP3    H252110   3.950   3.010   4.790  1.7986  0.6430 -0.9418
10207TIP3   OH252111   4.012   0.664   4.567  0.1018 -0.3873  0.3123
10207TIP3    H152112   3.933   0.609   4.571 -1.1615  1.3588  0.0177
10207TIP3    H252113   3.980   0.751   4.542  2.2166  0.1884 -0.5365
10208TIP3   OH252114   1.976   4.069  14.011  0.0292 -0.0491 -0.4802
10208TIP3    H152115   1.961   4.059  13.916 -0.8143  0.6407 -0.4208
10208TIP3    H252116   2.014   4.156  14.020  0.6451 -0.3428 -0.2383
10209TIP3   OH252117   2.893   6.203   2.136  0.3519  0.0952 -0.4721
10209TIP3    H152118   2.951   6.279   2.137  1.1485 -0.4836  1.0090
10209TIP3    H252119   2.846   6.208   2.219 -0.8575 -0.0931 -1.1406
10210TIP3   OH252120   1.365   1.096  16.977  0.0015  0.0945 -0.6963
10210TIP3    H152121   1.273   1.118  16.962  0.1421  0.5502 -0.9007
10210TIP3    H252122   1.410   1.132  16.901  0.2233 -1.0052 -1.0902
10211TIP3   OH252123   5.914   2.854   3.526  0.2964  0.3433  0.0668
10211TIP3    H152124   5.848   2.893   3.469 -1.6742  1.2446  2.8572
10211TIP3    H252125   5.900   2.760   3.520  0.4625  0.4039 -1.3239
10212TIP3   OH252126   6.426   4.910  12.508 -0.2134 -0.0138 -0.0076
10212TIP3    H152127   6.355   4.877  12.563 -0.4255  1.1101  0.4207
10212TIP3    H252128   6.504   4.903  12.563 -0.1557 -0.3814 -0.1389
10213TIP3   OH252129   4.628   1.428   5.832  0.0785  0.3757  0.0093
10213TIP3    H152130   4.568   1.486   5.879 -1.7100 -2.1464  0.9738
10213TIP3    H252131   4.696   1.407   5.896 -1.2083 -1.3568  0.8730
10214TIP3   OH252132   2.207   4.144  12.376  0.6333  0.2556 -0.1090
10214TIP3    H152133   2.130   4.115  12.327  1.4362 -1.9750 -0.1223
10214TIP3    H252134   2.210   4.085  12.452  1.6932  1.0699  0.4985
10215TIP3   OH252135   3.519   5.777   5.671  0.0007 -0.0104 -0.3774
10215TIP3    H152136   3.438   5.737   5.702 -0.3930  0.0308 -1.3388
10215TIP3    H252137   3.505   5.790   5.577  0.7545  0.8761 -0.3734
10216TIP3   OH252138   2.293   1.242  12.942 -0.5067 -0.4216  0.2226
10216TIP3    H152139   2.287   1.215  13.034 -2.1693 -0.9776 -0.0506
10216TIP3    H252140   2.207   1.277  12.921 -0.0497 -0.0446 -1.0641
10217TIP3   OH252141   0.731   0.189   6.151  0.9886  0.3661 -0.6333
10217TIP3    H152142   0.794   0.164   6.218  0.7194  1.5559  0.0928
10217TIP3    H252143   0.666   0.241   6.198 -0.3286 -0.5223 -1.4444
10218TIP3   OH252144   0.830   1.792   1.747 -0.2561  0.2478 -0.0674
10218TIP3    H152145   0.807   1.885   1.745  1.3066  0.6016 -2.5840
10218TIP3    H252146   0.746   1.746   1.740 -0.9364  1.4501  0.1587
10219TIP3   OH252147   1.149   4.040  13.710 -0.3404  0.4933 -0.5485
10219TIP3    H152148   1.077   4.038  13.773  0.3535  2.4372  0.3566
10219TIP3    H252149   1.164   3.948  13.687 -0.5227 -0.2658  2.2236
10220TIP3   OH252150   1.109   0.722   0.682  0.4050 -0.3890  0.0799
10220TIP3    H152151   1.127   0.663   0.608  0.7280  0.0589 -0.2061
10220TIP3    H252152   1.076   0.802   0.641  0.2699 -0.2570  0.4459
10221TIP3   OH252153   0.379   0.880  17.196 -0.5064 -0.2073  0.2284
10221TIP3    H152154   0.383   0.961  17.146  0.8916 -0.2936  0.1822
10221TIP3    H252155   0.417   0.903  17.281  0.1432 -0.8813  0.1229
10222TIP3   OH252156   2.871   3.216  12.313 -0.3403  0.0774 -0.2541
10222TIP3    H152157   2.810   3.146  12.335  1.3133 -1.1274  0.5807
10222TIP3    H252158   2.893   3.256  12.397  0.7855 -0.1401 -0.4456
10223TIP3   OH252159   1.801   4.999   5.672 -0.8010 -0.3992  0.5963
10223TIP3    H152160   1.839   5.020   5.587 -1.3749 -1.1651  0.1463
10223TIP3    H252161   1.770   5.083   5.706 -1.1534 -0.1975 -0.2320
10224TIP3   OH252162   1.626   0.196   4.048 -0.2216  0.0833 -0.1065
10224TIP3    H152163   1.688   0.230   4.112  0.0444  0.1385 -0.3893
10224TIP3    H252164   1.660   0.109   4.027 -0.2558  0.1031 -0.2432
10225TIP3   OH252165   6.024   6.447   0.029  0.1370  0.1342 -0.3837
10225TIP3    H152166   6.111   6.486   0.021  0.7216 -0.7704  1.4795
10225TIP3    H252167   6.019   6.384  -0.043  1.8284 -1.3337  0.7713
10226TIP3   OH252168   0.609   0.495   3.222  0.0375  0.0622 -0.4724
10226TIP3    H152169   0.572   0.520   3.137  1.4754 -0.3288 -1.2430
10226TIP3    H252170   0.699   0.527   3.218  0.0384  0.2551  1.0187
10227TIP3   OH252171   5.217   3.010   2.860  0.4340  0.0499 -0.2435
10227TIP3    H152172   5.231   2.931   2.807  2.4831 -0.4317  0.9349
10227TIP3    H252173   5.191   2.976   2.946 -0.7431  0.7394 -0.3249
10228TIP3   OH252174   3.125   0.428  16.247  0.0214 -0.4680 -0.5257
10228TIP3    H152175   3.111   0.496  16.313 -1.9848 -0.4772 -0.9148
10228TIP3    H252176   3.188   0.468  16.186  0.9501 -0.0059  0.7036
10229TIP3   OH252177   6.076   5.630  16.088 -0.5796  0.4530 -0.3509
10229TIP3    H152178   6.084   5.710  16.141 -0.5757  0.1705  0.0841
10229TIP3    H252179   6.111   5.653  16.003 -0.1930  0.7997 -0.0991
10230TIP3   OH252180   1.144   2.212   4.447 -0.0158  0.3074 -0.7916
10230TIP3    H152181   1.056   2.193   4.480  0.3904 -2.0610 -1.0021
10230TIP3    H252182   1.181   2.271   4.513 -0.8303 -0.7857  0.6798
10231TIP3   OH252183   3.782   5.672   2.495  0.3237  0.2849  0.5757
10231TIP3    H152184   3.774   5.578   2.481  1.6910  0.2760 -0.1698
10231TIP3    H252185   3.809   5.681   2.587  2.3775 -0.1581  0.0309
10232TIP3   OH252186   3.883   0.323  14.240  0.0705 -0.1631  0.5530
10232TIP3    H152187   3.956   0.299  14.184 -0.5348  0.7004 -0.6502
10232TIP3    H252188   3.916   0.397  14.292 -0.2379  0.8894 -0.7090
10233TIP3   OH252189   6.353   0.909   0.704  0.1590  0.0426 -0.5891
10233TIP3    H152190   6.380   0.931   0.793 -0.1229 -1.9541  0.0010
10233TIP3    H252191   6.282   0.971   0.685  0.4948  0.7453  0.3996
10234TIP3   OH252192   5.983   4.913   6.195  0.6437 -0.6387  0.3809
10234TIP3    H152193   5.906   4.945   6.146  0.2852  1.8765  2.4524
10234TIP3    H252194   6.023   4.993   6.230  2.0779 -2.2261  2.4397
10235TIP3   OH252195   6.508   5.066  15.083  0.4720 -0.3217 -0.5351
10235TIP3    H152196   6.571   5.065  15.155 -0.0319 -0.4800 -0.0957
10235TIP3    H252197   6.424   5.086  15.124  0.3973  0.9044 -1.2552
10236TIP3   OH252198   0.296   4.061   2.535  0.0488 -0.2332  0.1512
10236TIP3    H152199   0.362   4.001   2.570 -0.5248 -0.9677 -0.0098
10236TIP3    H252200   0.233   4.072   2.606 -0.3091 -0.5191 -0.1162
10237TIP3   OH252201   1.677   4.813   2.586  0.4459 -0.4185 -0.0291
10237TIP3    H152202   1.685   4.877   2.656 -0.3277 -0.3809  0.0348
10237TIP3    H252203   1.582   4.805   2.571  0.4696 -2.2461  0.6112
10238TIP3   OH252204   1.346   4.489   4.125 -0.1478  0.6431  0.2767
10238TIP3    H152205   1.295   4.471   4.203  0.3627  0.0436  0.4773
10238TIP3    H252206   1.306   4.567   4.087  0.8977  2.2098  2.2686
10239TIP3   OH252207   0.915   4.633   3.327 -0.9067 -0.0698 -0.5014
10239TIP3    H152208   0.905   4.651   3.233 -0.8742 -0.2774 -0.5441
10239TIP3    H252209   0.963   4.550   3.330 -0.2675  0.3037 -0.3025
10240TIP3   OH252210   1.770   3.260  13.285  1.0316  0.1738  0.0368
10240TIP3    H152211   1.714   3.284  13.358  3.4296  1.0789  1.6216
10240TIP3    H252212   1.734   3.176  13.254 -1.8613  1.2726  0.2401
10241TIP3   OH252213   1.399   2.214  15.957  0.2924  0.2175 -0.6498
10241TIP3    H152214   1.366   2.158  15.887 -0.6928  0.6757 -0.5651
10241TIP3    H252215   1.322   2.232  16.011  0.4304  2.3148 -1.1279
10242TIP3   OH252216   5.668   6.331  14.630  0.0410  0.2568 -0.1222
10242TIP3    H152217   5.706   6.292  14.551 -0.2114  0.2627 -0.2469
10242TIP3    H252218   5.689   6.269  14.700  1.3331  0.8444  0.0296
10243TIP3   OH252219   4.345   2.480   3.401  0.1240  0.0361  0.2523
10243TIP3    H152220   4.279   2.454   3.337  0.1927 -1.4388  0.7512
10243TIP3    H252221   4.393   2.399   3.419  1.4314  0.8823  0.6230
10244TIP3   OH252222   1.283   2.926   6.513 -0.0097  0.6299 -0.1234
10244TIP3    H152223   1.266   2.986   6.586 -2.0527  0.8974 -0.7920
10244TIP3    H252224   1.215   2.859   6.521  1.9047 -1.3316  0.2852
10245TIP3   OH252225   2.408   1.958   2.375 -0.1074  0.1034  0.0257
10245TIP3    H152226   2.396   1.894   2.445 -0.3040  0.7331  0.5787
10245TIP3    H252227   2.451   1.910   2.305  0.3703 -0.4631  0.7049
10246TIP3   OH252228   3.170   2.083  13.393  0.2131 -0.1550 -0.3815
10246TIP3    H152229   3.253   2.052  13.356 -0.5581 -2.9555  0.1076
10246TIP3    H252230   3.104   2.024  13.357 -1.3798  1.0644  0.4627
10247TIP3   OH252231   5.652   4.142  12.299  0.3412  0.3565 -0.1796
10247TIP3    H152232   5.660   4.196  12.221  0.3573 -0.1096 -0.4996
10247TIP3    H252233   5.597   4.069  12.273  0.7509 -0.0562  0.1056
10248TIP3   OH252234   0.408   5.085   1.263 -0.0703 -0.8916  0.8858
10248TIP3    H152235   0.373   5.111   1.348 -2.2267 -1.8576  0.3328
10248TIP3    H252236   0.500   5.065   1.280 -0.2162 -0.0519  2.7718
10249TIP3   OH252237   3.451   0.345   3.976 -0.6451 -0.1540 -0.5297
10249TIP3    H152238   3.421   0.381   3.893 -1.7629 -1.4754 -0.7044
10249TIP3    H252239   3.534   0.302   3.954 -1.2782 -1.1002 -1.1119
10250TIP3   OH252240   5.059   5.471   1.719  0.3518  0.1873  0.1344
10250TIP3    H152241   5.046   5.534   1.789  2.5469  0.3521  0.4128
10250TIP3    H252242   5.151   5.479   1.695 -0.0988 -0.5978 -2.0625
10251TIP3   OH252243   6.179   2.399   6.054 -0.1646 -0.2057  0.1727
10251TIP3    H152244   6.216   2.452   5.983 -0.2187  0.3518  0.5649
10251TIP3    H252245   6.092   2.374   6.022 -1.1841  2.0560  1.0189
10252TIP3   OH252246   5.204   5.712  16.734  0.2351 -0.2469 -0.2394
10252TIP3    H152247   5.292   5.744  16.717  0.9572 -0.2282  3.2031
10252TIP3    H252248   5.157   5.725  16.652  2.8141  1.8148 -1.4407
10253TIP3   OH252249   4.664   3.834   1.081  0.1493  0.2002 -0.0843
10253TIP3    H152250   4.579   3.867   1.108  1.1263  1.7039  1.2208
10253TIP3    H252251   4.725   3.866   1.147  1.7614 -0.7347 -1.0750
10254TIP3   OH252252   6.487   2.721  11.307  0.1899  0.2002 -0.6517
10254TIP3    H152253   6.566   2.678  11.274 -0.4694  0.1209 -2.2022
10254TIP3    H252254   6.502   2.731  11.401  1.1589 -1.7013 -0.5785
10255TIP3   OH252255   3.392   6.093  11.545 -0.5691  0.0358 -0.1736
10255TIP3    H152256   3.333   6.034  11.498 -0.2217 -0.8603  0.4903
10255TIP3    H252257   3.333   6.152  11.593 -0.9185  0.6597 -1.3626
10256TIP3   OH252258   4.029   3.654   2.554 -0.2303  0.3024 -0.0755
10256TIP3    H152259   4.016   3.674   2.462 -0.4470  2.6534  0.4255
10256TIP3    H252260   3.951   3.689   2.597  0.9196  1.2762  1.2515
10257TIP3   OH252261   2.288   3.083  14.407 -0.0813  0.4328 -0.5858
10257TIP3    H152262   2.263   3.028  14.481  1.5382  3.0791  1.9845
10257TIP3    H252263   2.299   3.021  14.335  0.2249 -2.4478  1.8375
10258TIP3   OH252264   4.349   3.550   5.458 -0.3487 -0.3167 -0.3018
10258TIP3    H152265   4.421   3.590   5.408 -0.2004  0.0932  0.2345
10258TIP3    H252266   4.369   3.457   5.458 -0.5882 -0.3658 -1.3914
10259TIP3   OH252267   0.446   3.432   3.659  0.7838  0.1129 -0.1262
10259TIP3    H152268   0.440   3.353   3.605 -0.2707  0.7180 -0.9130
10259TIP3    H252269   0.488   3.497   3.601  0.3012  0.5533  0.0084
10260TIP3   OH252270   1.149   0.837  12.639 -0.1949  0.1322  0.1301
10260TIP3    H152271   1.118   0.914  12.686  0.1370  0.2970  0.0844
10260TIP3    H252272   1.101   0.764  12.678 -0.3371  0.3343  0.3366
10261TIP3   OH252273   3.194   4.166   2.861 -0.2326  0.1784 -0.1664
10261TIP3    H152274   3.176   4.248   2.815  0.1874 -0.2771 -1.1513
10261TIP3    H252275   3.229   4.193   2.945 -0.9989  1.0233 -0.1077
10262TIP3   OH252276   4.956   6.791   2.775  0.4080 -0.6167  0.1358
10262TIP3    H152277   4.950   6.887   2.784 -1.1093 -0.9287  3.2325
10262TIP3    H252278   4.869   6.765   2.744 -1.1931 -1.3991  4.7861
10263TIP3   OH252279   0.692   2.771   2.101 -0.0374 -0.2802  0.5342
10263TIP3    H152280   0.604   2.733   2.106 -0.1843 -0.1238 -0.7913
10263TIP3    H252281   0.683   2.857   2.141 -0.8112  0.2994 -0.8584
10264TIP3   OH252282   1.192   4.990   5.355  0.3543  0.4117 -0.0827
10264TIP3    H152283   1.142   5.070   5.371 -0.2880 -0.2825  1.3645
10264TIP3    H252284   1.141   4.920   5.394  1.2359 -0.6440 -0.7733
10265TIP3   OH252285   0.558   3.141  17.041  0.3167 -0.4155 -0.5857
10265TIP3    H152286   0.590   3.223  17.002  0.6067 -0.3015 -0.1097
10265TIP3    H252287   0.637   3.090  17.059  0.1487 -0.7052 -0.6656
10266TIP3   OH252288   3.246   5.966   2.530  0.3509 -0.0512  0.4522
10266TIP3    H152289   3.203   5.883   2.549 -0.5256  0.3393  0.2469
10266TIP3    H252290   3.299   5.949   2.453 -1.1125 -0.0243 -0.5960
10267TIP3   OH252291   1.095   0.983   1.484  0.4093  0.0934 -0.0689
10267TIP3    H152292   1.004   0.957   1.472  0.9486 -1.9406  0.0768
10267TIP3    H252293   1.105   0.991   1.579  0.0776  1.5258 -0.1413
10268TIP3   OH252294   1.212   5.706  15.291 -0.0347  0.1443 -0.0265
10268TIP3    H152295   1.204   5.799  15.270  1.4018  0.4766  0.8414
10268TIP3    H252296   1.287   5.676  15.239  0.4636 -0.1601  0.8487
10269TIP3   OH252297   4.926   4.967   3.712 -0.4573  0.3626 -0.0553
10269TIP3    H152298   4.922   4.965   3.616 -2.7239 -2.3072  0.0201
10269TIP3    H252299   4.957   4.880   3.736  0.7324  1.2333  1.6278
10270TIP3   OH252300   6.503   6.074  12.463 -0.2427  0.0857 -0.2427
10270TIP3    H152301   6.486   6.003  12.401 -0.5062  0.5534 -0.7059
10270TIP3    H252302   6.594   6.097  12.449 -0.3553  0.3239 -0.6002
10271TIP3   OH252303   1.121   6.764   2.594  0.3707  0.4048  0.3951
10271TIP3    H152304   1.205   6.752   2.639 -0.5166  0.8449  2.2415
10271TIP3    H252305   1.065   6.697   2.632 -0.5015  0.9994  0.1665
10272TIP3   OH252306   0.778   5.516  16.830 -0.4373 -0.0584 -0.0153
10272TIP3    H152307   0.689   5.550  16.839  0.4179  1.9031  1.3269
10272TIP3    H252308   0.818   5.571  16.763  0.5908  0.8403  1.3189
10273TIP3   OH252309   1.275   1.013  12.363 -0.4891 -0.1754 -0.1603
10273TIP3    H152310   1.251   1.006  12.456  1.4389 -2.0594  0.2231
10273TIP3    H252311   1.333   1.089  12.359  0.3657 -0.7890  0.3933
10274TIP3   OH252312   4.087   5.001   2.675 -0.0325  0.8817 -0.2425
10274TIP3    H152313   4.142   5.045   2.611  1.9028 -0.0323  0.7131
10274TIP3    H252314   4.074   4.913   2.640  1.3457  0.2560  0.7398
10275TIP3   OH252315   2.324   3.628   5.651  0.1179 -0.0961  0.0508
10275TIP3    H152316   2.352   3.654   5.563 -1.1539 -0.8211 -0.5761
10275TIP3    H252317   2.311   3.534   5.646 -0.9598  0.0089  0.7374
10276TIP3   OH252318   6.200   6.472  16.334 -0.3380  0.2323  0.1298
10276TIP3    H152319   6.189   6.539  16.267 -0.3420  0.7602  0.6456
10276TIP3    H252320   6.141   6.500  16.405 -0.0498 -0.1058  0.5066
10277TIP3   OH252321   2.480   6.385  12.308 -0.2709  0.0919  0.1101
10277TIP3    H152322   2.481   6.341  12.393 -0.6437 -0.1286  0.0007
10277TIP3    H252323   2.466   6.315  12.244 -1.4535  0.4280 -0.0198
10278TIP3   OH252324   1.445   3.784  14.519 -0.3929 -0.5469 -0.0294
10278TIP3    H152325   1.485   3.769  14.604 -0.1686  0.6270  0.0860
10278TIP3    H252326   1.395   3.704  14.501  0.6437 -1.3389  0.5840
10279TIP3   OH252327   2.071   4.707  16.894 -0.1131  0.2993 -0.1350
10279TIP3    H152328   2.115   4.778  16.941 -0.8701  0.1399  0.8209
10279TIP3    H252329   1.982   4.740  16.880 -0.0437  0.1331 -1.0003
10280TIP3   OH252330   2.761   0.722  16.533  0.1068 -0.5022  0.0768
10280TIP3    H152331   2.788   0.649  16.589 -0.9145 -1.7249 -1.0120
10280TIP3    H252332   2.809   0.709  16.451 -1.1734 -0.7434 -0.6333
10281TIP3   OH252333   1.151   4.310  14.056 -0.1293  0.3449 -0.1481
10281TIP3    H152334   1.172   4.315  14.150 -2.4086  1.1614  0.3527
10281TIP3    H252335   1.058   4.289  14.054  0.4046 -1.9365 -2.2646
10282TIP3   OH252336   0.988   0.406  11.016 -0.5169 -0.0127 -0.3511
10282TIP3    H152337   0.923   0.433  10.952 -1.0327 -1.7675 -0.5908
10282TIP3    H252338   1.052   0.355  10.966 -0.0722 -0.0439  0.2401
10283TIP3   OH252339   3.116   4.383   1.211  0.2330 -0.1876  0.0590
10283TIP3    H152340   3.166   4.352   1.135  0.7530 -1.4888  0.9164
10283TIP3    H252341   3.179   4.380   1.283 -0.1234  1.4844  0.4522
10284TIP3   OH252342   6.747   4.561  17.076 -0.1527 -0.3296 -0.1784
10284TIP3    H152343   6.755   4.518  16.991  1.6922 -1.2942  0.4614
10284TIP3    H252344   6.817   4.625  17.078  1.3777 -1.9997  1.5668
10285TIP3   OH252345   4.280   6.323  11.739 -0.1613  0.4791  0.3791
10285TIP3    H152346   4.185   6.325  11.724 -0.1148 -0.5443 -0.1146
10285TIP3    H252347   4.290   6.269  11.818 -0.0295  1.0375  0.7414
10286TIP3   OH252348   4.361   5.133  13.060 -0.2721 -0.3063  0.1678
10286TIP3    H152349   4.327   5.219  13.036  0.4950  0.1963  0.8424
10286TIP3    H252350   4.446   5.151  13.100 -0.6271 -1.2689  1.4094
10287TIP3   OH252351   0.732   5.145   0.150  0.0128 -0.6523  0.2931
10287TIP3    H152352   0.666   5.213   0.159  0.3891 -0.1408 -0.7280
10287TIP3    H252353   0.691   5.066   0.184 -0.1895  0.2289  2.1193
10288TIP3   OH252354   4.379   6.575  14.588  0.3321 -0.1372  0.0760
10288TIP3    H152355   4.359   6.554  14.679 -1.3798 -0.1337 -0.2963
10288TIP3    H252356   4.415   6.494  14.552 -1.3499 -0.9100  0.0797
10289TIP3   OH252357   5.160   1.799  11.079  0.7539 -0.3312 -0.5515
10289TIP3    H152358   5.234   1.740  11.093  1.8106  1.0303 -0.2533
10289TIP3    H252359   5.200   1.884  11.063 -0.7448  0.3123 -0.9825
10290TIP3   OH252360   6.715   2.641  15.978 -0.1467  0.7113 -0.7678
10290TIP3    H152361   6.764   2.706  16.028  1.5746  1.0125 -2.7993
10290TIP3    H252362   6.631   2.634  16.025  0.1266  3.4242  0.2307
10291TIP3   OH252363   1.878   0.493   3.564  0.3974  0.1942 -0.0874
10291TIP3    H152364   1.965   0.527   3.584 -0.1100 -0.1689  2.9831
10291TIP3    H252365   1.890   0.398   3.558  0.0240  0.0368  1.5161
10292TIP3   OH252366   4.317   6.475   5.057 -0.3871 -0.0873 -0.3330
10292TIP3    H152367   4.324   6.399   5.000 -1.2871 -0.8419  0.5585
10292TIP3    H252368   4.388   6.464   5.120 -0.1315  0.1359 -0.5800
10293TIP3   OH252369   3.478   5.072  11.282  0.4310  0.2569  0.5272
10293TIP3    H152370   3.522   5.154  11.259  1.9830 -0.6591  0.1464
10293TIP3    H252371   3.549   5.015  11.311 -0.5012 -1.3398 -0.3163
10294TIP3   OH252372   5.576   6.027  11.896  0.1671 -0.3280  0.4617
10294TIP3    H152373   5.666   6.007  11.922  0.7609  1.9605  0.2421
10294TIP3    H252374   5.523   5.964  11.944  1.5575  1.0327  3.9017
10295TIP3   OH252375   4.269   4.858  15.929  0.5647 -0.3657 -0.3021
10295TIP3    H152376   4.221   4.781  15.898  1.0406 -1.0738  0.6663
10295TIP3    H252377   4.251   4.860  16.023  0.1715  0.9925 -0.3947
10296TIP3   OH252378   2.949   0.268   0.728  0.5755 -0.5350  0.1751
10296TIP3    H152379   2.949   0.212   0.651 -0.6326  0.4095 -0.5203
10296TIP3    H252380   3.031   0.247   0.773  1.7379 -0.4197 -1.8505
10297TIP3   OH252381   4.157   6.671   0.631 -0.1493  0.4139  0.0507
10297TIP3    H152382   4.084   6.709   0.680 -0.2200  2.9104 -1.8596
10297TIP3    H252383   4.226   6.661   0.696 -1.6231 -0.3747  1.5331
10298TIP3   OH252384   2.004   2.504  10.727 -0.3107  0.1773 -0.0662
10298TIP3    H152385   1.932   2.447  10.701  0.2642 -0.3376 -0.5399
10298TIP3    H252386   1.962   2.578  10.771 -1.0764 -0.4527  0.2607
10299TIP3   OH252387   5.250   3.407  16.142  0.2730  0.2772  0.1767
10299TIP3    H152388   5.224   3.474  16.079  0.1126 -1.8695 -2.1582
10299TIP3    H252389   5.175   3.347  16.145  1.2342 -0.9367  0.5479
10300TIP3   OH252390   0.975   4.986  11.826 -0.2400 -0.4883 -0.0408
10300TIP3    H152391   0.963   4.892  11.838 -1.4963 -0.3725 -0.2892
10300TIP3    H252392   1.040   4.994  11.756 -0.7578 -1.1723 -0.5984
10301TIP3   OH252393   0.972   2.115  14.914 -0.1404 -0.4619  0.1256
10301TIP3    H152394   1.047   2.143  14.967 -0.5950 -0.1000  0.5775
10301TIP3    H252395   0.992   2.024  14.891 -0.2186 -0.8113  1.4031
10302TIP3   OH252396   1.857   5.331   2.676 -0.0702 -0.4162  0.1574
10302TIP3    H152397   1.878   5.348   2.768 -1.0091 -1.3429  0.5582
10302TIP3    H252398   1.925   5.271   2.647  0.4316  0.1511  0.1348
10303TIP3   OH252399   4.830   2.912  13.230  0.0536 -0.1784 -0.2955
10303TIP3    H152400   4.738   2.886  13.229 -0.3455  1.1163  0.5600
10303TIP3    H252401   4.837   2.973  13.304  1.4217  0.3669 -0.8484
10304TIP3   OH252402   6.390   0.946   4.359  0.8615  0.7800  0.3282
10304TIP3    H152403   6.458   0.946   4.292  1.9246  0.7047  1.3978
10304TIP3    H252404   6.380   0.854   4.384  1.2881  0.9311  1.0850
10305TIP3   OH252405   5.344   6.681   2.714  0.1568  0.2379  0.1506
10305TIP3    H152406   5.378   6.674   2.803  4.1776 -1.3056 -1.3959
10305TIP3    H252407   5.268   6.623   2.713  1.5303 -1.6812  1.9537
10306TIP3   OH252408   3.820   0.202   3.743 -0.4843  0.3612  0.0441
10306TIP3    H152409   3.872   0.195   3.823 -0.1690  0.2099 -0.1723
10306TIP3    H252410   3.876   0.252   3.683 -1.0921  1.2825  0.2311
10307TIP3   OH252411   1.288   0.692  15.238  0.3017 -0.1024 -0.3389
10307TIP3    H152412   1.337   0.756  15.290  1.7012 -0.7861 -0.8039
10307TIP3    H252413   1.270   0.737  15.155  1.1596 -0.2597 -0.6112
10308TIP3   OH252414   0.393   3.413   5.156  0.2518 -0.0624 -0.6887
10308TIP3    H152415   0.453   3.475   5.198  0.0006 -1.1524  1.3796
10308TIP3    H252416   0.307   3.454   5.162  0.0948 -0.5587  0.6210
10309TIP3   OH252417   1.053   5.373  16.413 -0.0252  0.0052  0.0728
10309TIP3    H152418   1.081   5.331  16.332  0.2642  3.4648 -1.6846
10309TIP3    H252419   0.958   5.380  16.405 -0.2044 -1.2297  0.8733
10310TIP3   OH252420   0.916   4.542   4.891 -0.5400  0.7991  0.2930
10310TIP3    H152421   0.998   4.590   4.879  0.3331 -1.1345 -1.8362
10310TIP3    H252422   0.849   4.610   4.900  0.8934  2.4051 -0.9400
10311TIP3   OH252423   5.812   0.697  15.691 -0.6375 -0.5758 -0.2394
10311TIP3    H152424   5.768   0.727  15.611 -0.5729 -0.0646 -0.0840
10311TIP3    H252425   5.864   0.772  15.720  0.0242 -1.0402 -0.1963
10312TIP3   OH252426   1.228   0.872  13.096 -0.6712  0.3136  0.7421
10312TIP3    H152427   1.206   0.951  13.144  0.8022  0.6961  0.8278
10312TIP3    H252428   1.168   0.871  13.022 -0.0162  2.0922  0.1480
10313TIP3   OH252429   3.014   3.931   4.932 -0.4497  0.7468 -0.5206
10313TIP3    H152430   2.997   3.889   5.016  0.0952  0.8506 -0.3580
10313TIP3    H252431   3.007   3.861   4.868  1.0276  0.2847 -0.1890
10314TIP3   OH252432   2.678   5.611   5.608  0.4694 -0.0722 -0.3948
10314TIP3    H152433   2.724   5.687   5.572 -0.2227  0.8572  0.6820
10314TIP3    H252434   2.722   5.594   5.691 -0.0738 -0.1893 -0.1299
10315TIP3   OH252435   0.962   6.219  13.707 -0.3365  0.3136 -0.1953
10315TIP3    H152436   1.021   6.264  13.647 -0.4254 -1.9440 -2.0704
10315TIP3    H252437   0.877   6.260  13.694  0.2839  1.9286  0.7207
10316TIP3   OH252438   5.998   6.019   2.213  0.1159 -0.9906  0.1928
10316TIP3    H152439   5.916   5.994   2.256 -1.1518 -1.0929 -2.1796
10316TIP3    H252440   5.972   6.086   2.150  2.3706  1.1963  1.4858
10317TIP3   OH252441   1.253   2.643  11.577 -0.3905  0.1542 -0.3942
10317TIP3    H152442   1.308   2.700  11.631  2.0049  0.3087 -2.8936
10317TIP3    H252443   1.190   2.702  11.536 -0.4876  0.4139  0.1210
10318TIP3   OH252444   5.960   4.369  13.764  0.0723 -0.2064  0.2952
10318TIP3    H152445   5.935   4.341  13.852 -1.0195  1.4153  0.5154
10318TIP3    H252446   5.993   4.458  13.776  2.2039 -0.8478 -0.5953
10319TIP3   OH252447   4.517   3.678  14.701  0.1843  0.4090 -0.3879
10319TIP3    H152448   4.609   3.683  14.674  0.4650  0.5061  0.5776
10319TIP3    H252449   4.499   3.763  14.740 -0.3424  0.4145 -0.6478
10320TIP3   OH252450   3.127   3.257  12.767  0.1942 -0.5503 -0.3113
10320TIP3    H152451   3.163   3.330  12.818  0.8181 -0.6914 -0.5464
10320TIP3    H252452   3.183   3.251  12.691 -0.8962 -0.1776 -1.1563
10321TIP3   OH252453   3.317   3.996  12.122  0.6520  0.0437 -0.1623
10321TIP3    H152454   3.344   4.046  12.045  0.0085 -0.8772 -0.9906
10321TIP3    H252455   3.395   3.993  12.177  1.3217  0.1029 -1.0953
10322TIP3   OH252456   2.727   2.984  12.417 -0.6316 -0.2811 -0.3229
10322TIP3    H152457   2.815   2.968  12.451 -0.4184 -1.1216 -1.2448
10322TIP3    H252458   2.669   2.935  12.475 -0.4383 -0.2449 -0.0973
10323TIP3   OH252459   1.389   6.264  12.032 -0.2185 -0.3934 -0.2661
10323TIP3    H152460   1.409   6.220  12.114 -1.0648 -1.0642 -0.4209
10323TIP3    H252461   1.459   6.236  11.972 -0.0731 -0.5581 -0.0184
10324TIP3   OH252462   3.156   6.800  16.370  0.3906 -0.1643 -0.4303
10324TIP3    H152463   3.073   6.798  16.418 -0.5300 -0.7267 -2.0069
10324TIP3    H252464   3.130   6.799  16.278  2.1212  0.8710 -0.9497
10325TIP3   OH252465   4.202   2.184  13.096  0.7768  0.6579 -0.0322
10325TIP3    H152466   4.200   2.254  13.161  1.9885  0.5085  0.1764
10325TIP3    H252467   4.245   2.111  13.141 -0.7889 -0.3368 -0.1363
10326TIP3   OH252468   4.891   1.196   1.856  0.6140 -0.2679 -0.5027
10326TIP3    H152469   4.881   1.208   1.951  1.9181  2.1707 -0.6255
10326TIP3    H252470   4.808   1.226   1.820  0.7724  0.5173 -0.2302
10327TIP3   OH252471   1.723   5.451  16.287  0.0723  0.2526  0.6425
10327TIP3    H152472   1.804   5.483  16.248  0.0761  0.5860  0.9240
10327TIP3    H252473   1.729   5.355  16.280  0.0309  0.3177 -0.2505
10328TIP3   OH252474   3.785   0.342   5.918 -0.0231  0.4537 -1.1525
10328TIP3    H152475   3.858   0.388   5.877  1.3615 -2.0863 -1.6756
10328TIP3    H252476   3.810   0.333   6.010 -1.2027  2.4415 -0.6098
10329TIP3   OH252477   4.141   3.047  15.149  0.2569 -0.4855 -0.2991
10329TIP3    H152478   4.098   3.128  15.176  1.9429  0.4521 -0.3910
10329TIP3    H252479   4.162   3.002  15.230  0.2143 -0.3648 -0.2201
10330TIP3   OH252480   1.947   1.949  11.470 -0.1626 -0.2432 -0.1585
10330TIP3    H152481   1.958   1.854  11.471  0.2239 -0.2093 -0.6734
10330TIP3    H252482   1.879   1.967  11.536 -0.1667 -0.8627  0.0049
10331TIP3   OH252483   3.820   1.287   3.457 -0.3567 -0.4987 -0.1082
10331TIP3    H152484   3.868   1.206   3.440  2.1628  0.9960 -0.4747
10331TIP3    H252485   3.881   1.340   3.509 -1.9993  1.1158  0.2190
10332TIP3   OH252486   2.473   3.707   0.700  0.3311 -0.4864  0.4575
10332TIP3    H152487   2.380   3.730   0.703  0.1578 -1.2741  1.6245
10332TIP3    H252488   2.515   3.766   0.763  0.5880 -0.2680  0.0810
10333TIP3   OH252489   3.997   3.592  15.247  0.3226 -0.5024 -0.1765
10333TIP3    H152490   4.081   3.610  15.291 -0.0859 -0.2563  0.5103
10333TIP3    H252491   4.021   3.578  15.155  0.9437  1.1567 -0.2945
10334TIP3   OH252492   5.166   2.402   3.320  0.4649 -0.5703 -0.2979
10334TIP3    H152493   5.134   2.487   3.289  1.1549  0.5082  1.8150
10334TIP3    H252494   5.184   2.416   3.413  0.4547 -3.0841  0.1277
10335TIP3   OH252495   5.047   6.111  10.542 -0.2214 -0.4664  0.1537
10335TIP3    H152496   4.964   6.067  10.522  0.2281 -0.5200 -1.6861
10335TIP3    H252497   5.105   6.041  10.570 -1.3907 -0.1599  3.5813
10336TIP3   OH252498   5.102   1.779   5.584  0.1448  0.0062  0.0286
10336TIP3    H152499   5.021   1.824   5.563 -0.2089 -0.9876 -0.7913
10336TIP3    H252500   5.149   1.839   5.643 -2.1828 -0.3967  2.3781
10337TIP3   OH252501   5.551   3.750   2.658  0.1119  0.1646 -0.5040
10337TIP3    H152502   5.564   3.774   2.750 -1.0237 -0.2232 -0.2340
10337TIP3    H252503   5.564   3.832   2.610  0.7313  0.3659  0.0033
10338TIP3   OH252504   2.165   2.024  11.334 -0.1434 -0.3970 -0.1510
10338TIP3    H152505   2.221   2.074  11.393  0.1037 -0.4741 -0.3158
10338TIP3    H252506   2.087   2.005  11.385 -0.0866 -0.1486  0.0281
10339TIP3   OH252507   4.089   5.351  15.011  0.1769 -0.2692 -0.1929
10339TIP3    H152508   4.165   5.308  15.050  0.4866  0.8175  0.4426
10339TIP3    H252509   4.013   5.311  15.055  0.5114  0.8114  1.4400
10340TIP3   OH252510   2.143   4.095  13.484 -0.1934 -0.4056 -0.6148
10340TIP3    H152511   2.188   4.118  13.565 -2.7019  1.2000  0.4207
10340TIP3    H252512   2.169   4.164  13.423 -0.4009 -0.0667 -0.3301
10341TIP3   OH252513   4.804   0.123   0.515 -0.1987 -0.2282 -0.1058
10341TIP3    H152514   4.730   0.181   0.535  0.2787 -0.1316  1.4150
10341TIP3    H252515   4.853   0.169   0.447 -0.2588  0.8074  0.5341
10342TIP3   OH252516   4.631   1.230   4.516  0.4224 -0.2726 -0.4005
10342TIP3    H152517   4.542   1.194   4.508 -0.2122  1.3494 -0.8516
10342TIP3    H252518   4.645   1.275   4.432  0.9703  1.0275  0.3891
10343TIP3   OH252519   4.960   4.583   2.637 -0.1157 -0.4635  0.4067
10343TIP3    H152520   4.900   4.530   2.584  1.5575 -1.2096 -0.8095
10343TIP3    H252521   4.954   4.546   2.725 -2.9452  0.8002  0.7855
10344TIP3   OH252522   0.424   4.992   5.302  0.0300 -0.6028  0.7292
10344TIP3    H152523   0.388   5.077   5.325 -0.8731 -0.8093  0.0917
10344TIP3    H252524   0.456   5.002   5.212  0.0655 -0.8903  0.7063
10345TIP3   OH252525   1.982   5.322  16.872 -0.7166 -0.4325  0.7369
10345TIP3    H152526   2.063   5.372  16.883 -0.2381 -0.7708 -0.9746
10345TIP3    H252527   2.012   5.232  16.853 -1.4842 -0.6216  0.3949
10346TIP3   OH252528   2.446   3.109  13.362 -0.2682  0.8365  0.0641
10346TIP3    H152529   2.422   3.077  13.449  1.1212  1.8074  0.8204
10346TIP3    H252530   2.380   3.070  13.303 -0.0590 -1.4169  1.2679
10347TIP3   OH252531   3.164   4.847   1.618  0.0176 -0.2745  0.6453
10347TIP3    H152532   3.168   4.832   1.523  1.8691  1.5197  0.4240
10347TIP3    H252533   3.210   4.772   1.656 -0.8129 -1.0488  0.1363
10348TIP3   OH252534   4.146   5.801   3.581 -0.2220  0.4378 -0.6486
10348TIP3    H152535   4.089   5.878   3.575 -0.3841  0.1724 -2.9996
10348TIP3    H252536   4.233   5.837   3.597 -0.7500  0.9502  1.1406
10349TIP3   OH252537   3.012   5.209  12.244 -0.3414 -0.2405  0.0304
10349TIP3    H152538   3.089   5.169  12.284  0.2822  1.0587  0.1878
10349TIP3    H252539   2.941   5.193  12.307  0.2753  0.3690  0.9010
10350TIP3   OH252540   6.663   6.127  12.925  0.1247  0.4617  0.3558
10350TIP3    H152541   6.668   6.033  12.911  0.7620  0.8710 -2.4109
10350TIP3    H252542   6.747   6.151  12.963  1.0760  0.3167 -1.6170
10351TIP3   OH252543   6.294   0.191  15.256 -0.1381 -0.2101 -0.7414
10351TIP3    H152544   6.376   0.173  15.209 -0.7687  0.6326 -2.2212
10351TIP3    H252545   6.316   0.262  15.316  0.1973  0.1245 -1.2497
10352TIP3   OH252546   6.580   4.965   2.626  0.4250  0.9012 -0.0572
10352TIP3    H152547   6.578   4.949   2.721  0.3741 -0.6709 -0.3125
10352TIP3    H252548   6.651   4.909   2.594 -0.9067 -0.1463 -1.2232
10353TIP3   OH252549   6.360   6.741   0.431 -0.1444  0.2003 -0.3381
10353TIP3    H152550   6.436   6.756   0.376  1.7390 -1.4702  1.6843
10353TIP3    H252551   6.335   6.650   0.415  1.1368 -0.6868  2.2723
10354TIP3   OH252552   4.965   0.020  15.984  0.0376  0.6979 -0.1038
10354TIP3    H152553   4.910  -0.042  15.936  0.6405 -0.4949  0.7168
10354TIP3    H252554   4.940   0.008  16.075  0.2539  1.5817  0.0753
10355TIP3   OH252555   1.567   4.517  16.094  0.6898 -0.1513  0.4986
10355TIP3    H152556   1.647   4.555  16.059  1.4244 -0.8238  1.4284
10355TIP3    H252557   1.548   4.443  16.036  2.1131 -1.4932  1.7057
10356TIP3   OH252558   0.547   5.299  16.841 -0.2283  0.0816  0.2331
10356TIP3    H152559   0.569   5.211  16.870 -0.4350  0.0390  0.2593
10356TIP3    H252560   0.599   5.312  16.762 -1.0729 -0.4982 -0.4264
10357TIP3   OH252561   4.034   3.066   2.997  0.0984 -0.2181 -0.1406
10357TIP3    H152562   4.027   3.128   3.070  1.2920  0.3743 -0.5108
10357TIP3    H252563   4.050   3.121   2.921 -2.0829 -0.7655 -1.0374
10358TIP3   OH252564   4.999   4.549  12.210  0.6841  0.3150 -0.2005
10358TIP3    H152565   5.023   4.548  12.117  1.1837 -0.6458 -0.0630
10358TIP3    H252566   5.014   4.460  12.240 -1.5631  0.0711  0.2865
10359TIP3   OH252567   6.241   3.426  10.774 -0.5794 -0.3376 -0.3338
10359TIP3    H152568   6.299   3.445  10.700  0.0780  1.7310  0.6529
10359TIP3    H252569   6.184   3.503  10.780 -0.7763 -0.5830  1.1431
10360TIP3   OH252570   3.010   6.332  14.061 -0.2733 -0.5896  0.5711
10360TIP3    H152571   3.074   6.396  14.091 -0.3153 -0.0559 -0.4698
10360TIP3    H252572   3.016   6.261  14.125 -0.7499  0.7650  2.1441
10361TIP3   OH252573   6.234   2.720   4.889 -0.0871  0.3194 -0.0065
10361TIP3    H152574   6.147   2.715   4.930  1.0635  1.7181  2.7861
10361TIP3    H252575   6.261   2.629   4.878 -0.9020 -0.1108  1.3932
10362TIP3   OH252576   1.966   1.991   4.717  0.0420 -0.1436 -0.3915
10362TIP3    H152577   1.961   2.079   4.681  1.4651 -0.2950 -0.9799
10362TIP3    H252578   1.874   1.967   4.733 -0.5018  0.6356 -2.1885
10363TIP3   OH252579   6.383   3.178  16.547 -0.1226 -0.1757 -0.0416
10363TIP3    H152580   6.443   3.135  16.486  0.8898  1.2621 -0.0827
10363TIP3    H252581   6.309   3.205  16.494  0.7076  0.9776 -0.6454
10364TIP3   OH252582   4.227   3.692   3.639  0.0705 -0.2831 -0.3630
10364TIP3    H152583   4.223   3.782   3.606 -1.2586 -0.6181 -1.1470
10364TIP3    H252584   4.297   3.693   3.704  1.0895  0.9686 -1.4630
10365TIP3   OH252585   3.004   5.011  15.254  0.1591  0.0182  0.3761
10365TIP3    H152586   2.978   5.101  15.273 -1.1044 -0.2680  0.0231
10365TIP3    H252587   2.966   4.992  15.169 -0.8865 -1.3666  1.1364
10366TIP3   OH252588   6.285   1.368  14.656 -0.5248 -0.1079 -0.6194
10366TIP3    H152589   6.215   1.417  14.699  0.6712 -0.3918  1.7599
10366TIP3    H252590   6.337   1.435  14.611 -1.6499  0.2359 -1.4192
10367TIP3   OH252591   1.053   0.053   2.176  0.2667  0.1703  0.3877
10367TIP3    H152592   1.083  -0.036   2.193  2.5006  0.2152 -2.8265
10367TIP3    H252593   1.110   0.108   2.229  1.0429 -0.1670 -0.0825
10368TIP3   OH252594   2.934   5.547   4.051 -0.1166  0.4102  0.6141
10368TIP3    H152595   2.875   5.622   4.048  0.4597  0.8449 -0.1166
10368TIP3    H252596   3.021   5.586   4.064  0.2640 -0.0940 -0.4082
10369TIP3   OH252597   6.345   2.505   0.420  0.3708 -0.1393 -0.2210
10369TIP3    H152598   6.423   2.506   0.476 -0.0522  0.8067  0.3611
10369TIP3    H252599   6.374   2.463   0.339  1.5407  0.3915 -0.0890
10370TIP3   OH252600   5.432   1.203   2.069 -0.2759  0.0636 -0.1780
10370TIP3    H152601   5.412   1.244   1.985  0.0722  2.4730  0.8701
10370TIP3    H252602   5.349   1.205   2.117  0.2735  1.7578  0.7552
10371TIP3   OH252603   2.101   6.248   4.852 -0.3476 -0.1420  0.1734
10371TIP3    H152604   2.068   6.337   4.842 -2.1028 -0.9867 -1.8962
10371TIP3    H252605   2.190   6.259   4.885 -0.4595  2.3931 -0.2966
10372TIP3   OH252606   1.603   1.548  13.615  0.5727 -0.0394 -0.4770
10372TIP3    H152607   1.587   1.478  13.678  1.9043  0.2244  0.1661
10372TIP3    H252608   1.608   1.628  13.667  3.1999 -0.0113 -0.7067
10373TIP3   OH252609   3.417   2.627  16.970 -0.6961  0.2934 -0.4069
10373TIP3    H152610   3.334   2.583  16.951 -1.2546  0.4003  1.6982
10373TIP3    H252611   3.399   2.680  17.047  1.2883  0.4930 -0.0487
10374TIP3   OH252612   3.856   0.343   4.381  0.4268  0.3273  0.6246
10374TIP3    H152613   3.915   0.302   4.444  0.0817 -0.5164  0.4125
10374TIP3    H252614   3.803   0.403   4.432 -0.2986 -0.8321  1.2550
10375TIP3   OH252615   1.167   4.418   0.317  0.5116 -0.7803  0.1583
10375TIP3    H152616   1.097   4.482   0.305  0.6295 -0.8602 -1.0333
10375TIP3    H252617   1.153   4.383   0.405 -0.0636  0.2611  0.4902
10376TIP3   OH252618   3.610   4.179   2.264 -0.0009 -0.1993  0.3295
10376TIP3    H152619   3.675   4.161   2.196  3.4050  2.0203  2.8363
10376TIP3    H252620   3.580   4.093   2.292  0.3719 -1.2180 -2.2241
10377TIP3   OH252621   3.498   4.361   1.167  0.2562 -0.0398 -0.3699
10377TIP3    H152622   3.434   4.364   1.238 -0.5921  2.0693 -1.1994
10377TIP3    H252623   3.562   4.295   1.196 -0.6910 -0.0541  1.8094
10378TIP3   OH252624   5.939   5.050  16.000 -0.3493 -0.1880  0.5336
10378TIP3    H152625   5.914   4.964  16.034 -1.8323  0.6999  1.7903
10378TIP3    H252626   6.029   5.063  16.030 -0.0290 -1.3985  0.1107
10379TIP3   OH252627   1.654   6.396   4.564 -0.1894 -0.4077  0.6881
10379TIP3    H152628   1.705   6.316   4.575 -0.5415 -0.4947  1.6915
10379TIP3    H252629   1.564   6.370   4.580 -0.4262 -0.0224  0.0076
10380TIP3   OH252630   5.712   5.272  13.014 -0.4114 -0.8452 -0.1233
10380TIP3    H152631   5.616   5.275  13.008 -0.3832 -2.2867 -1.5584
10380TIP3    H252632   5.742   5.344  12.958 -0.6613  0.1411  0.9932
10381TIP3   OH252633   0.878   3.501   3.005  0.0206  0.3858 -0.3833
10381TIP3    H152634   0.898   3.590   2.976 -1.2410  1.0713  0.7695
10381TIP3    H252635   0.849   3.512   3.096 -3.7162 -0.6998 -1.3504
10382TIP3   OH252636   6.511   6.530   2.208 -0.2610 -0.0057  0.2679
10382TIP3    H152637   6.596   6.566   2.233  0.1200 -0.0038 -0.9912
10382TIP3    H252638   6.448   6.598   2.230  0.2341  0.6101 -0.2165
10383TIP3   OH252639   1.873   4.659   2.916 -0.4855 -0.0188 -0.0705
10383TIP3    H152640   1.791   4.707   2.925  0.3916  1.4947 -0.0736
10383TIP3    H252641   1.913   4.664   3.003  0.7852  1.4192 -0.7232
10384TIP3   OH252642   0.652   3.025   2.166 -0.7488 -0.3662 -0.3152
10384TIP3    H152643   0.611   3.087   2.105 -2.3448 -0.3873  0.6859
10384TIP3    H252644   0.682   3.079   2.239  0.1810 -0.4703 -0.6178
10385TIP3   OH252645   0.360   3.835   0.706 -0.0542  0.5430  0.1393
10385TIP3    H152646   0.411   3.896   0.760  0.6930  0.0563 -0.0244
10385TIP3    H252647   0.300   3.892   0.657 -1.0048  0.9697  1.7345
10386TIP3   OH252648   4.786   4.442  15.421 -0.7952  0.1701 -0.3991
10386TIP3    H152649   4.861   4.384  15.414  0.4911  1.4963  1.8834
10386TIP3    H252650   4.715   4.396  15.377  0.8483 -1.9937 -0.8085
10387TIP3   OH252651   5.737   4.462   3.074 -0.1890  0.1717 -0.3733
10387TIP3    H152652   5.672   4.497   3.134 -0.2353  3.2345 -2.0911
10387TIP3    H252653   5.821   4.485   3.113 -0.1405 -1.8986  0.7793
10388TIP3   OH252654   5.732   5.533  16.768 -0.4900 -0.1622 -0.5983
10388TIP3    H152655   5.702   5.459  16.821  0.2162 -1.1294 -1.5318
10388TIP3    H252656   5.659   5.595  16.769 -0.5909 -0.3017  1.2629
10389TIP3   OH252657   0.019   1.005  14.215  0.1936  0.0529  0.5881
10389TIP3    H152658  -0.064   0.982  14.172 -0.8058  1.1550  1.8712
10389TIP3    H252659   0.072   1.043  14.146  0.9237 -3.7120 -1.0052
10390TIP3   OH252660   5.456   4.112  16.018  0.1544  0.2534  0.1289
10390TIP3    H152661   5.396   4.063  15.961  1.1621 -1.0469  0.1582
10390TIP3    H252662   5.521   4.150  15.957  0.7435 -0.4331  0.3231
10391TIP3   OH252663   0.275   2.014  14.634 -0.0049  0.2660 -0.3511
10391TIP3    H152664   0.182   2.003  14.614  0.2089  0.2926 -1.3806
10391TIP3    H252665   0.286   1.971  14.719 -1.4430  2.3557  0.9488
10392TIP3   OH252666   3.861   2.137  16.695  0.4002  0.5558 -0.8485
10392TIP3    H152667   3.817   2.129  16.779  2.0598 -0.9683 -0.0992
10392TIP3    H252668   3.884   2.230  16.689 -0.7616  0.8899 -0.1644
10393TIP3   OH252669   6.635   5.137  14.800  0.5900 -0.0017 -0.7053
10393TIP3    H152670   6.576   5.079  14.849  0.6496  1.3643  1.0253
10393TIP3    H252671   6.719   5.129  14.845  1.6412 -1.5232 -2.8328
10394TIP3   OH252672   4.835   2.671  15.937  0.3386 -0.0073  0.0084
10394TIP3    H152673   4.864   2.761  15.947  1.5652 -0.4306  0.3348
10394TIP3    H252674   4.767   2.660  16.004 -0.6260  0.9892 -0.7802
10395TIP3   OH252675   0.085   0.674  12.836  0.4698 -0.3498  0.0802
10395TIP3    H152676   0.121   0.742  12.893  0.2198 -1.1188  1.1682
10395TIP3    H252677   0.006   0.644  12.882 -0.2055 -0.3988 -1.0820
10396TIP3   OH252678   1.495   0.614   6.605 -0.1850 -0.2424 -0.3210
10396TIP3    H152679   1.467   0.706   6.608  0.0444 -0.1639 -0.5982
10396TIP3    H252680   1.435   0.569   6.664  0.0670  0.1841  0.2724
10397TIP3   OH252681   2.473   3.962  13.160  0.0297 -0.0918  0.5292
10397TIP3    H152682   2.392   4.003  13.130  0.0769  0.8008  1.5990
10397TIP3    H252683   2.542   4.023  13.136  0.3671 -0.7675 -0.2195
10398TIP3   OH252684   1.968   6.262   1.790 -0.0677  0.1301  0.0198
10398TIP3    H152685   1.873   6.268   1.781 -0.1444 -1.1020 -0.0539
10398TIP3    H252686   1.982   6.216   1.873  0.4642  0.1126 -0.0757
10399TIP3   OH252687   6.102   5.968  11.409 -0.5216 -0.3577  0.3121
10399TIP3    H152688   6.086   5.880  11.374 -0.4132 -0.6372  0.9602
10399TIP3    H252689   6.021   6.015  11.393 -1.3399 -1.2047  1.8688
10400TIP3   OH252690   5.433   1.577   5.892  0.3717  0.1818 -0.4815
10400TIP3    H152691   5.363   1.602   5.953 -0.8842 -2.5110 -0.7791
10400TIP3    H252692   5.407   1.615   5.809  0.4871  1.1815 -0.0746
10401TIP3   OH252693   4.591   0.298   2.069 -0.3069  0.2326  0.3329
10401TIP3    H152694   4.519   0.312   2.007 -0.1240 -0.5499 -0.0687
10401TIP3    H252695   4.589   0.374   2.126 -1.0388  0.5372 -0.0924
10402TIP3   OH252696   2.617   0.175  14.414  0.4593 -0.1604 -0.3054
10402TIP3    H152697   2.655   0.253  14.374  0.1218  0.0074 -0.3082
10402TIP3    H252698   2.682   0.146  14.478  1.3661 -0.9211 -1.5659
10403TIP3   OH252699   4.949   6.614   0.377 -0.0736  0.2989 -0.0181
10403TIP3    H152700   4.992   6.641   0.459  0.6647  1.0672 -0.6498
10403TIP3    H252701   4.991   6.532   0.354 -0.4052 -0.0091  0.4654
10404TIP3   OH252702   3.224   6.134  17.080  0.0336 -0.0246 -0.0411
10404TIP3    H152703   3.132   6.127  17.107 -0.2089  1.7420 -0.3234
10404TIP3    H252704   3.219   6.155  16.986  0.7706 -1.4448 -0.4105
10405TIP3   OH252705   1.095   1.859   1.260  0.0398 -0.2812  0.2427
10405TIP3    H152706   1.158   1.790   1.240 -0.3473 -0.1812 -1.4073
10405TIP3    H252707   1.105   1.922   1.188 -2.4053 -0.5880 -0.3997
10406TIP3   OH252708   5.132   4.867   5.625  0.2121 -0.2183  0.3603
10406TIP3    H152709   5.114   4.829   5.712  0.0744  0.3360  0.5763
10406TIP3    H252710   5.165   4.793   5.573  2.9671 -0.0003  1.6782
10407TIP3   OH252711   6.134   2.474   3.518 -0.2032 -0.0288 -0.0327
10407TIP3    H152712   6.169   2.400   3.568 -0.1137  0.2612  0.3387
10407TIP3    H252713   6.040   2.474   3.537  0.0234  0.8366  1.1385
10408TIP3   OH252714   2.540   2.231   4.488 -0.0459  0.2512  0.1636
10408TIP3    H152715   2.549   2.299   4.555  0.7538 -0.8815  1.2217
10408TIP3    H252716   2.497   2.275   4.415 -0.3612  1.6666  1.1846
10409TIP3   OH252717   3.855   5.528  11.790 -0.5184 -0.5539 -0.2688
10409TIP3    H152718   3.800   5.494  11.719  0.2309  0.0120 -1.1188
10409TIP3    H252719   3.942   5.535  11.752  0.1514 -1.3935  1.0635
10410TIP3   OH252720   3.589   2.667   6.403 -0.4229 -0.2313  0.1572
10410TIP3    H152721   3.611   2.612   6.478  0.2600  0.3306  0.3695
10410TIP3    H252722   3.672   2.704   6.375 -0.7173 -0.2241 -0.7117
10411TIP3   OH252723   0.832   0.002   1.649 -0.4013  0.1883  0.3109
10411TIP3    H152724   0.836  -0.004   1.745  0.4306 -0.8233  0.2238
10411TIP3    H252725   0.875   0.086   1.629  1.0929 -0.4632  0.7194
10412TIP3   OH252726   5.969   3.800   1.284  0.3651  0.1219  0.2378
10412TIP3    H152727   6.053   3.765   1.313  0.0615 -0.6846  0.1328
10412TIP3    H252728   5.917   3.808   1.365 -0.2838 -1.6020  0.0073
10413TIP3   OH252729   5.287   2.962   0.809 -0.3315  0.1577 -0.1614
10413TIP3    H152730   5.365   2.997   0.765  0.9190 -0.7382  1.2937
10413TIP3    H252731   5.217   2.974   0.746  1.1878  0.0191 -1.9196
10414TIP3   OH252732   1.112   4.277   1.921 -0.1538  0.0736 -0.0423
10414TIP3    H152733   1.058   4.217   1.973 -0.6025  1.5508  1.2037
10414TIP3    H252734   1.050   4.321   1.863 -0.0129  0.3531  0.0200
10415TIP3   OH252735   6.700   0.331  10.553 -0.4840  0.4646  0.4001
10415TIP3    H152736   6.709   0.349  10.647 -0.0498  0.7943  0.2975
10415TIP3    H252737   6.609   0.303  10.543 -1.0044  2.0176  0.6690
10416TIP3   OH252738   2.910   5.226  16.634  0.2116  0.9403  0.5229
10416TIP3    H152739   2.987   5.183  16.672  0.5997  1.0286 -0.1582
10416TIP3    H252740   2.842   5.215  16.700  1.0631  1.6676  1.5287
10417TIP3   OH252741   2.320   4.008  11.717 -0.6203 -0.5718  0.1632
10417TIP3    H152742   2.297   3.945  11.649  2.3730 -2.7725  1.0665
10417TIP3    H252743   2.312   3.958  11.799 -0.9212  1.0765  1.1697
10418TIP3   OH252744   3.041   3.217   4.580 -0.2639  0.0985 -0.1135
10418TIP3    H152745   3.053   3.126   4.554  2.6482  0.5198 -0.4292
10418TIP3    H252746   3.003   3.260   4.503 -0.2964 -0.5483 -0.4570
10419TIP3   OH252747   4.998   4.342   5.039  0.3790 -0.6799  0.3473
10419TIP3    H152748   4.924   4.280   5.036  1.0611 -1.4470 -1.0957
10419TIP3    H252749   4.971   4.414   4.982  0.5528 -0.7506  0.1758
10420TIP3   OH252750   0.814   1.516  14.750  0.2096 -0.6909  0.0681
10420TIP3    H152751   0.786   1.556  14.668  0.5538  1.1319  0.8024
10420TIP3    H252752   0.898   1.558  14.769 -0.2525 -0.5003  1.7579
10421TIP3   OH252753   1.003   2.765  16.990  0.6049  0.0917 -0.6306
10421TIP3    H152754   0.956   2.711  17.054  1.5083  0.8994  0.7445
10421TIP3    H252755   1.089   2.723  16.982  0.5925  0.1572 -1.0826
10422TIP3   OH252756   1.371   4.581   2.070 -0.2050  0.1608  0.4598
10422TIP3    H152757   1.356   4.598   2.163  0.5104  3.0809  0.0893
10422TIP3    H252758   1.463   4.602   2.056 -0.8913  2.1024 -1.3844
10423TIP3   OH252759   0.791   2.874   3.734 -0.5565  0.9358 -0.4227
10423TIP3    H152760   0.885   2.874   3.716  0.1852  0.1571  3.1309
10423TIP3    H252761   0.754   2.821   3.663  2.3102 -2.9190  0.7610
10424TIP3   OH252762   1.873   0.274   0.827  0.3416 -0.0907  0.0016
10424TIP3    H152763   1.801   0.222   0.863 -0.3337  2.2310  2.1787
10424TIP3    H252764   1.931   0.288   0.902 -0.1347  3.3116 -0.2018
10425TIP3   OH252765   2.642   4.477  15.249 -0.3144  0.3445 -0.4359
10425TIP3    H152766   2.714   4.538  15.238  0.9353 -0.6951  1.5499
10425TIP3    H252767   2.627   4.440  15.162  0.9112  1.2666 -1.0443
10426TIP3   OH252768   2.028   1.677  14.736  0.2138  0.8909  0.3817
10426TIP3    H152769   2.080   1.631  14.670 -1.2237 -0.7872  0.3743
10426TIP3    H252770   2.034   1.621  14.814  0.0283  1.6768  0.9618
10427TIP3   OH252771   5.401   1.611   1.863  0.7137 -0.4043  0.2149
10427TIP3    H152772   5.347   1.532   1.862 -1.2404  0.8597  1.3946
10427TIP3    H252773   5.345   1.677   1.903  1.2013  2.4188 -3.5817
10428TIP3   OH252774   3.568   1.262   4.130 -0.3944  1.3664  0.3049
10428TIP3    H152775   3.640   1.239   4.071 -0.3644  0.5613  0.6506
10428TIP3    H252776   3.579   1.356   4.145  1.4624  0.9950  1.5087
10429TIP3   OH252777   1.989   6.071   2.371 -0.0409  0.5557 -0.4232
10429TIP3    H152778   1.914   6.081   2.429  1.1692  1.1867  1.0607
10429TIP3    H252779   1.990   6.151   2.318 -1.3828 -0.2001 -1.6483
10430TIP3   OH252780   0.956   5.404  11.893 -0.3572 -0.5891 -0.7340
10430TIP3    H152781   0.885   5.469  11.897  1.4037  1.2893  1.9258
10430TIP3    H252782   0.929   5.335  11.952 -0.4378 -0.3575 -0.4990
10431TIP3   OH252783   4.383   6.086   0.464 -0.5265  0.0822 -0.1856
10431TIP3    H152784   4.367   6.174   0.430  0.0961 -0.0377 -0.8207
10431TIP3    H252785   4.296   6.047   0.472 -0.7458  0.4351 -0.7866
10432TIP3   OH252786   3.372   0.640   4.633 -0.1793 -0.1164 -0.2970
10432TIP3    H152787   3.363   0.693   4.712  0.2528  0.7585 -0.8210
10432TIP3    H252788   3.321   0.561   4.651 -1.1823  0.6565  0.3487
10433TIP3   OH252789   4.186   2.204   2.379 -0.5118 -0.5699  0.0914
10433TIP3    H152790   4.113   2.214   2.440  1.0868 -0.8616  2.0929
10433TIP3    H252791   4.242   2.280   2.396 -0.6160 -0.0372 -1.8385
10434TIP3   OH252792   2.950   0.767   0.612  0.1761 -0.2780  0.0481
10434TIP3    H152793   2.987   0.710   0.678  0.3520 -0.3159 -0.0840
10434TIP3    H252794   2.970   0.856   0.642  0.7984 -0.3072 -0.2694
10435TIP3   OH252795   6.605   4.660   4.651  0.3102 -0.2329 -0.2040
10435TIP3    H152796   6.590   4.617   4.567  0.7865 -2.7694  0.9752
10435TIP3    H252797   6.660   4.735   4.629 -1.1166  0.2394 -2.3896
10436TIP3   OH252798   0.763   0.541  16.066 -0.0740 -0.4775  0.0261
10436TIP3    H152799   0.685   0.596  16.060  0.2759 -0.0175 -0.3280
10436TIP3    H252800   0.809   0.556  15.983  0.6253 -0.4013  0.4312
10437TIP3   OH252801   3.698   6.402  15.693  0.0142 -0.3176  0.4851
10437TIP3    H152802   3.682   6.408  15.787 -1.1528  1.9679  0.1919
10437TIP3    H252803   3.668   6.487  15.659  2.0119 -0.4424 -1.7060
10438TIP3   OH252804   3.887   5.816   5.115  0.1048 -0.6257  0.2322
10438TIP3    H152805   3.843   5.775   5.190 -1.8932 -1.0153 -1.1041
10438TIP3    H252806   3.907   5.905   5.145 -0.5170 -0.8207  1.2848
10439TIP3   OH252807   0.230   2.666  15.501 -0.2755  0.0151 -0.1534
10439TIP3    H152808   0.307   2.722  15.505  0.2653 -0.7687  0.9511
10439TIP3    H252809   0.186   2.680  15.585  0.8362 -2.5048  0.9218
10440TIP3   OH252810   0.633   2.504  13.172 -0.1140  0.2972 -0.2470
10440TIP3    H152811   0.611   2.494  13.079  0.7114  2.0149 -0.6589
10440TIP3    H252812   0.555   2.475  13.219 -0.4201 -0.8908 -1.4653
10441TIP3   OH252813   6.102   0.958   5.539 -0.7433 -0.2465 -0.5379
10441TIP3    H152814   6.104   1.021   5.611 -0.7923 -1.7414  0.8015
10441TIP3    H252815   6.184   0.909   5.547 -0.6637 -0.3131 -1.6133
10442TIP3   OH252816   4.725   4.247   4.965  0.7187 -0.4014  0.6165
10442TIP3    H152817   4.710   4.206   4.880 -0.3773 -1.8267  1.4759
10442TIP3    H252818   4.722   4.341   4.948 -0.2409 -0.6826 -0.7897
10443TIP3   OH252819   0.948   5.708   2.933  0.3272 -0.3132 -0.1037
10443TIP3    H152820   1.037   5.742   2.942  0.0816  0.0068  1.1514
10443TIP3    H252821   0.892   5.784   2.947 -0.2221 -1.1115  2.1261
10444TIP3   OH252822   1.684   6.498   2.893 -0.2059  0.5366  0.1208
10444TIP3    H152823   1.711   6.498   2.985  1.8242  2.3173 -0.4433
10444TIP3    H252824   1.756   6.541   2.847 -1.7534  0.7520 -2.1491
10445TIP3   OH252825   3.599   6.784   1.058 -0.4664 -0.8982 -0.0521
10445TIP3    H152826   3.662   6.839   1.105 -1.4944 -1.7303  2.3968
10445TIP3    H252827   3.514   6.821   1.082 -1.0465 -1.8346 -0.6358
10446TIP3   OH252828   3.000   2.133   6.575  0.3780 -0.0944  0.6337
10446TIP3    H152829   2.907   2.148   6.559  0.3936 -1.1618 -0.5370
10446TIP3    H252830   3.002   2.085   6.658 -0.1726 -0.7222  0.2914
10447TIP3   OH252831   4.930   2.888  13.703  0.6111  0.3016 -0.9048
10447TIP3    H152832   4.944   2.804  13.659  2.0599 -0.2473  0.5742
10447TIP3    H252833   4.992   2.947  13.661  1.3245  0.0154 -0.2580
10448TIP3   OH252834   4.511   1.363  15.889 -0.3136  0.6342  0.4374
10448TIP3    H152835   4.488   1.378  15.797  0.2223  0.7788  0.3260
10448TIP3    H252836   4.522   1.268  15.897  0.5085  0.7003  0.1453
10449TIP3   OH252837   5.259   3.048  15.976  0.6226  0.1439 -0.3087
10449TIP3    H152838   5.331   3.060  16.038 -0.8379 -1.5983  1.8064
10449TIP3    H252839   5.261   2.955  15.956 -0.2413  0.3337 -1.2631
10450TIP3   OH252840   1.602   4.725  14.129 -0.1575  0.8540 -0.4678
10450TIP3    H152841   1.520   4.682  14.104 -0.0425  0.3555  0.0217
10450TIP3    H252842   1.577   4.816  14.145 -0.5957  0.7226 -0.4036
10451TIP3   OH252843   0.590   0.165  12.292  0.3403  0.2206  0.1257
10451TIP3    H152844   0.631   0.217  12.361  0.9565 -0.2819  0.1455
10451TIP3    H252845   0.635   0.191  12.212 -1.3574  1.8579 -0.3233
10452TIP3   OH252846   1.683   0.037   0.510 -0.0320 -0.0017 -0.2113
10452TIP3    H152847   1.648  -0.050   0.489  0.6678  0.1984 -2.3574
10452TIP3    H252848   1.759   0.046   0.453 -0.5175  2.3202 -0.5197
10453TIP3   OH252849   6.551   5.404   2.794  0.2523 -0.1235 -0.1018
10453TIP3    H152850   6.603   5.479   2.820  2.9884 -1.9815  0.0523
10453TIP3    H252851   6.596   5.369   2.717 -0.7273 -1.7960  0.0410
10454TIP3   OH252852   3.850   1.922  17.281 -0.4127 -0.2503 -0.1947
10454TIP3    H152853   3.936   1.962  17.297 -0.8879  0.8678 -0.4395
10454TIP3    H252854   3.851   1.843  17.336 -0.4595  1.4361  2.3331
10455TIP3   OH252855   0.117   2.289  15.261 -0.3476  0.1754 -0.0758
10455TIP3    H152856   0.074   2.311  15.178  1.6983 -0.7065 -1.4201
10455TIP3    H252857   0.202   2.334  15.256  0.3848 -1.0571  0.8907
10456TIP3   OH252858   0.635   3.947  12.378  0.0409 -0.2815  0.2859
10456TIP3    H152859   0.701   4.013  12.400  1.3921 -1.5947  0.2279
10456TIP3    H252860   0.588   3.933  12.460 -1.1378  1.7065 -0.0162
10457TIP3   OH252861   2.496   4.050  12.855  0.0141 -0.7167  0.0232
10457TIP3    H152862   2.562   4.036  12.923  1.4741  0.4356 -1.1134
10457TIP3    H252863   2.524   3.994  12.783  0.3235  0.5262 -0.8365
10458TIP3   OH252864   6.758   1.520   2.388  0.5655  0.0556 -0.0150
10458TIP3    H152865   6.848   1.515   2.420 -0.5395 -0.6943  3.1622
10458TIP3    H252866   6.741   1.613   2.380  1.2051  0.2476  0.7302
10459TIP3   OH252867   3.704   6.308  16.606 -0.3036 -0.0597  0.1802
10459TIP3    H152868   3.743   6.313  16.518 -0.5918  0.9229  0.0993
10459TIP3    H252869   3.626   6.255  16.595  0.2140 -0.8060  0.0513
10460TIP3   OH252870   2.666   3.405   4.991  0.5558 -0.5318  0.4558
10460TIP3    H152871   2.714   3.419   5.072 -1.0350  0.8080  1.1850
10460TIP3    H252872   2.628   3.490   4.970  1.2060 -0.7866 -1.8716
10461TIP3   OH252873   0.340   1.419   4.708 -0.3376  0.5609  0.0951
10461TIP3    H152874   0.340   1.323   4.698  1.4731  0.5813 -0.1484
10461TIP3    H252875   0.254   1.438   4.746 -0.4052 -1.2475  0.9305
10462TIP3   OH252876   1.897   0.855   2.456  0.1326 -0.0307 -0.2147
10462TIP3    H152877   1.913   0.949   2.460  1.1279 -0.2051  0.1229
10462TIP3    H252878   1.844   0.843   2.377 -2.1120  1.0822  1.0975
10463TIP3   OH252879   2.294   5.395   6.657  0.7283  0.4779  0.0434
10463TIP3    H152880   2.304   5.318   6.713  0.7233 -0.1406 -0.7853
10463TIP3    H252881   2.370   5.450   6.678  0.2629  0.6591  1.2701
10464TIP3   OH252882   5.101   0.687   5.374  0.4075  0.2629 -0.3492
10464TIP3    H152883   5.023   0.700   5.320  0.7175  1.1259 -0.5977
10464TIP3    H252884   5.068   0.649   5.455 -0.1228 -0.5367 -0.9369
10465TIP3   OH252885   4.230   6.183   5.168  0.8056 -0.0694 -0.1419
10465TIP3    H152886   4.244   6.236   5.089  0.4087  1.6781  0.9531
10465TIP3    H252887   4.250   6.241   5.241 -0.9581 -0.9994  1.1262
10466TIP3   OH252888   2.339   0.731  12.245 -0.5265  0.3369  0.1295
10466TIP3    H152889   2.287   0.695  12.173 -0.2854 -2.0655  1.1261
10466TIP3    H252890   2.424   0.687  12.238 -0.7789 -0.5447  2.3760
10467TIP3   OH252891   3.031   6.369  14.735  0.2063  0.3769 -0.1682
10467TIP3    H152892   2.941   6.369  14.705 -0.2512 -0.9519  1.1675
10467TIP3    H252893   3.035   6.440  14.800  0.1290  0.4193 -0.2096
10468TIP3   OH252894   1.251   6.347   3.647  0.4188  0.4184  0.4320
10468TIP3    H152895   1.278   6.408   3.578  0.1118 -0.0920 -0.1347
10468TIP3    H252896   1.221   6.269   3.601 -1.4455  0.7320  1.0755
10469TIP3   OH252897   2.935   4.929  14.991 -0.4697 -0.3127  0.2421
10469TIP3    H152898   2.997   4.856  14.982 -1.0206 -0.8908  1.0155
10469TIP3    H252899   2.962   4.992  14.924  1.0390 -0.4876  0.6589
10470TIP3   OH252900   2.079   3.791  15.745 -0.4349  0.2492  0.1476
10470TIP3    H152901   2.010   3.773  15.681 -2.1507  2.0228  1.4409
10470TIP3    H252902   2.034   3.836  15.817  1.7405 -0.2147  1.8691
10471TIP3   OH252903   1.898   4.884  14.221  0.0344 -0.2423 -0.2943
10471TIP3    H152904   1.834   4.910  14.154  0.3317 -0.8248 -0.8072
10471TIP3    H252905   1.853   4.899  14.304 -0.1654  0.9564 -0.6065
10472TIP3   OH252906   6.390   4.170  10.481  0.4471  0.3736 -0.1065
10472TIP3    H152907   6.393   4.226  10.404 -1.5791  0.6261 -0.0278
10472TIP3    H252908   6.322   4.208  10.536  0.2085 -1.1855  0.7161
10473TIP3   OH252909   2.314   0.540  11.920  0.3738  0.0652  0.5946
10473TIP3    H152910   2.258   0.618  11.915  0.4904  0.1426  0.5114
10473TIP3    H252911   2.403   0.574  11.922  0.3475  0.0356  3.1180
10474TIP3   OH252912   6.234   5.605  13.473  0.3277  0.3884 -0.2618
10474TIP3    H152913   6.146   5.614  13.510 -0.0085  0.4903 -1.0813
10474TIP3    H252914   6.280   5.685  13.501  0.7985 -0.5966  1.8662
10475TIP3   OH252915   3.244   0.282   1.510  0.3765 -0.0407  0.1513
10475TIP3    H152916   3.284   0.261   1.594  1.0406  0.4682 -0.0365
10475TIP3    H252917   3.150   0.286   1.529  0.7499  3.5986  1.6490
10476TIP3   OH252918   0.959   2.861  13.767 -0.0287  0.1300 -0.1274
10476TIP3    H152919   0.922   2.923  13.703 -0.8668 -0.6218 -0.3742
10476TIP3    H252920   0.960   2.777  13.721  0.1412 -0.2499  0.5688
10477TIP3   OH252921   2.385   0.230   0.093  0.3468  1.0731  0.1584
10477TIP3    H152922   2.418   0.209   0.180  0.6670  2.9859  0.5244
10477TIP3    H252923   2.408   0.154   0.039 -1.4838 -0.9510  2.1304
10478TIP3   OH252924   5.408   4.298   1.347 -0.6090 -0.2522  0.8216
10478TIP3    H152925   5.440   4.214   1.313 -1.3591 -0.8309  1.5341
10478TIP3    H252926   5.438   4.301   1.437  0.9250  1.0559  0.2971
10479TIP3   OH252927   6.620   3.352  13.369  0.1043  0.4078  0.2092
10479TIP3    H152928   6.617   3.422  13.303  1.5781  1.5702  1.3451
10479TIP3    H252929   6.700   3.304  13.348  1.1261  1.4077  1.7609
10480TIP3   OH252930   5.664   2.796   3.370 -0.1627 -0.6980 -0.3638
10480TIP3    H152931   5.720   2.868   3.339 -2.0755  1.5111  1.1082
10480TIP3    H252932   5.586   2.801   3.315 -1.2018 -0.2790  1.1155
10481TIP3   OH252933   5.095   3.799  12.806 -0.1239  0.1507  0.0100
10481TIP3    H152934   5.185   3.801  12.773  0.2095 -0.6008  0.8460
10481TIP3    H252935   5.104   3.817  12.900 -0.9928  1.5815 -0.1689
10482TIP3   OH252936   4.126   4.738  14.563 -0.4826  0.3296 -0.2507
10482TIP3    H152937   4.075   4.815  14.587 -0.8573 -0.2134  0.7037
10482TIP3    H252938   4.132   4.742  14.467 -1.1540  1.1260 -0.2620
10483TIP3   OH252939   4.989   0.232   0.343  0.0307 -0.0252 -0.1632
10483TIP3    H152940   5.021   0.279   0.420  0.1159 -0.6491  0.1873
10483TIP3    H252941   4.980   0.300   0.275  1.6125  0.2594 -0.1172
10484TIP3   OH252942   0.602   6.258  15.764 -0.1094  0.3427  0.0353
10484TIP3    H152943   0.521   6.214  15.736 -0.0319  0.8566 -1.0274
10484TIP3    H252944   0.577   6.307  15.843 -0.3495 -1.0784  0.8589
10485TIP3   OH252945   5.656   5.408  15.375  0.1835 -0.9583 -0.0673
10485TIP3    H152946   5.690   5.418  15.464 -0.0291 -2.1709  0.1557
10485TIP3    H252947   5.703   5.474  15.324  0.5104 -0.4452  0.8841
10486TIP3   OH252948   3.417   6.513  11.709 -0.5854  0.2583  0.1086
10486TIP3    H152949   3.371   6.561  11.778  1.4091 -0.0642  1.7232
10486TIP3    H252950   3.453   6.436  11.754  2.4086  1.0508 -0.8341
10487TIP3   OH252951   3.764   3.210  14.222  0.3809  0.0418 -0.0109
10487TIP3    H152952   3.697   3.153  14.259 -1.3648  0.3018 -2.6055
10487TIP3    H252953   3.841   3.154  14.213 -0.9933 -1.6953 -1.5462
10488TIP3   OH252954   5.034   1.145  14.972 -0.3404 -0.4033  0.3742
10488TIP3    H152955   5.110   1.113  15.021 -0.0282 -1.6142 -0.8806
10488TIP3    H252956   4.993   1.209  15.031  1.5182  0.0961  1.1468
10489TIP3   OH252957   2.544   6.223   3.556 -0.3626  0.0143 -0.0197
10489TIP3    H152958   2.536   6.192   3.466 -2.4574  0.4660 -0.0029
10489TIP3    H252959   2.597   6.156   3.600 -0.0488 -0.6338 -1.3635
10490TIP3   OH252960   4.066   5.394  14.295 -0.0587  1.1757  0.0741
10490TIP3    H152961   4.000   5.402  14.364  0.3297 -2.1178  0.8976
10490TIP3    H252962   4.148   5.418  14.338 -0.0171  0.4488  0.4103
10491TIP3   OH252963   3.102   2.309  15.375  0.1274 -0.3654 -0.2080
10491TIP3    H152964   3.078   2.309  15.282 -0.0631 -0.2097 -0.1580
10491TIP3    H252965   3.197   2.293  15.375  0.5507  1.9415 -0.5468
10492TIP3   OH252966   5.162   4.093   1.371  0.5273  0.1943 -0.1059
10492TIP3    H152967   5.223   4.094   1.445  0.4078  0.4827 -0.0118
10492TIP3    H252968   5.100   4.163   1.390 -0.0067 -0.2849 -0.0576
10493TIP3   OH252969   2.866   5.281  15.319  0.1459  0.0742  0.0682
10493TIP3    H152970   2.937   5.338  15.350 -0.1106  1.0654 -1.1263
10493TIP3    H252971   2.855   5.305  15.227 -0.5291 -1.3435 -0.2272
10494TIP3   OH252972   5.470   6.426   3.324 -0.2706  0.2578 -0.7124
10494TIP3    H152973   5.532   6.381   3.267 -0.1414  0.1302 -0.4741
10494TIP3    H252974   5.506   6.414   3.412 -0.3989  0.5636 -0.6178
10495TIP3   OH252975   1.196   1.647   2.232  0.0115 -0.4188 -0.4751
10495TIP3    H152976   1.244   1.583   2.284  1.4428  1.4140  0.5507
10495TIP3    H252977   1.261   1.684   2.173 -0.2626  1.5455  0.3844
10496TIP3   OH252978   4.789   2.290   5.275  0.0054  0.1762 -0.2748
10496TIP3    H152979   4.830   2.358   5.221  2.6774 -1.9005 -1.0075
10496TIP3    H252980   4.713   2.261   5.225 -2.1387  3.6638  0.7935
10497TIP3   OH252981   4.786   1.031   0.927 -0.5526  0.3107 -0.4566
10497TIP3    H152982   4.805   0.941   0.954 -1.7698  0.0143 -0.5640
10497TIP3    H252983   4.839   1.044   0.848  0.7764  0.2035  0.4138
10498TIP3   OH252984   2.970   3.220   5.260 -0.6376 -0.5211 -0.0855
10498TIP3    H152985   2.953   3.313   5.245 -1.4904 -0.6992 -0.2622
10498TIP3    H252986   3.013   3.191   5.180 -0.6928 -0.3525 -0.1793
10499TIP3   OH252987   2.917   2.870   3.689 -0.8830 -0.2861  0.3081
10499TIP3    H152988   2.937   2.777   3.675  0.1564  0.2057 -1.6033
10499TIP3    H252989   2.908   2.906   3.601 -0.9015  1.5068  1.0356
10500TIP3   OH252990   6.013   6.671   1.764  0.0097 -0.4575 -0.2893
10500TIP3    H152991   6.021   6.582   1.800  0.0415 -0.9336 -1.4363
10500TIP3    H252992   5.945   6.712   1.817  0.7340 -0.8087  0.9434
10501TIP3   OH252993   6.070   5.820   2.023  0.2576  0.1760 -0.1213
10501TIP3    H152994   6.151   5.775   2.047  0.2397  0.2098  0.0037
10501TIP3    H252995   6.072   5.901   2.073  0.0060  0.0413  0.1056
10502TIP3   OH252996   1.655   3.548   2.725 -0.0247 -0.2888  0.7923
10502TIP3    H152997   1.747   3.539   2.751  0.4818 -1.0938 -1.1764
10502TIP3    H252998   1.659   3.586   2.637 -1.6535  1.5600  1.4944
10503TIP3   OH252999   6.630   3.737   0.713 -0.2117  0.1558  0.0438
10503TIP3    H153000   6.591   3.753   0.799 -1.6919 -2.0691 -0.1651
10503TIP3    H253001   6.719   3.772   0.720  0.2649 -1.5139  3.0514
10504TIP3   OH253002   2.945   1.077  14.391  0.8574 -0.2046  0.1681
10504TIP3    H153003   2.889   1.153  14.375 -0.5927 -1.1058  0.8800
10504TIP3    H253004   2.995   1.067  14.310  0.3210  0.8786 -0.3138
10505TIP3   OH253005   2.319   1.857   6.049  0.1779  0.0268 -0.5981
10505TIP3    H153006   2.336   1.776   6.001 -1.7935 -0.6987 -0.1526
10505TIP3    H253007   2.299   1.828   6.138  2.0945  1.2188  0.2439
10506TIP3   OH253008   2.256   5.276   5.251 -0.4887  0.8071 -0.3516
10506TIP3    H153009   2.161   5.290   5.248 -0.3924  1.6485  0.2871
10506TIP3    H253010   2.290   5.352   5.299  0.4259  0.1170  0.1085
10507TIP3   OH253011   0.811   1.228  16.639 -0.2985  0.4585 -0.1572
10507TIP3    H153012   0.748   1.250  16.571 -0.5395  0.1266 -0.0391
10507TIP3    H253013   0.859   1.153  16.605  0.2803  0.9280 -0.3977
10508TIP3   OH253014   4.341   2.098   2.978  0.1963 -0.3775 -0.5202
10508TIP3    H153015   4.263   2.043   2.985  1.0829 -1.5339  0.4942
10508TIP3    H253016   4.396   2.072   3.052  0.4073  2.2791  0.3350
10509TIP3   OH253017   5.300   5.953  16.567  0.0078 -0.5062  0.2550
10509TIP3    H153018   5.274   5.958  16.475 -0.8647 -3.2871  0.3064
10509TIP3    H253019   5.250   6.023  16.610  0.2363  0.6496 -1.3403
10510TIP3   OH253020   1.512   1.610  16.529 -0.1940 -0.5441  0.4896
10510TIP3    H153021   1.503   1.516  16.514  1.0586 -0.4077 -1.2256
10510TIP3    H253022   1.453   1.651  16.465 -0.4549 -0.1374  0.9807
10511TIP3   OH253023   6.203   5.860   2.670 -0.6054 -0.6082  0.5832
10511TIP3    H153024   6.247   5.820   2.745 -2.8675 -0.4460  2.0257
10511TIP3    H253025   6.227   5.953   2.675  1.0937 -0.9849 -0.2414
10512TIP3   OH253026   3.901   2.163  11.444 -0.7952 -0.5869 -0.2007
10512TIP3    H153027   3.825   2.221  11.447  0.4580  1.2468 -2.5333
10512TIP3    H253028   3.976   2.222  11.452  0.4487 -2.1227 -0.4366
10513TIP3   OH253029   3.562   0.695   0.520  0.2526 -0.5544 -0.0463
10513TIP3    H153030   3.565   0.617   0.463  0.1300 -0.0095 -0.8045
10513TIP3    H253031   3.571   0.769   0.460  0.2006  0.0278  0.6576
10514TIP3   OH253032   4.347   1.651   0.354  0.2204 -0.1098  0.5546
10514TIP3    H153033   4.439   1.654   0.380  0.5715  0.4291 -0.7110
10514TIP3    H253034   4.299   1.659   0.437  1.2981  3.6211  0.9140
10515TIP3   OH253035   5.865   0.083  17.117  0.4788  0.0101 -0.1983
10515TIP3    H153036   5.837   0.015  17.178 -1.7710  0.0311 -1.1687
10515TIP3    H253037   5.921   0.038  17.054  0.2513 -0.6444  0.0707
10516TIP3   OH253038   2.668   1.074  13.357  0.4394 -0.2110 -0.2923
10516TIP3    H153039   2.578   1.099  13.378  0.4375  0.0661 -0.6107
10516TIP3    H253040   2.683   1.113  13.271  1.5566  1.4898  0.6581
10517TIP3   OH253041   4.600   6.083   5.914  0.2622 -0.0109  0.1739
10517TIP3    H153042   4.518   6.129   5.895 -0.0998 -0.2604  1.1354
10517TIP3    H253043   4.648   6.142   5.973  2.2311  1.6391 -2.8709
10518TIP3   OH253044   0.836   6.283  14.059 -0.6278 -0.1175  0.4050
10518TIP3    H153045   0.916   6.335  14.048 -0.2290 -0.5308  1.3354
10518TIP3    H253046   0.773   6.345  14.097 -0.2232 -0.2495  1.2950
10519TIP3   OH253047   5.694   1.049  16.142 -0.5387 -0.1836 -0.1399
10519TIP3    H153048   5.633   1.114  16.177 -0.4496  1.0117 -2.1185
10519TIP3    H253049   5.660   1.029  16.055  0.5063 -1.3705 -0.2859
10520TIP3   OH253050   5.089   2.164   3.625 -0.0981 -0.5803  0.1976
10520TIP3    H153051   5.009   2.179   3.574 -0.1633  1.5711  0.8942
10520TIP3    H253052   5.071   2.085   3.675 -1.0200 -1.2442 -1.1323
10521TIP3   OH253053   4.745   4.102   2.753 -0.1733  0.1810 -0.6417
10521TIP3    H153054   4.835   4.109   2.724  0.5292  0.6147  1.5272
10521TIP3    H253055   4.721   4.190   2.781  0.4250 -0.8175  3.4090
10522TIP3   OH253056   3.275   0.539  15.194  0.3237 -0.2117 -0.0164
10522TIP3    H153057   3.243   0.618  15.151 -1.6208 -1.4866 -0.9592
10522TIP3    H253058   3.278   0.562  15.287 -2.4541  0.2661 -0.0013
10523TIP3   OH253059   3.211   2.255  12.809  0.1717  0.3293 -0.2860
10523TIP3    H153060   3.158   2.287  12.737  2.3940  1.2212 -1.5799
10523TIP3    H253061   3.292   2.225  12.768  0.6983 -1.0038  1.6342
10524TIP3   OH253062   4.488   3.154   4.229 -0.4434 -0.6383  0.1408
10524TIP3    H153063   4.524   3.214   4.164 -2.8981 -0.1359 -0.8053
10524TIP3    H253064   4.547   3.160   4.303  0.8183  0.9328 -0.9692
10525TIP3   OH253065   5.805   4.610  12.897 -0.2194 -0.6799 -0.5526
10525TIP3    H153066   5.819   4.705  12.902 -0.4616 -0.6240 -0.9058
10525TIP3    H253067   5.734   4.600  12.833  0.7034 -1.1735 -1.5057
10526TIP3   OH253068   2.499   5.398  14.576 -0.2020  0.5442 -0.2005
10526TIP3    H153069   2.466   5.460  14.641  0.2002 -1.7318  2.2733
10526TIP3    H253070   2.581   5.365  14.613  0.0956 -0.7358 -1.9106
10527TIP3   OH253071   4.150   6.392   4.686 -0.4491 -0.2124 -0.7572
10527TIP3    H153072   4.095   6.365   4.759  0.6187 -0.6445 -0.0992
10527TIP3    H253073   4.107   6.355   4.609 -0.7880 -1.0106 -0.1955
10528TIP3   OH253074   5.674   3.131   5.720  0.2493 -0.7536 -0.4861
10528TIP3    H153075   5.648   3.095   5.635 -1.1486 -1.3417  0.1558
10528TIP3    H253076   5.708   3.055   5.768  0.6022 -0.5161 -0.3612
10529TIP3   OH253077   4.461   4.577  14.418  0.0447  0.3419 -0.2135
10529TIP3    H153078   4.475   4.670  14.400 -0.8025  0.6141  0.4860
10529TIP3    H253079   4.463   4.535  14.332 -0.0431  1.0763 -0.5777
10530TIP3   OH253080   3.820   1.260   4.008 -0.7584 -0.0406  0.2233
10530TIP3    H153081   3.828   1.334   3.948  0.7529  0.1629  0.6663
10530TIP3    H253082   3.812   1.184   3.950 -0.2780  0.2534 -0.2350
10531TIP3   OH253083   2.305   4.052  16.844  0.0211 -0.1364  0.0088
10531TIP3    H153084   2.359   3.974  16.835 -1.2683 -0.9901 -0.6338
10531TIP3    H253085   2.233   4.024  16.901  0.4887  1.1118  1.2418
10532TIP3   OH253086   0.780   5.118   6.551 -0.0272  0.2305 -0.5260
10532TIP3    H153087   0.818   5.139   6.466 -2.3663  1.9453 -1.2191
10532TIP3    H253088   0.711   5.055   6.531  0.4541 -0.5743  0.3178
10533TIP3   OH253089   3.165   0.176  14.343  0.1439 -0.0063 -0.1013
10533TIP3    H153090   3.153   0.168  14.438 -1.0235 -0.6747 -0.2988
10533TIP3    H253091   3.170   0.271  14.328 -1.7396  0.1843  0.3854
10534TIP3   OH253092   0.850   3.310   5.567 -0.6088 -0.3431  0.3531
10534TIP3    H153093   0.933   3.262   5.568 -0.2674  0.2448  1.7417
10534TIP3    H253094   0.870   3.393   5.523 -1.4146 -1.7893 -2.8817
10535TIP3   OH253095   4.774   4.534  11.427 -0.4818 -0.0369 -0.0391
10535TIP3    H153096   4.857   4.511  11.385  0.2828  0.7641  1.0180
10535TIP3    H253097   4.754   4.458  11.481 -0.8360 -0.5534 -0.8828
10536TIP3   OH253098   1.753   6.281  11.660  0.7424 -0.6269 -0.6464
10536TIP3    H153099   1.698   6.334  11.602  1.0262 -0.3832 -0.6914
10536TIP3    H253100   1.757   6.195  11.617 -0.3249 -0.9076 -0.2000
10537TIP3   OH253101   5.666   1.740   4.782 -0.1887  0.5038  0.3395
10537TIP3    H153102   5.692   1.663   4.831 -1.8899 -0.2055  0.1732
10537TIP3    H253103   5.745   1.794   4.776  0.8801 -1.0021  0.8582
10538TIP3   OH253104   4.639   1.840   0.982  0.1377 -0.4704 -0.2967
10538TIP3    H153105   4.709   1.807   1.038 -0.4659 -1.1129  0.0835
10538TIP3    H253106   4.671   1.925   0.951  1.3035 -0.9883 -0.5389
10539TIP3   OH253107   3.413   4.943   1.383 -0.0777  0.3332  0.8037
10539TIP3    H153108   3.461   4.868   1.417  0.5549  1.9628  3.6230
10539TIP3    H253109   3.325   4.910   1.365  0.6170 -1.4181  0.5547
10540TIP3   OH253110   6.059   0.700  11.349  0.2173  0.0719  0.0751
10540TIP3    H153111   6.058   0.764  11.420  1.9145  1.1652 -0.8490
10540TIP3    H253112   6.116   0.738  11.283 -0.7474 -1.2665 -1.5763
10541TIP3   OH253113   2.610   0.852   1.698  0.1147 -0.4290 -0.1133
10541TIP3    H153114   2.567   0.767   1.695  2.4845 -1.6451 -1.8087
10541TIP3    H253115   2.595   0.884   1.787 -0.6726 -2.6910  0.5977
10542TIP3   OH253116   5.490   2.658  16.951  0.7080 -0.3210  0.3907
10542TIP3    H153117   5.529   2.592  17.009  1.9233  0.4089  0.4260
10542TIP3    H253118   5.565   2.707  16.918 -0.0149 -0.3590 -1.3506
10543TIP3   OH253119   3.860   2.602  15.710  0.1077  0.1028  0.1799
10543TIP3    H153120   3.913   2.530  15.675 -0.0397  0.5765 -1.0732
10543TIP3    H253121   3.915   2.643  15.776  1.4092  0.6951 -1.2224
10544TIP3   OH253122   6.579   4.232  12.279 -0.3167  0.1775 -0.1491
10544TIP3    H153123   6.578   4.313  12.227 -0.3508 -0.6433 -1.4736
10544TIP3    H253124   6.493   4.230  12.321 -0.3861  0.7343 -0.2547
10545TIP3   OH253125   1.236   0.019  13.875  0.4086 -0.0869 -0.6013
10545TIP3    H153126   1.300  -0.053  13.875  0.1511 -0.4026  3.3345
10545TIP3    H253127   1.254   0.067  13.956 -2.1685  1.8290 -1.1241
10546TIP3   OH253128   2.809   6.791  14.964 -0.3646  0.0838  0.0989
10546TIP3    H153129   2.833   6.762  14.876 -0.6562  0.0165  0.0420
10546TIP3    H253130   2.863   6.738  15.022  0.3991  0.6810 -0.0648
10547TIP3   OH253131   1.213   5.402   4.514 -0.2598  0.5209  0.0825
10547TIP3    H153132   1.213   5.460   4.590 -0.6823  0.6751 -0.0348
10547TIP3    H253133   1.199   5.461   4.440  1.4527  0.5524 -0.2473
10548TIP3   OH253134   3.732   4.594   5.200  0.4079 -0.0116  0.0537
10548TIP3    H153135   3.812   4.548   5.173  0.5942  2.6617 -4.5613
10548TIP3    H253136   3.759   4.685   5.212 -1.5576  0.5708  0.2926
10549TIP3   OH253137   3.761   2.326  14.353  0.3227  0.4213  0.7272
10549TIP3    H153138   3.791   2.413  14.326 -0.3050  0.6787  0.8399
10549TIP3    H253139   3.729   2.339  14.442  1.9888 -0.3300  1.4548
10550TIP3   OH253140   2.946   6.017  11.533  0.0122 -0.0450 -0.8739
10550TIP3    H153141   2.966   5.955  11.462  0.4279  0.2361 -1.0020
10550TIP3    H253142   3.017   6.081  11.529  0.1993 -0.1978 -0.0112
10551TIP3   OH253143   1.984   6.319  15.556 -0.3680  0.6263 -0.8360
10551TIP3    H153144   1.983   6.370  15.637 -1.8393  0.9020 -0.9989
10551TIP3    H253145   1.919   6.250  15.571  0.8073 -0.5301 -1.0337
10552TIP3   OH253146   4.924   1.625   0.315 -0.0474  0.1306 -0.4402
10552TIP3    H153147   4.916   1.569   0.393 -0.9762 -1.9003 -1.9493
10552TIP3    H253148   4.888   1.709   0.343 -2.9975 -1.3703  0.5799
10553TIP3   OH253149   0.715   6.283  13.128 -0.0161 -0.1862 -0.0662
10553TIP3    H153150   0.756   6.199  13.109  0.6088  0.4480 -1.6048
10553TIP3    H253151   0.778   6.327  13.185  0.5784  0.0115 -0.8580
10554TIP3   OH253152   5.976   0.721   4.272 -0.1309  0.0841 -0.1603
10554TIP3    H153153   5.905   0.657   4.262 -2.3774  2.6102 -0.8651
10554TIP3    H253154   5.954   0.770   4.351  1.4720  0.1353  0.2734
10555TIP3   OH253155   0.761   1.965   2.167 -0.1051 -0.1355 -0.5703
10555TIP3    H153156   0.815   1.894   2.133  0.3261  0.5139 -1.2574
10555TIP3    H253157   0.678   1.955   2.121  0.5570  0.8879 -2.0321
10556TIP3   OH253158   1.040   3.537  15.201  0.4039  0.1544  0.0885
10556TIP3    H153159   1.097   3.570  15.132  0.8921  0.4514  0.6320
10556TIP3    H253160   1.045   3.442  15.194 -1.3626  0.1600 -1.7825
10557TIP3   OH253161   5.567   6.549  11.010 -0.4576 -0.5884  0.5261
10557TIP3    H153162   5.636   6.507  11.062 -0.4371 -0.9346  0.2169
10557TIP3    H253163   5.567   6.640  11.041 -0.2096 -0.7113  0.8910
10558TIP3   OH253164   2.417   3.823   5.154 -0.6169  0.1307 -0.3698
10558TIP3    H153165   2.451   3.736   5.173  0.1474  0.5843  0.3607
10558TIP3    H253166   2.348   3.808   5.089 -1.1041 -1.1048  0.4167
10559TIP3   OH253167   3.028   2.530  15.527  0.2125 -0.8389  0.2064
10559TIP3    H153168   3.070   2.456  15.483 -1.4067 -1.6564  0.0022
10559TIP3    H253169   3.001   2.588  15.455 -0.2080 -0.9690  0.2580
10560TIP3   OH253170   5.493   0.313   3.576  0.4478  0.4908  0.0384
10560TIP3    H153171   5.504   0.219   3.593 -0.5001  0.2295 -0.7303
10560TIP3    H253172   5.512   0.323   3.483 -0.3246  0.9113 -0.0789
10561TIP3   OH253173   2.587   1.726   2.728  0.3289  0.2148 -0.2371
10561TIP3    H153174   2.624   1.716   2.641  1.8567  0.5171  0.3592
10561TIP3    H253175   2.660   1.708   2.788 -0.9811 -1.2168  1.0105
10562TIP3   OH253176   5.060   4.513  15.677  0.5239 -0.1894  0.1580
10562TIP3    H153177   5.063   4.605  15.649  0.6435 -0.4385 -0.6631
10562TIP3    H253178   5.061   4.463  15.595  0.0381 -0.9144  0.5900
10563TIP3   OH253179   0.441   0.502  12.840 -0.2288  0.9897  0.1123
10563TIP3    H153180   0.523   0.475  12.798  0.3635 -1.9828  3.0097
10563TIP3    H253181   0.379   0.432  12.818 -0.6337  0.7610  1.9368
10564TIP3   OH253182   3.822   1.988  13.259  0.3393 -0.0254 -0.1597
10564TIP3    H153183   3.915   2.008  13.272  0.5026  0.1529 -1.5245
10564TIP3    H253184   3.778   2.029  13.334  1.1959  1.2327 -0.3257
10565TIP3   OH253185   6.742   5.408  16.217  0.1297 -0.5076  0.2864
10565TIP3    H153186   6.805   5.463  16.170 -0.4594 -0.9566 -1.0704
10565TIP3    H253187   6.780   5.396  16.303  1.1734  0.4759 -0.0214
10566TIP3   OH253188   4.018   5.516   4.482  0.2792 -0.2468  0.7672
10566TIP3    H153189   3.951   5.571   4.440 -1.8040 -0.7687  3.2500
10566TIP3    H253190   4.042   5.452   4.415  0.0045  1.3932 -0.9357
10567TIP3   OH253191   3.737   3.637   2.045 -0.5405 -0.1270  0.6127
10567TIP3    H153192   3.772   3.569   1.987  0.3054  2.0187 -1.5019
10567TIP3    H253193   3.644   3.615   2.054 -0.3698 -1.3301 -0.3840
10568TIP3   OH253194   5.964   6.205   3.585  0.1512 -0.0947 -0.1602
10568TIP3    H153195   6.000   6.117   3.599 -0.4307 -0.3237 -0.0870
10568TIP3    H253196   5.880   6.190   3.544 -1.0479  0.3186  2.0489
10569TIP3   OH253197   0.777   4.602  12.467  0.7080  0.1355 -0.2470
10569TIP3    H153198   0.710   4.575  12.530  2.0416 -2.0503  0.2899
10569TIP3    H253199   0.737   4.588  12.381 -0.5520  1.6266  0.0859
10570TIP3   OH253200   2.446   5.682  14.676 -0.3877  0.0360  0.2384
10570TIP3    H153201   2.523   5.727  14.711 -0.0742  1.3390 -2.0275
10570TIP3    H253202   2.392   5.663  14.753  0.5827  2.2444  1.5037
10571TIP3   OH253203   1.063   0.363  15.413  0.0751 -0.4184 -0.0733
10571TIP3    H153204   1.042   0.277  15.449  1.3689 -0.6156  0.2617
10571TIP3    H253205   1.155   0.356  15.386  0.3786  1.0491  0.5185
10572TIP3   OH253206   3.143   4.720  17.104  0.4334  0.1231  0.1195
10572TIP3    H153207   3.072   4.665  17.135 -1.0561  1.8105 -0.2189
10572TIP3    H253208   3.106   4.808  17.100  1.9414  0.7203 -1.9502
10573TIP3   OH253209   3.742   2.404  16.485 -0.0292 -0.0353  0.1587
10573TIP3    H153210   3.791   2.417  16.566 -0.9429 -1.7497  0.9921
10573TIP3    H253211   3.655   2.440  16.503  0.1459  0.7487 -0.5050
10574TIP3   OH253212   1.140   6.334  16.295  0.7437  0.0815  0.6520
10574TIP3    H153213   1.149   6.319  16.389  0.9131 -1.4823  0.3952
10574TIP3    H253214   1.228   6.358  16.266  0.1838  3.1769  1.3104
10575TIP3   OH253215   1.456   5.426  13.336 -0.5565 -0.7953  0.1657
10575TIP3    H153216   1.497   5.510  13.357  0.3689 -0.9094 -1.1440
10575TIP3    H253217   1.396   5.411  13.409  0.7131  0.0429  1.4311
10576TIP3   OH253218   6.727   4.990  12.773 -0.1331 -0.2365  0.0737
10576TIP3    H153219   6.671   5.067  12.778 -0.1602 -0.2385 -0.1987
10576TIP3    H253220   6.760   4.978  12.863 -0.8012 -0.4139  0.2959
10577TIP3   OH253221   2.061   5.691   5.110 -0.0352  0.1662 -0.6361
10577TIP3    H153222   2.037   5.619   5.052 -0.6948 -1.0111  1.0631
10577TIP3    H253223   2.153   5.709   5.088 -0.1114 -0.6337 -1.6574
10578TIP3   OH253224   0.287   3.672  13.428 -0.6854  0.5975 -0.2255
10578TIP3    H153225   0.351   3.704  13.365  1.0473 -1.7648  0.2497
10578TIP3    H253226   0.301   3.725  13.506 -1.1972  1.9154 -1.0191
10579TIP3   OH253227   1.022   2.063   3.066  0.0948 -0.3949 -0.5466
10579TIP3    H153228   1.024   1.973   3.101  0.3299 -0.5026 -0.8354
10579TIP3    H253229   1.108   2.075   3.027  0.8611  0.7328  1.4135
10580TIP3   OH253230   5.897   3.605   5.098  0.0198 -0.2772 -0.0223
10580TIP3    H153231   5.840   3.669   5.056 -1.6522 -1.6656  0.0796
10580TIP3    H253232   5.945   3.655   5.164 -1.9067  0.7276  0.6467
10581TIP3   OH253233   5.528   0.625   3.917 -0.6312  0.1135 -0.2399
10581TIP3    H153234   5.529   0.543   3.967 -1.5010  0.3186  0.1360
10581TIP3    H253235   5.435   0.647   3.910 -0.3586  1.5450  0.4410
10582TIP3   OH253236   4.349   2.902   3.829 -0.1986 -0.0657 -0.2596
10582TIP3    H153237   4.420   2.967   3.828  1.3070 -1.5069  4.0081
10582TIP3    H253238   4.386   2.826   3.785  0.3959 -0.3342  0.7066
10583TIP3   OH253239   0.527   3.053  16.493  0.2272  0.2514 -0.0488
10583TIP3    H153240   0.540   3.148  16.499 -1.5478  0.5654 -0.9307
10583TIP3    H253241   0.441   3.038  16.532  0.4506 -0.9835 -0.0129
10584TIP3   OH253242   4.967   2.891  12.981  0.0668  0.0726  0.0073
10584TIP3    H153243   4.891   2.873  12.925 -1.0171  0.7603  1.2372
10584TIP3    H253244   4.935   2.880  13.070  1.4152  0.3767  0.5493
10585TIP3   OH253245   2.853   2.755  17.263  0.7790  0.4787 -0.1122
10585TIP3    H153246   2.886   2.814  17.331  0.5176  0.8439 -0.2993
10585TIP3    H253247   2.758   2.766  17.266  0.7300  0.0375 -0.1225
10586TIP3   OH253248   1.255   6.298   6.789  0.2208 -0.1466 -0.3790
10586TIP3    H153249   1.180   6.265   6.740 -0.9384  1.4760  0.2662
10586TIP3    H253250   1.294   6.220   6.828 -1.9278 -0.8786  0.3900
10587TIP3   OH253251   5.456   1.005   4.233 -0.4253 -0.6320  0.2450
10587TIP3    H153252   5.504   0.957   4.301 -0.7632  0.2099  1.0881
10587TIP3    H253253   5.489   1.094   4.239 -1.3075 -0.2894  0.0894
10588TIP3   OH253254   5.016   0.054  15.522 -0.0703 -0.6433  0.4513
10588TIP3    H153255   5.017   0.089  15.433  1.7109 -0.8065  0.4001
10588TIP3    H253256   5.009   0.131  15.578 -3.2217 -0.6380  0.1543
10589TIP3   OH253257   2.982   4.477   5.531 -0.1016 -0.2804  0.3093
10589TIP3    H153258   2.901   4.460   5.482 -0.4586  0.5379  0.6179
10589TIP3    H253259   2.954   4.526   5.608  0.3176 -2.5169  1.9509
10590TIP3   OH253260   6.696   2.938   2.397 -0.5287 -0.3303  0.0001
10590TIP3    H153261   6.697   3.028   2.430  1.2281 -0.9033  1.5966
10590TIP3    H253262   6.606   2.910   2.408 -1.1881  1.3731 -0.8899
10591TIP3   OH253263   6.475   5.468   1.756 -0.1848  0.1175  0.3179
10591TIP3    H153264   6.508   5.549   1.718 -1.9111 -0.2056 -1.9997
10591TIP3    H253265   6.543   5.441   1.818  0.6437  3.0373  0.7427
10592TIP3   OH253266   0.030   2.893   0.054 -0.2518 -0.0315 -0.4244
10592TIP3    H153267  -0.003   2.809   0.087 -0.5409 -0.1224 -0.9311
10592TIP3    H253268   0.022   2.885  -0.041 -2.2207  1.3618 -0.4059
10593TIP3   OH253269   6.347   1.706  12.103 -0.0224  0.3826 -0.3862
10593TIP3    H153270   6.260   1.738  12.125 -0.2124 -1.3880  1.5506
10593TIP3    H253271   6.390   1.691  12.187  1.4885 -0.5202 -1.2854
10594TIP3   OH253272   3.537   4.857   2.933 -1.1449 -0.7501  0.3801
10594TIP3    H153273   3.462   4.903   2.971 -0.5122 -0.2526  1.0344
10594TIP3    H253274   3.513   4.846   2.841 -0.7045  2.2070 -0.1414
10595TIP3   OH253275   4.280   0.066  12.833 -0.0909  0.3940 -0.2409
10595TIP3    H153276   4.232   0.059  12.915  1.3190 -1.0103  0.4891
10595TIP3    H253277   4.220   0.111  12.774 -0.9403  1.8399  1.6873
10596TIP3   OH253278   5.325   2.854   4.662  0.1959 -0.1799  0.0333
10596TIP3    H153279   5.337   2.780   4.722  0.4527 -1.0644 -1.0788
10596TIP3    H253280   5.323   2.814   4.575  0.2804  1.1243 -0.5853
10597TIP3   OH253281   2.389   4.437  14.846  0.5235  0.0201  0.2053
10597TIP3    H153282   2.478   4.459  14.819  0.5606 -0.7137 -0.2860
10597TIP3    H253283   2.357   4.379  14.777 -0.2469  0.0766  0.5117
10598TIP3   OH253284   1.087   3.726  11.614  0.6211  0.2801  0.7858
10598TIP3    H153285   1.025   3.678  11.669 -0.2732 -0.1228 -0.5465
10598TIP3    H253286   1.149   3.765  11.676 -0.8547  0.5501  2.1412
10599TIP3   OH253287   0.017   2.724   5.582 -0.3284 -0.0515  0.8144
10599TIP3    H153288  -0.026   2.681   5.656 -0.1702 -1.0796  0.3113
10599TIP3    H253289   0.106   2.688   5.581  0.5478  1.9866  1.7913
10600TIP3   OH253290   1.689   6.319  13.091 -0.0399 -0.9116  0.2130
10600TIP3    H153291   1.704   6.365  13.008  2.0387  0.2074  1.1618
10600TIP3    H253292   1.776   6.292  13.119 -0.5216  0.0736  2.7964
10601TIP3   OH253293   5.947   5.939  14.782  0.0673 -0.2008 -0.1867
10601TIP3    H153294   5.997   5.934  14.701 -1.6330 -0.2844 -1.2675
10601TIP3    H253295   5.972   6.023  14.821  0.1348  0.3174 -1.3150
10602TIP3   OH253296   0.525   6.301  14.255 -0.1465  0.0147  0.2345
10602TIP3    H153297   0.594   6.367  14.251  0.8399 -0.9950  0.2890
10602TIP3    H253298   0.571   6.221  14.281 -1.3997 -0.5827  0.6106
10603TIP3   OH253299   0.988   5.466   5.110 -0.0298  0.1102  0.6646
10603TIP3    H153300   1.023   5.377   5.111  1.8680  0.8544  0.8265
10603TIP3    H253301   0.979   5.490   5.202  0.6897  0.5611  0.6196
10604TIP3   OH253302   0.361   4.348   4.474 -0.6198  0.0594  0.5819
10604TIP3    H153303   0.392   4.383   4.390 -0.7007 -0.7264  0.2136
10604TIP3    H253304   0.322   4.423   4.519 -1.7337  0.2141 -0.6317
10605TIP3   OH253305   2.142   1.280   0.415 -0.1674 -0.9632  0.2977
10605TIP3    H153306   2.185   1.270   0.500  0.6553  2.5361  0.3542
10605TIP3    H253307   2.073   1.345   0.430  0.4221  0.2111 -1.8154
10606TIP3   OH253308   0.057   0.485  12.636  0.9771  0.0462 -0.3495
10606TIP3    H153309   0.120   0.422  12.670  1.7415  1.2375  0.4593
10606TIP3    H253310   0.074   0.566  12.684 -1.5625  0.2368  0.3180
10607TIP3   OH253311   6.427   2.753   5.739  1.0875  0.5127 -0.0774
10607TIP3    H153312   6.504   2.759   5.795  1.5217  1.8105 -0.8049
10607TIP3    H253313   6.462   2.743   5.650  0.4243  1.7167 -0.4753
10608TIP3   OH253314   0.335   1.696  17.213  0.0896 -0.0436 -0.0481
10608TIP3    H153315   0.364   1.705  17.304  0.8052  1.0503 -0.3598
10608TIP3    H253316   0.339   1.786  17.179  0.9452 -0.6084 -1.4778
10609TIP3   OH253317   5.740   2.051  17.219  0.6572  0.9297 -0.1738
10609TIP3    H153318   5.781   1.989  17.280 -1.3896 -0.2868  0.0487
10609TIP3    H253319   5.726   2.000  17.139 -1.9231  0.7567  0.3307
10610TIP3   OH253320   6.107   1.595   2.452  0.2964  0.0904  0.2310
10610TIP3    H153321   6.121   1.514   2.403 -1.5865 -2.2905  3.4455
10610TIP3    H253322   6.012   1.604   2.458  0.4935  1.6991  1.2643
10611TIP3   OH253323   3.241   0.178   3.102 -0.1599 -0.4720  0.3265
10611TIP3    H153324   3.261   0.085   3.108  0.8631 -0.1714  1.7160
10611TIP3    H253325   3.151   0.185   3.135  0.9438 -0.5480  3.5007
10612TIP3   OH253326   2.547   1.638  13.164  0.0196 -0.4937  0.0638
10612TIP3    H153327   2.619   1.698  13.144  0.8190 -1.3302  0.3863
10612TIP3    H253328   2.555   1.568  13.099 -0.2767 -0.7824  0.3340
10613TIP3   OH253329   4.735   3.082  12.651  0.4820  0.1695 -0.0416
10613TIP3    H153330   4.742   3.122  12.564 -0.4767 -2.0543 -1.1695
10613TIP3    H253331   4.644   3.054  12.656  0.3019  1.0787  2.0635
10614TIP3   OH253332   4.669   6.140   5.653 -0.3312  0.3962 -0.0711
10614TIP3    H153333   4.729   6.214   5.651 -1.8059  1.5961 -1.0841
10614TIP3    H253334   4.676   6.106   5.742  0.4992  1.6237  0.3455
10615TIP3   OH253335   1.363   4.810   6.459  0.0979 -0.3890  0.3354
10615TIP3    H153336   1.368   4.789   6.553 -0.0666 -0.7875  0.2565
10615TIP3    H253337   1.454   4.826   6.433  0.5163 -3.1003 -0.0729
10616TIP3   OH253338   0.407   3.282   4.890 -0.3835  0.2454  0.1526
10616TIP3    H153339   0.395   3.342   4.964  0.8407 -2.3170  2.4899
10616TIP3    H253340   0.356   3.205   4.912 -0.2962 -0.4188 -1.8724
10617TIP3   OH253341   0.857   6.210   4.476  0.4422  0.1180  0.1230
10617TIP3    H153342   0.840   6.126   4.520 -0.7776  0.0870 -0.3859
10617TIP3    H253343   0.945   6.235   4.505  1.5266 -2.1656 -1.0454
10618TIP3   OH253344   2.441   5.640  11.690 -0.0321  0.3400  0.3196
10618TIP3    H153345   2.391   5.644  11.609  0.1592  0.3787  0.2025
10618TIP3    H253346   2.387   5.685  11.754 -1.4909 -2.1689  0.8980
10619TIP3   OH253347   1.568   3.712  13.496  0.5255  0.1762  0.4469
10619TIP3    H153348   1.594   3.658  13.571  0.0096 -0.5580  0.1063
10619TIP3    H253349   1.599   3.800  13.518  1.4400 -0.2672  0.9842
10620TIP3   OH253350   6.320   6.254  14.343 -0.7614 -0.6585  0.2550
10620TIP3    H153351   6.412   6.244  14.369 -0.1177  2.0051 -0.8215
10620TIP3    H253352   6.276   6.281  14.423 -0.7563 -2.5383  0.9232
10621TIP3   OH253353   5.821   5.243   4.290 -0.5329 -0.4432 -0.0820
10621TIP3    H153354   5.790   5.154   4.303 -2.3811  0.1397 -0.4668
10621TIP3    H253355   5.742   5.297   4.291  0.0726  0.6993 -4.3274
10622TIP3   OH253356   3.745   4.389  16.231  0.0833 -0.0525  0.3374
10622TIP3    H153357   3.738   4.293  16.231 -1.0402  0.0042 -1.7965
10622TIP3    H253358   3.753   4.412  16.139 -1.3626  2.0233  0.7083
10623TIP3   OH253359   1.298   0.343   4.941  0.2017  0.0306 -0.5509
10623TIP3    H153360   1.231   0.279   4.916  0.9482 -0.5187 -1.1551
10623TIP3    H253361   1.295   0.409   4.873  0.7682 -0.3710 -0.9744
10624TIP3   OH253362   6.445   4.626  11.376 -0.3986 -0.2069  0.3874
10624TIP3    H153363   6.361   4.614  11.332 -0.6972 -0.9847  1.1279
10624TIP3    H253364   6.428   4.693  11.442 -0.3883 -0.1991  0.3811
10625TIP3   OH253365   4.264   2.868   4.861  0.6383  0.1609  0.1395
10625TIP3    H153366   4.299   2.915   4.785  0.8084  0.4414  0.3859
10625TIP3    H253367   4.311   2.906   4.936  0.0783  0.2706  0.4366
10626TIP3   OH253368   6.145   6.350   2.146 -0.2024 -0.5450 -0.8021
10626TIP3    H153369   6.174   6.435   2.113 -0.6694 -0.7390 -1.7263
10626TIP3    H253370   6.224   6.311   2.185  0.0776  0.1808 -0.6291
10627TIP3   OH253371   0.794   3.279  16.367  0.1604 -0.2344 -0.3318
10627TIP3    H153372   0.702   3.277  16.393  0.9353  1.7277  2.8134
10627TIP3    H253373   0.792   3.278  16.272 -3.0874 -0.7563 -0.3166
10628TIP3   OH253374   0.476   4.291   5.470 -1.0085 -0.0042  0.2572
10628TIP3    H153375   0.425   4.360   5.428 -1.6366 -0.3212  0.4803
10628TIP3    H253376   0.567   4.315   5.456 -1.2060 -0.3810 -1.7347
10629TIP3   OH253377   0.663   2.366  16.722  0.2713 -0.1262  0.0006
10629TIP3    H153378   0.692   2.452  16.693  1.8032  0.6042  3.4409
10629TIP3    H253379   0.589   2.384  16.780  1.6952 -0.9405  2.1272
10630TIP3   OH253380   6.573   0.405   2.117  0.2255 -0.6702  0.0777
10630TIP3    H153381   6.650   0.451   2.083 -0.6372  0.6140 -0.1679
10630TIP3    H253382   6.551   0.343   2.047  0.4954 -0.4105 -0.2446
10631TIP3   OH253383   6.818   3.970   1.138  0.4238 -0.0565  0.1908
10631TIP3    H153384   6.864   3.966   1.054  0.6866 -0.6751  0.3621
10631TIP3    H253385   6.877   4.020   1.195  1.3021 -1.5914  0.6629
10632TIP3   OH253386   4.299   2.171  11.875  0.6284  0.1788 -0.1823
10632TIP3    H153387   4.341   2.255  11.852  0.3642  0.8161  1.6276
10632TIP3    H253388   4.350   2.139  11.949 -0.7012 -0.1602  0.5795
10633TIP3   OH253389   2.425   6.778  16.578  0.4263  0.3618 -0.0287
10633TIP3    H153390   2.342   6.737  16.556  0.4386  1.3780 -2.0458
10633TIP3    H253391   2.403   6.870  16.593  1.0745  0.4908  0.1553
10634TIP3   OH253392   1.746   4.106  12.836 -0.4134  0.1292 -0.6139
10634TIP3    H153393   1.784   4.023  12.808  0.1838 -0.1472  0.9590
10634TIP3    H253394   1.688   4.131  12.764  1.1232 -0.5057 -2.1181
10635TIP3   OH253395   0.090   2.677  11.583  1.1421  0.0135 -0.7742
10635TIP3    H153396   0.169   2.723  11.554  1.2060 -0.8483 -2.0403
10635TIP3    H253397   0.093   2.593  11.536 -0.8261  0.2135 -1.3076
10636TIP3   OH253398   6.642   5.241  15.524 -0.0056 -0.2422  0.6105
10636TIP3    H153399   6.676   5.197  15.602  0.8480  0.2898  0.5319
10636TIP3    H253400   6.630   5.170  15.460 -1.2907 -0.7783  1.4069
10637TIP3   OH253401   1.108   0.717   1.358 -0.1326 -0.0397  0.4578
10637TIP3    H153402   1.047   0.656   1.316  0.8699 -2.4310  2.3594
10637TIP3    H253403   1.074   0.729   1.446  0.7005  0.7305  0.6873
10638TIP3   OH253404   1.479   0.834   0.245 -0.5766 -0.0758 -0.0343
10638TIP3    H153405   1.485   0.740   0.226 -0.9075 -0.1387  0.1602
10638TIP3    H253406   1.503   0.877   0.163 -2.2390 -0.3447 -0.6883
10639TIP3   OH253407   6.081   4.333  15.419 -0.0095 -0.0124  0.0280
10639TIP3    H153408   6.161   4.383  15.434  1.1152 -1.3513 -1.2746
10639TIP3    H253409   6.050   4.311  15.507  0.9542  0.6866  0.5526
10640TIP3   OH253410   5.738   0.500  15.910 -0.4001  0.3988 -0.6607
10640TIP3    H153411   5.797   0.554  15.857  1.7275 -0.4097  0.8213
10640TIP3    H253412   5.738   0.415  15.866  0.5555  0.0356  0.0055
10641TIP3   OH253413   3.361   5.826   4.539  0.0812  0.3847  0.4306
10641TIP3    H153414   3.416   5.765   4.588 -1.0641  0.5494  1.9405
10641TIP3    H253415   3.314   5.875   4.606 -1.2711  0.8357 -0.8333
10642TIP3   OH253416   3.480   0.362  11.420  0.6705  0.1659  0.1054
10642TIP3    H153417   3.444   0.282  11.382 -1.2500  0.8969  0.3664
10642TIP3    H253418   3.477   0.426  11.349  1.9768  0.1037 -0.0294
10643TIP3   OH253419   6.252   5.748   3.156 -0.0438 -0.1584  0.3057
10643TIP3    H153420   6.216   5.700   3.081  1.4808 -2.2110  0.8457
10643TIP3    H253421   6.336   5.782   3.124 -0.3765  0.8010  0.4366
10644TIP3   OH253422   6.693   4.010   2.979  0.7085  0.3245 -0.0548
10644TIP3    H153423   6.622   3.959   3.019 -0.5231  1.4788 -0.7330
10644TIP3    H253424   6.768   3.997   3.037  0.3699 -2.0945 -0.0994
10645TIP3   OH253425   0.609   2.906   1.270 -0.1690 -0.0171 -0.5953
10645TIP3    H153426   0.641   2.979   1.322 -1.4053 -0.4421  0.8131
10645TIP3    H253427   0.652   2.915   1.186 -0.1517  2.2175 -0.3709
10646TIP3   OH253428   4.324   2.146   1.600  0.0597  0.8944  0.3779
10646TIP3    H153429   4.247   2.197   1.575  0.4975  1.3312 -0.0649
10646TIP3    H253430   4.388   2.163   1.532  0.1712 -0.3397  0.1627
10647TIP3   OH253431   3.288   1.916   3.753 -0.1463  0.9385 -0.5266
10647TIP3    H153432   3.196   1.930   3.731  0.1223  2.0540 -0.9795
10647TIP3    H253433   3.316   1.846   3.694 -0.9839 -0.1728  0.3710
10648TIP3   OH253434   0.777   6.136   3.468  0.0710 -0.2826 -0.0933
10648TIP3    H153435   0.683   6.117   3.470  0.1975 -1.7842 -3.5225
10648TIP3    H253436   0.815   6.076   3.532 -1.3216  0.4585  1.4461
10649TIP3   OH253437   0.288   4.943   3.017 -0.0829 -0.1817  0.7188
10649TIP3    H153438   0.271   4.971   2.927  1.2798 -0.3686  0.3904
10649TIP3    H253439   0.288   4.847   3.013 -1.2197 -0.2031  1.1531
10650TIP3   OH253440   3.550   4.059  13.470 -0.7050 -0.0945 -0.1928
10650TIP3    H153441   3.624   4.008  13.435 -0.4837 -0.5526  0.9197
10650TIP3    H253442   3.544   4.135  13.412  0.9266  0.1762 -0.0384
10651TIP3   OH253443   0.688   6.812   5.513 -0.2288 -0.4325  0.1338
10651TIP3    H153444   0.642   6.734   5.479  1.5394 -1.4421 -0.0173
10651TIP3    H253445   0.728   6.851   5.435 -0.5106  0.2116  0.3158
10652TIP3   OH253446   5.444   3.910  13.036 -0.0530  0.0458  0.2439
10652TIP3    H153447   5.525   3.858  13.030  0.0118  0.0602  0.9071
10652TIP3    H253448   5.375   3.845  13.049 -0.0494  0.0784  0.4369
10653TIP3   OH253449   3.723   5.325  11.646  0.7884  0.1643 -0.4494
10653TIP3    H153450   3.753   5.311  11.556  0.7772  0.7173 -0.5421
10653TIP3    H253451   3.749   5.245  11.693  1.0811  0.0107 -0.8671
10654TIP3   OH253452   0.116   4.478  12.263  0.0723  0.3564  1.0085
10654TIP3    H153453   0.058   4.489  12.338 -1.8985 -0.6217 -0.3174
10654TIP3    H253454   0.081   4.537  12.197  1.0353  0.2916  0.4258
10655TIP3   OH253455   4.747   6.378  12.257 -0.4832 -0.4316  0.2700
10655TIP3    H153456   4.663   6.406  12.221 -0.7270 -0.9261  0.4524
10655TIP3    H253457   4.777   6.308  12.198  0.0048  0.0318 -0.0407
10656TIP3   OH253458   2.380   1.765  14.777  0.3187  1.0736 -0.0965
10656TIP3    H153459   2.399   1.706  14.850 -2.7603 -0.2493 -0.3095
10656TIP3    H253460   2.343   1.843  14.819 -3.3082 -0.4612 -0.2696
10657TIP3   OH253461   0.030   2.746  12.703  0.0601  0.5291 -0.0182
10657TIP3    H153462   0.020   2.667  12.757  0.5315 -1.5098 -2.8381
10657TIP3    H253463   0.067   2.715  12.621  1.6300  3.9209 -0.6728
10658TIP3   OH253464   3.423   0.144  14.670  0.0593 -0.3340  0.0819
10658TIP3    H153465   3.452   0.221  14.622 -0.4088 -0.8529 -1.0271
10658TIP3    H253466   3.495   0.082  14.660  1.3515  0.6498  2.6781
10659TIP3   OH253467   5.949   6.451   1.962  0.1195  0.0051  0.1710
10659TIP3    H153468   5.984   6.382   2.019  1.2564  0.5180  0.1089
10659TIP3    H253469   5.933   6.406   1.879 -0.5961 -0.5216  0.5874
10660TIP3   OH253470   4.636   0.471  13.148 -0.2588  0.1239 -0.6864
10660TIP3    H153471   4.541   0.475  13.139 -0.4777 -2.0701  0.2285
10660TIP3    H253472   4.651   0.449  13.240  1.2688  3.2438 -0.1071
10661TIP3   OH253473   3.213   3.071   3.509  0.1660  0.2246  0.2861
10661TIP3    H153474   3.135   3.071   3.453  1.7157 -1.5138 -1.9643
10661TIP3    H253475   3.245   2.981   3.506  1.3105  0.5280  2.5736
10662TIP3   OH253476   3.423   1.973   0.791  0.2013 -0.5304 -0.5823
10662TIP3    H153477   3.396   1.899   0.845  1.2882 -0.3302  0.2395
10662TIP3    H253478   3.420   1.940   0.701 -0.5243 -1.1934 -0.3129
10663TIP3   OH253479   2.453   1.537  15.341 -0.3782 -0.1589  0.1232
10663TIP3    H153480   2.516   1.474  15.307 -1.1663 -0.1116 -1.4908
10663TIP3    H253481   2.485   1.622  15.310  0.1304  0.1388  1.4353
10664TIP3   OH253482   3.123   3.537   5.825  0.0238  0.5139  0.2803
10664TIP3    H153483   3.153   3.453   5.860  0.8402  0.7795  0.2365
10664TIP3    H253484   3.094   3.586   5.902 -0.0603  0.3483  0.3540
10665TIP3   OH253485   3.244   3.104  12.013  0.0891  0.2458  0.4012
10665TIP3    H153486   3.183   3.106  11.939 -0.6944 -0.4738  1.0176
10665TIP3    H253487   3.251   3.195  12.041 -1.3288  0.2274  0.8323
10666TIP3   OH253488   2.498   6.512   3.124 -0.0400 -0.0170  0.3697
10666TIP3    H153489   2.522   6.601   3.147 -3.0858  1.2991 -1.2208
10666TIP3    H253490   2.451   6.478   3.201 -0.6694  0.4937  0.2137
10667TIP3   OH253491   4.654   6.449  13.899 -0.0818  0.4613 -0.7121
10667TIP3    H153492   4.663   6.447  13.994  0.6760  0.7633 -0.7780
10667TIP3    H253493   4.735   6.488  13.868 -1.2310  2.3822 -1.3594
10668TIP3   OH253494   0.934   2.009   2.617 -0.5086 -0.1860  0.3171
10668TIP3    H153495   0.981   2.045   2.692 -1.2831 -0.6240  1.0075
10668TIP3    H253496   0.875   2.080   2.590  1.5304  0.9017 -1.4380
10669TIP3   OH253497   6.156   4.886  16.768  0.3585  0.2573  0.4455
10669TIP3    H153498   6.069   4.879  16.729 -0.1639  0.1440  1.6296
10669TIP3    H253499   6.185   4.975  16.746  0.2341  0.0731 -0.5125
10670TIP3   OH253500   0.492   3.161  14.534 -0.4123 -0.1674 -0.1756
10670TIP3    H153501   0.523   3.081  14.490 -0.0363 -0.1247  0.0113
10670TIP3    H253502   0.487   3.226  14.464  0.8065  0.0785 -0.0499
10671TIP3   OH253503   5.201   5.291  13.809 -0.1812  0.2507  0.0871
10671TIP3    H153504   5.182   5.359  13.745 -0.8883 -0.5318 -0.5458
10671TIP3    H253505   5.122   5.237  13.811  1.0416 -1.6176 -0.7862
10672TIP3   OH253506   6.165   0.379   0.675 -0.2625  0.2837 -0.4374
10672TIP3    H153507   6.104   0.305   0.674 -1.1113  0.9675 -0.3743
10672TIP3    H253508   6.248   0.342   0.706 -0.8870 -0.4878  0.3352
10673TIP3   OH253509   6.614   6.255   4.387 -0.4300  0.6252  0.7297
10673TIP3    H153510   6.674   6.326   4.409  1.5048 -0.5148 -0.6472
10673TIP3    H253511   6.545   6.297   4.336  1.1931  1.4025 -0.8845
10674TIP3   OH253512   5.414   0.580  14.551 -0.0429 -0.2521  0.3866
10674TIP3    H153513   5.482   0.632  14.593 -0.4853  0.4732  0.2260
10674TIP3    H253514   5.351   0.561  14.621 -0.4023  0.3177  0.2214
10675TIP3   OH253515   2.696   5.329  10.936 -0.1633 -0.1709 -0.1194
10675TIP3    H153516   2.703   5.352  11.028  0.9160 -0.0820 -0.2097
10675TIP3    H253517   2.679   5.234  10.936 -1.3488  0.0419  0.1920
10676TIP3   OH253518   2.198   4.129  11.311  0.8510 -0.1147  0.2929
10676TIP3    H153519   2.171   4.220  11.323 -1.0537 -0.5114 -0.6571
10676TIP3    H253520   2.271   4.133  11.250  0.8513  0.7919  0.3415
10677TIP3   OH253521   1.589   6.578   0.416  0.1125  0.2667  0.4748
10677TIP3    H153522   1.596   6.484   0.431  0.1948  0.3363  0.8772
10677TIP3    H253523   1.581   6.586   0.321  0.0970 -0.1460  0.4373
10678TIP3   OH253524   0.296   6.768  16.734 -0.6969 -0.0773 -0.2644
10678TIP3    H153525   0.340   6.791  16.653 -0.3720 -1.5674 -0.5213
10678TIP3    H253526   0.215   6.818  16.733 -0.9739 -0.5474 -1.7902
10679TIP3   OH253527   5.368   3.247   3.820  0.5269  0.4092  0.5133
10679TIP3    H153528   5.299   3.216   3.880  0.2745 -1.4076 -0.6780
10679TIP3    H253529   5.438   3.182   3.829  0.2364 -0.2076 -1.5893
10680TIP3   OH253530   2.505   2.236  12.374 -0.1510  0.1019 -0.3182
10680TIP3    H153531   2.501   2.243  12.469  0.9376  0.7400 -0.3055
10680TIP3    H253532   2.414   2.227  12.346 -0.4526 -0.4516  0.8045
10681TIP3   OH253533   0.512   3.550   2.861 -0.2439  0.6808  0.0905
10681TIP3    H153534   0.572   3.475   2.857  0.9364  1.6569 -1.3998
10681TIP3    H253535   0.569   3.626   2.870 -1.2603  1.6169 -1.0903
10682TIP3   OH253536   5.390   4.935   3.402 -0.3730  0.1133 -0.3159
10682TIP3    H153537   5.427   4.913   3.316  1.8256 -0.5854  0.7720
10682TIP3    H253538   5.393   4.854   3.451  0.3554  0.9839  1.1134
10683TIP3   OH253539   1.022   1.035  13.570 -0.3356 -0.2140  0.2035
10683TIP3    H153540   0.944   1.087  13.593 -0.3675  0.1802 -0.7642
10683TIP3    H253541   1.033   0.975  13.643  0.0401  1.5562  1.6326
10684TIP3   OH253542   1.182   1.420   4.446  0.1212 -0.0827 -0.4397
10684TIP3    H153543   1.195   1.402   4.353  2.7547 -0.7575  0.0143
10684TIP3    H253544   1.220   1.506   4.460 -0.1448 -0.0393  0.0578
10685TIP3   OH253545   0.579   5.154  11.866 -0.1781 -0.5906 -0.2413
10685TIP3    H153546   0.664   5.136  11.906 -0.5391 -0.1199  0.7505
10685TIP3    H253547   0.517   5.148  11.938 -0.6864  1.5664 -0.4503
10686TIP3   OH253548   5.141   6.348   5.197 -0.2500  0.7066  0.0112
10686TIP3    H153549   5.205   6.408   5.158 -1.0324  0.3547 -1.9042
10686TIP3    H253550   5.074   6.339   5.129 -0.6760 -1.4733  0.7068
10687TIP3   OH253551   3.132   5.493   5.749  0.6046 -0.3722 -0.5486
10687TIP3    H153552   3.181   5.479   5.830 -1.2560  1.0409  0.8748
10687TIP3    H253553   3.102   5.405   5.724  0.1537 -0.6704  0.9873
10688TIP3   OH253554   6.276   0.841  12.394  0.4791  0.4375  0.4874
10688TIP3    H153555   6.290   0.870  12.484 -0.7704  1.8602  0.2570
10688TIP3    H253556   6.205   0.897  12.362  0.6100 -0.3480 -1.2404
10689TIP3   OH253557   6.803   0.282  11.787 -0.3237  0.4978  0.1399
10689TIP3    H153558   6.883   0.268  11.838 -0.3864  2.5534  0.8398
10689TIP3    H253559   6.814   0.369  11.747 -1.6685  0.2781 -0.7601
10690TIP3   OH253560   5.214   5.234   5.111 -1.0203  0.3742  0.0132
10690TIP3    H153561   5.218   5.144   5.079  1.9393  0.7180 -0.7290
10690TIP3    H253562   5.208   5.288   5.033 -0.3922  0.9259  0.3366
10691TIP3   OH253563   3.634   3.175   0.396 -0.1847 -0.3504 -0.1382
10691TIP3    H153564   3.610   3.221   0.476 -0.5621 -2.6674  1.1199
10691TIP3    H253565   3.606   3.085   0.411 -0.4545 -0.7707 -2.9709
10692TIP3   OH253566   1.966   3.667   1.123 -0.1305  0.2534  0.5417
10692TIP3    H153567   2.029   3.650   1.193  2.3321 -1.5211 -1.9891
10692TIP3    H253568   1.999   3.744   1.078 -1.6303  1.3101  1.2082
10693TIP3   OH253569   1.435   1.564   5.425 -0.3589  0.4850  0.4618
10693TIP3    H153570   1.394   1.591   5.343  0.0878 -0.4977 -0.1054
10693TIP3    H253571   1.488   1.639   5.451 -0.5867  0.8488 -0.0929
10694TIP3   OH253572   4.666   3.443   3.850 -0.1192  0.4660 -0.0971
10694TIP3    H153573   4.757   3.430   3.821 -0.1918 -0.1405 -0.0549
10694TIP3    H253574   4.669   3.425   3.944  0.1460  2.5684  0.3165
10695TIP3   OH253575   3.626   5.891  15.674 -0.1909  0.0386  0.1196
10695TIP3    H153576   3.551   5.907  15.617 -0.6776 -2.0359  0.1191
10695TIP3    H253577   3.685   5.965  15.658 -0.5410 -0.2312 -2.7027
10696TIP3   OH253578   5.091   3.734  13.701 -0.6079  0.2237  0.6175
10696TIP3    H153579   5.104   3.790  13.625  2.6468 -1.1086  0.0891
10696TIP3    H253580   5.102   3.792  13.776 -1.9761  1.1837  0.0852
10697TIP3   OH253581   4.209   4.711  12.949 -0.2313  0.7149  0.3000
10697TIP3    H153582   4.227   4.628  12.905  0.3621  0.0410  1.7849
10697TIP3    H253583   4.193   4.686  13.040 -0.2845  2.2100  0.6997
10698TIP3   OH253584   1.009   6.352  13.472 -0.4569  0.1669  0.3763
10698TIP3    H153585   1.082   6.399  13.513  2.4364 -1.0380 -3.0997
10698TIP3    H253586   0.939   6.417  13.467  1.1894  2.1122  1.6709
10699TIP3   OH253587   2.591   0.622   4.715  0.1924  0.1664 -0.5946
10699TIP3    H153588   2.546   0.585   4.639  1.8301  3.2143 -3.1644
10699TIP3    H253589   2.675   0.575   4.717 -0.5297 -1.1199  0.4229
10700TIP3   OH253590   5.126   3.450   5.836 -0.2693  0.2956 -0.0898
10700TIP3    H153591   5.060   3.504   5.792  0.9769  2.1785  0.2874
10700TIP3    H253592   5.082   3.417   5.913 -0.9387  1.1419 -0.0942
10701TIP3   OH253593   2.546   4.386  13.214  0.0445  0.4838  0.2607
10701TIP3    H153594   2.632   4.344  13.207 -0.2628  0.2300 -2.7351
10701TIP3    H253595   2.507   4.349  13.293  1.7975 -1.0641  0.4341
10702TIP3   OH253596   1.364   0.478  14.361  0.4060  0.4628 -0.4026
10702TIP3    H153597   1.439   0.538  14.365  0.5988  0.2156 -0.2766
10702TIP3    H253598   1.377   0.419  14.435 -0.7128  1.3539  0.5163
10703TIP3   OH253599   4.285   5.093   6.184  0.2952 -0.0071 -0.2351
10703TIP3    H153600   4.275   5.000   6.165 -0.2689 -0.5645  2.5547
10703TIP3    H253601   4.367   5.100   6.232 -0.1602  0.7796  0.4577
10704TIP3   OH253602   5.892   2.322  12.153  0.6658  0.0333 -0.3457
10704TIP3    H153603   5.964   2.322  12.091  0.3133 -0.0734 -0.7576
10704TIP3    H253604   5.916   2.389  12.217  0.5285  0.9133 -1.1936
10705TIP3   OH253605   4.522   1.634  14.281 -0.2726  0.1068  0.4679
10705TIP3    H153606   4.586   1.697  14.250 -0.8970  0.9432  0.8649
10705TIP3    H253607   4.570   1.551  14.284  0.6451  0.6206  0.2677
10706TIP3   OH253608   0.341   4.607   0.703 -0.6297  0.5035 -0.9449
10706TIP3    H153609   0.370   4.621   0.793 -0.3816  0.3319 -0.9982
10706TIP3    H253610   0.403   4.543   0.667  0.4498  2.0475 -1.8520
10707TIP3   OH253611   6.739   3.012  13.911 -0.0802  0.4000  0.1285
10707TIP3    H153612   6.729   3.105  13.932 -0.6628  0.3821 -0.0585
10707TIP3    H253613   6.650   2.982  13.893  0.1073 -0.1985  0.2061
10708TIP3   OH253614   1.780   0.454  13.869  0.3419 -0.5052 -0.0312
10708TIP3    H153615   1.772   0.528  13.928 -0.1667  0.2319 -1.0123
10708TIP3    H253616   1.873   0.430  13.872  0.8691  1.3320 -1.1015
10709TIP3   OH253617   4.985   0.548   5.590 -0.2121 -0.6614 -0.1302
10709TIP3    H153618   4.892   0.544   5.568 -0.6023  0.3414  1.2586
10709TIP3    H253619   4.989   0.523   5.682  0.8239 -0.1091 -0.0157
10710TIP3   OH253620   6.005   4.043   5.726  0.1967 -0.0603 -0.2265
10710TIP3    H153621   5.928   4.015   5.678 -0.0850  0.9097 -0.3617
10710TIP3    H253622   5.975   4.118   5.777  0.9101 -0.0299  0.1492
10711TIP3   OH253623   3.724   5.263   4.377 -0.3416 -0.2983 -0.3714
10711TIP3    H153624   3.799   5.258   4.317 -0.6260  0.6682 -0.8159
10711TIP3    H253625   3.648   5.244   4.323 -0.3660 -1.9837  0.2271
10712TIP3   OH253626   4.523   6.079  13.945 -0.4108 -0.4041  0.1393
10712TIP3    H153627   4.610   6.092  13.983  0.2261 -0.3974 -1.2815
10712TIP3    H253628   4.540   6.061  13.853 -1.8519 -1.5185  0.0642
10713TIP3   OH253629   3.608   6.495   1.008  0.2408 -0.0523 -0.0225
10713TIP3    H153630   3.599   6.589   1.020 -1.0245  0.0123 -1.3464
10713TIP3    H253631   3.573   6.457   1.089  2.7385  0.6302  1.4396
10714TIP3   OH253632   0.724   2.667  11.651  0.7824 -0.1878 -0.0208
10714TIP3    H153633   0.686   2.745  11.692  0.3212  0.4009 -1.5281
10714TIP3    H253634   0.781   2.630  11.718 -0.0897  0.6499  1.2079
10715TIP3   OH253635   0.315   5.515  16.095  0.1831  0.0566 -0.0061
10715TIP3    H153636   0.383   5.503  16.028  0.4812  1.4978  0.0179
10715TIP3    H253637   0.364   5.530  16.176 -0.1559  0.9890  0.0307
10716TIP3   OH253638   0.179   1.804   3.412 -0.2873 -0.1109 -0.2213
10716TIP3    H153639   0.088   1.807   3.439 -0.8283  0.3465 -2.0447
10716TIP3    H253640   0.210   1.895   3.418 -0.6167  0.1235 -1.7354
10717TIP3   OH253641   0.099   3.437   4.356  0.0030 -0.1116  0.1498
10717TIP3    H153642   0.022   3.459   4.409  0.9797  0.1311  1.4976
10717TIP3    H253643   0.063   3.409   4.272 -1.5288  0.6045  0.5493
10718TIP3   OH253644   2.737   5.815   2.166 -0.4438  0.1782 -0.1801
10718TIP3    H153645   2.662   5.874   2.172  0.1014  0.8179  0.3949
10718TIP3    H253646   2.775   5.832   2.080 -0.2955  0.6522 -0.0197
10719TIP3   OH253647   1.836   4.003   6.448  0.3902 -0.2470  0.0946
10719TIP3    H153648   1.851   3.973   6.538 -0.7919 -0.7764  0.1280
10719TIP3    H253649   1.830   3.922   6.396  0.5780  0.0418 -0.3791
10720TIP3   OH253650   3.920   5.887   5.792 -0.1774  0.1230  0.0060
10720TIP3    H153651   3.992   5.898   5.856 -0.8898 -0.5562  0.9347
10720TIP3    H253652   3.915   5.972   5.748 -1.3414  1.4854  2.6410
10721TIP3   OH253653   6.009   0.685  12.484  0.1981  0.2138 -0.0961
10721TIP3    H153654   6.009   0.743  12.408 -0.3874 -1.6151 -1.5191
10721TIP3    H253655   6.093   0.639  12.479  0.2044  0.1683  0.4281
10722TIP3   OH253656   0.066   2.834  14.843  0.5626 -0.2394  0.2859
10722TIP3    H153657   0.053   2.881  14.925  1.6842 -1.5606  1.2339
10722TIP3    H253658   0.055   2.901  14.775  0.2210  0.9802  1.5163
10723TIP3   OH253659   1.327   2.286  13.177  0.1982  0.2839 -0.0429
10723TIP3    H153660   1.413   2.308  13.213 -0.4369  0.5544  1.3605
10723TIP3    H253661   1.311   2.196  13.208  0.0016  0.2149 -0.3471
10724TIP3   OH253662   4.869   2.660  12.706  0.3076 -0.4260  0.4343
10724TIP3    H153663   4.807   2.659  12.778  0.8144 -2.9139  0.8667
10724TIP3    H253664   4.955   2.661  12.748  0.5990 -0.7364 -0.1486
10725TIP3   OH253665   2.698   0.564   4.357  1.4170 -0.2475  0.0357
10725TIP3    H153666   2.752   0.613   4.419  2.8200 -2.0509  0.2857
10725TIP3    H253667   2.760   0.509   4.310 -0.2695 -2.8682  0.7877
10726TIP3   OH253668   1.401   4.031   0.031 -0.0679  0.6628 -0.5084
10726TIP3    H153669   1.496   4.023   0.045 -0.3255  1.9780  2.2989
10726TIP3    H253670   1.390   4.117  -0.010 -0.0930  0.7256 -0.3699
10727TIP3   OH253671   5.425   6.398  11.487 -0.6613 -0.4357 -0.3607
10727TIP3    H153672   5.466   6.470  11.534  2.0244 -1.5548 -0.9255
10727TIP3    H253673   5.417   6.328  11.552 -2.3160 -0.0267 -0.0867
10728TIP3   OH253674   6.785   5.335  13.540  0.4943 -0.2922 -0.2177
10728TIP3    H153675   6.693   5.332  13.514  0.4077  3.0252 -0.5447
10728TIP3    H253676   6.833   5.336  13.457  0.5615  2.2680 -0.2152
10729TIP3   OH253677   5.090   1.461   1.142  0.6923 -0.6890 -0.2480
10729TIP3    H153678   5.169   1.498   1.182  1.0612 -1.3245 -0.3829
10729TIP3    H253679   5.022   1.526   1.160  1.5823  0.6247 -1.4748
10730TIP3   OH253680   4.524   2.372   5.954 -0.7905  0.0404 -0.2819
10730TIP3    H153681   4.463   2.352   6.025  1.0145 -0.0387  1.2814
10730TIP3    H253682   4.541   2.466   5.962  2.2091 -0.5997  1.7321
10731TIP3   OH253683   5.539   3.735   4.221  0.4311  0.0070  0.1967
10731TIP3    H153684   5.472   3.804   4.224  2.7314  2.3443  0.0158
10731TIP3    H253685   5.519   3.678   4.295 -0.6741  1.7071  1.2380
10732TIP3   OH253686   2.142   1.845  13.854  0.3330 -0.1651  0.5880
10732TIP3    H153687   2.108   1.923  13.897  1.6286  0.3852  0.6360
10732TIP3    H253688   2.173   1.876  13.769 -0.5003 -0.9031  0.0133
10733TIP3   OH253689   6.189   1.480  15.180  0.9171 -0.1305  0.4352
10733TIP3    H153690   6.198   1.567  15.219  0.0465  0.0199  0.3223
10733TIP3    H253691   6.277   1.457  15.151  1.3596  0.2376  1.4765
10734TIP3   OH253692   5.571   4.233  16.872 -0.2769 -0.5894 -0.3172
10734TIP3    H153693   5.641   4.216  16.935  0.2297  0.1240 -0.6790
10734TIP3    H253694   5.554   4.327  16.880  0.9095 -0.1578 -2.3627
10735TIP3   OH253695   3.279   4.969  13.434 -0.4762 -0.2763 -0.1147
10735TIP3    H153696   3.207   4.942  13.378 -0.5150 -0.7164  0.1492
10735TIP3    H253697   3.266   5.063  13.446  0.2697  0.0842 -1.9260
10736TIP3   OH253698   1.499   4.368  13.428  0.2202 -0.0631 -0.2059
10736TIP3    H153699   1.580   4.397  13.471 -0.1166  0.2684  0.2086
10736TIP3    H253700   1.429   4.407  13.480 -0.1948  2.0663 -2.2687
10737TIP3   OH253701   2.003   0.589   2.515 -0.3986  0.0074 -0.4070
10737TIP3    H153702   2.057   0.667   2.502  0.7271 -1.2653 -3.8841
10737TIP3    H253703   1.913   0.619   2.506 -0.0187  1.1023 -0.5489
10738TIP3   OH253704   2.730   1.278   2.241 -0.1889 -0.3107  0.1287
10738TIP3    H153705   2.810   1.283   2.187  1.3049 -1.2834  2.1921
10738TIP3    H253706   2.698   1.368   2.243 -1.4736 -0.5554 -4.0564
10739TIP3   OH253707   1.418   4.274   4.330  0.1101  0.3928 -0.1341
10739TIP3    H153708   1.336   4.225   4.331 -0.1404  0.8097 -0.1651
10739TIP3    H253709   1.426   4.305   4.240 -0.2790  1.3232  0.1470
10740TIP3   OH253710   5.821   2.186  16.517  0.3535  0.4482  0.1304
10740TIP3    H153711   5.816   2.257  16.453 -0.2354  1.4252  1.2377
10740TIP3    H253712   5.830   2.231  16.602 -0.1138 -0.7949  0.8545
10741TIP3   OH253713   2.321   1.629  13.644  0.5967 -0.3306  0.3052
10741TIP3    H153714   2.397   1.674  13.682 -0.8410  2.3021  0.2111
10741TIP3    H253715   2.333   1.638  13.549  0.8434 -1.0857  0.2643
10742TIP3   OH253716   5.738   6.083  12.581 -0.2835 -0.0551 -0.3264
10742TIP3    H153717   5.733   6.013  12.646 -0.4331 -1.1281 -1.4836
10742TIP3    H253718   5.762   6.161  12.632  2.6758 -1.4895  0.5861
10743TIP3   OH253719   6.039   1.831  14.269  0.0192 -0.4980  0.2849
10743TIP3    H153720   6.016   1.912  14.224  1.2049  0.0817  0.7261
10743TIP3    H253721   6.123   1.848  14.310 -1.0153 -1.0400  2.7112
10744TIP3   OH253722   5.070   3.237  15.941 -0.1876  0.7092 -0.4782
10744TIP3    H153723   5.006   3.201  16.002  0.4943  1.0897  0.4686
10744TIP3    H253724   5.151   3.191  15.961 -0.0417  0.5723 -1.3543
10745TIP3   OH253725   1.574   2.508   1.224 -0.1632 -0.0326 -0.0214
10745TIP3    H153726   1.638   2.445   1.257 -0.1978 -0.1348 -0.1516
10745TIP3    H253727   1.502   2.505   1.286  0.1479  0.4007  0.3714
10746TIP3   OH253728   0.937   1.813  14.013 -0.4818 -0.0256 -0.1120
10746TIP3    H153729   0.896   1.754  13.950  0.3555 -1.3012  0.5367
10746TIP3    H253730   1.030   1.793  14.009 -0.3287  0.3898  1.0097
10747TIP3   OH253731   0.876   1.000  14.945 -0.1182  0.4364 -0.0591
10747TIP3    H153732   0.805   1.007  15.009 -0.3125 -0.7401 -0.1293
10747TIP3    H253733   0.832   0.989  14.861  0.1207 -2.4458  0.1534
10748TIP3   OH253734   5.066   3.093   2.481 -0.3022 -0.2135  0.3871
10748TIP3    H153735   4.998   3.055   2.537 -1.1456 -1.1626 -1.2328
10748TIP3    H253736   5.135   3.026   2.479 -0.5502 -0.4551 -0.2001
10749TIP3   OH253737   5.101   5.098   2.166 -0.2112  1.0375 -0.4908
10749TIP3    H153738   5.176   5.046   2.137 -0.2744  0.2970  0.6492
10749TIP3    H253739   5.140   5.178   2.201  0.2059 -0.2171  1.9924
10750TIP3   OH253740   4.627   2.277   5.708  0.1945 -0.6080 -0.1751
10750TIP3    H153741   4.646   2.363   5.669  2.3085 -1.1711 -0.4302
10750TIP3    H253742   4.570   2.297   5.782 -0.4445  0.8863 -1.0377
10751TIP3   OH253743   1.657   1.824  11.910 -0.4803 -0.1463 -0.1016
10751TIP3    H153744   1.647   1.815  11.815 -0.9589  0.3387 -0.1032
10751TIP3    H253745   1.730   1.885  11.921  0.0153 -0.7261 -0.1470
10752TIP3   OH253746   5.336   5.752   0.857 -0.1653  0.1444  0.0671
10752TIP3    H153747   5.304   5.751   0.948 -0.5418 -0.7986 -0.0669
10752TIP3    H253748   5.363   5.661   0.841  0.0123  0.3397 -0.7249
10753TIP3   OH253749   6.354   2.661   2.668  0.6369 -0.7409 -0.5357
10753TIP3    H153750   6.285   2.595   2.669  0.9698 -1.1005 -1.0548
10753TIP3    H253751   6.416   2.630   2.602  0.0319  0.8612 -1.9042
10754TIP3   OH253752   5.954   2.038   3.086  0.1232  0.3208 -0.5637
10754TIP3    H153753   5.944   2.088   3.168 -0.8662  1.1994 -1.2043
10754TIP3    H253754   5.959   1.947   3.114 -1.2609  0.5264  0.4250
10755TIP3   OH253755   5.377   0.271   1.911  0.4908  0.2901  0.4472
10755TIP3    H153756   5.302   0.222   1.942  0.6317 -0.3294 -0.1794
10755TIP3    H253757   5.401   0.328   1.985  1.6247 -2.0764  1.9501
10756TIP3   OH253758   4.852   6.363  15.668 -0.2029  0.3649 -0.2840
10756TIP3    H153759   4.758   6.364  15.684 -0.0475  0.1737  0.6937
10756TIP3    H253760   4.889   6.417  15.739  0.4335  0.2862 -0.5491
10757TIP3   OH253761   3.162   4.837   1.332 -0.1570 -0.1492  0.2293
10757TIP3    H153762   3.078   4.802   1.362 -1.1408  1.8050 -0.1260
10757TIP3    H253763   3.167   4.811   1.240  0.1666 -1.2044  0.5318
10758TIP3   OH253764   6.036   4.920   1.602  0.6246  0.3309  0.6951
10758TIP3    H153765   6.088   4.880   1.671 -0.0018 -0.2971  0.8046
10758TIP3    H253766   6.059   5.013   1.606  1.7525  0.0613  0.7275
10759TIP3   OH253767   5.115   2.133  15.094  0.2425  0.4251  0.0334
10759TIP3    H153768   5.106   2.048  15.137 -0.8091 -0.2107 -1.3882
10759TIP3    H253769   5.209   2.144  15.081  0.4311 -0.1816  0.8832
10760TIP3   OH253770   5.750   3.935   5.673 -0.5868  0.5992 -0.2742
10760TIP3    H153771   5.766   3.947   5.767  1.3016 -1.4765 -0.2964
10760TIP3    H253772   5.694   3.857   5.668  0.1374  0.1206 -0.9301
10761TIP3   OH253773   5.933   3.181  13.204 -0.3967 -0.0738  0.1482
10761TIP3    H153774   5.986   3.154  13.280  0.0864  0.6152  0.0621
10761TIP3    H253775   5.998   3.208  13.139 -0.8133 -0.6355 -0.5038
10762TIP3   OH253776   1.835   4.595   2.497  0.4320 -0.4388  0.0703
10762TIP3    H153777   1.780   4.663   2.535 -0.8624 -1.1540 -0.4969
10762TIP3    H253778   1.834   4.524   2.560  0.6828 -0.4717  0.0398
10763TIP3   OH253779   1.614   5.245   5.250 -0.0676 -0.2304  0.2872
10763TIP3    H153780   1.634   5.316   5.310 -1.8800  1.2282 -0.7880
10763TIP3    H253781   1.536   5.204   5.287 -1.3423  0.8311 -1.1649
10764TIP3   OH253782   3.343   5.867   1.432 -0.0238 -0.0315  0.2004
10764TIP3    H153783   3.307   5.784   1.402  2.6869 -1.7811  1.6734
10764TIP3    H253784   3.430   5.872   1.392  0.1131  1.7770  0.6724
10765TIP3   OH253785   6.563   5.336   6.624 -0.2786 -0.1444  0.3923
10765TIP3    H153786   6.557   5.240   6.620 -0.4413 -0.0980 -0.4045
10765TIP3    H253787   6.578   5.363   6.534  2.7275  0.3811  0.9727
10766TIP3   OH253788   0.592   2.222  14.036  0.0525 -0.1289  0.3301
10766TIP3    H153789   0.670   2.278  14.032 -0.2945  0.2764 -0.8806
10766TIP3    H253790   0.528   2.274  14.085 -0.5287  0.8574 -1.4634
10767TIP3   OH253791   1.980   2.091  14.511 -0.8263  0.3303  0.2352
10767TIP3    H153792   2.055   2.147  14.491 -0.8918  0.0573 -0.8004
10767TIP3    H253793   1.985   2.076  14.605 -0.1261  1.1018  0.3230
10768TIP3   OH253794   1.304   0.371  16.695  1.2902 -0.4056 -0.3614
10768TIP3    H153795   1.254   0.300  16.736 -0.2545  0.4962 -0.6186
10768TIP3    H253796   1.369   0.327  16.641  0.5467 -1.6158 -0.2804
10769TIP3   OH253797   0.329   3.189  11.621 -0.0029  0.0190 -0.4391
10769TIP3    H153798   0.343   3.199  11.527  2.6581  0.0688 -0.0719
10769TIP3    H253799   0.268   3.115  11.629 -1.4399  0.9821 -2.2254
10770TIP3   OH253800   1.127   3.945  12.778  0.6102 -0.3469  0.4173
10770TIP3    H153801   1.199   3.884  12.793  0.9282  0.2588  1.4332
10770TIP3    H253802   1.170   4.026  12.749  0.2369 -0.4109 -0.3277
10771TIP3   OH253803   3.249   0.130   3.568 -0.8357 -0.4839  0.2819
10771TIP3    H153804   3.255   0.043   3.528  0.6613 -0.5327  0.5653
10771TIP3    H253805   3.254   0.114   3.662  0.1363 -0.0596  0.3137
10772TIP3   OH253806   1.858   4.340   1.068 -0.5972 -0.6298  0.8631
10772TIP3    H153807   1.904   4.260   1.041 -0.5224 -0.5391  0.7219
10772TIP3    H253808   1.905   4.411   1.023 -1.6488 -0.6384 -0.2836
10773TIP3   OH253809   5.784   4.719  16.235  0.2342  0.1902  0.6138
10773TIP3    H153810   5.731   4.796  16.212 -0.1324 -0.5552 -1.1637
10773TIP3    H253811   5.836   4.747  16.310 -0.5822  1.8647  0.5875
10774TIP3   OH253812   2.323   6.412  11.728  0.6251  0.0272  0.1786
10774TIP3    H153813   2.306   6.392  11.820 -0.9583  0.2758 -0.0438
10774TIP3    H253814   2.240   6.447  11.695  2.0710  2.8814 -0.5741
10775TIP3   OH253815   2.699   0.239   2.061 -0.3300  0.6095 -0.2951
10775TIP3    H153816   2.637   0.167   2.069 -0.8847  1.0493 -0.6048
10775TIP3    H253817   2.657   0.312   2.108  0.3301  0.6619  0.2183
10776TIP3   OH253818   6.342   1.279   0.669 -0.5107  0.1322 -0.1499
10776TIP3    H153819   6.290   1.270   0.749 -0.2013  0.1615  0.0560
10776TIP3    H253820   6.369   1.190   0.647 -0.5924  0.1244 -0.2190
10777TIP3   OH253821   3.250   4.939   3.668  0.0330 -0.0897  0.4044
10777TIP3    H153822   3.331   4.977   3.701 -0.0725  0.7279 -0.2791
10777TIP3    H253823   3.182   5.002   3.691 -0.1976 -0.0477 -0.3648
10778TIP3   OH253824   3.424   5.181   3.416 -0.4386  0.0931  0.0482
10778TIP3    H153825   3.515   5.204   3.434 -0.6285  1.5781 -0.8186
10778TIP3    H253826   3.430   5.097   3.369  0.3353 -0.9849  2.0374
10779TIP3   OH253827   2.122   5.430   2.047  0.9521 -0.1701 -0.4859
10779TIP3    H153828   2.208   5.467   2.064  0.8224  0.4169 -1.0941
10779TIP3    H253829   2.115   5.428   1.951  0.5551 -0.8259 -0.4483
10780TIP3   OH253830   3.004   6.365  15.688 -0.0647 -0.6249  0.6972
10780TIP3    H153831   2.987   6.440  15.745  1.7260 -0.4610  1.0552
10780TIP3    H253832   3.029   6.404  15.604 -0.3614 -0.8341  0.5135
10781TIP3   OH253833   1.913   5.942   1.845 -0.1885 -0.1749 -0.3209
10781TIP3    H153834   1.849   5.889   1.892 -0.1423 -1.6922 -1.9129
10781TIP3    H253835   1.862   6.013   1.807 -0.3046  0.7734  1.5519
10782TIP3   OH253836   5.994   1.254  11.658  0.7710 -0.0073 -0.5864
10782TIP3    H153837   6.055   1.200  11.708 -0.7221 -2.2279 -1.1167
10782TIP3    H253838   5.957   1.313  11.723  1.6597 -0.2936  0.2023
10783TIP3   OH253839   2.391   3.005   2.219  0.2261  0.3535  0.4762
10783TIP3    H153840   2.486   3.006   2.230  0.4315 -2.4647 -0.5548
10783TIP3    H253841   2.377   3.023   2.126 -0.2461  0.8164  0.6358
10784TIP3   OH253842   5.017   2.122   5.329  0.5030  0.2996 -0.5999
10784TIP3    H153843   4.938   2.177   5.331  0.6895  0.5522  0.0795
10784TIP3    H253844   5.077   2.168   5.272 -0.0894 -0.2436 -1.6791
10785TIP3   OH253845   2.903   1.958   0.478  0.3421  0.0312  0.3123
10785TIP3    H153846   2.955   2.030   0.443 -0.1992 -0.0148 -0.6040
10785TIP3    H253847   2.812   1.983   0.462  0.1780 -1.3484 -1.0531
10786TIP3   OH253848   3.469   3.032   1.723  0.2209  0.3258 -0.2286
10786TIP3    H153849   3.390   2.985   1.750  0.0204  0.2072 -1.0038
10786TIP3    H253850   3.443   3.125   1.724  0.1606  0.3085 -0.1956
10787TIP3   OH253851   6.514   5.730   0.334 -0.0358  0.0741  0.2645
10787TIP3    H153852   6.593   5.758   0.381 -0.0228 -1.9903  1.5159
10787TIP3    H253853   6.525   5.767   0.246  1.3247  1.5532  1.0273
10788TIP3   OH253854   0.285   1.707  15.942 -0.2736 -1.0504  0.7357
10788TIP3    H153855   0.308   1.700  16.035 -0.2597 -2.1119  0.6602
10788TIP3    H253856   0.330   1.634  15.900  0.1652 -0.2508 -0.2035
10789TIP3   OH253857   1.158   4.458   4.734 -0.4560  0.5845  0.0823
10789TIP3    H153858   1.230   4.435   4.793 -0.1224  0.4146 -0.3866
10789TIP3    H253859   1.162   4.553   4.727  1.0105  0.4149 -1.5579
10790TIP3   OH253860   2.121   5.541   5.623  0.2252  0.0013 -0.2487
10790TIP3    H153861   2.201   5.541   5.676  0.0066  0.7391  0.0847
10790TIP3    H253862   2.050   5.542   5.688 -0.0769 -1.7781 -0.5209
10791TIP3   OH253863   4.550   0.138  12.172  0.1342  0.4457 -0.0546
10791TIP3    H153864   4.542   0.224  12.213  0.2378  0.1130  0.6732
10791TIP3    H253865   4.482   0.085  12.214  0.1048  0.1559 -0.4650
10792TIP3   OH253866   5.602   5.597  12.421 -0.4735 -0.3535 -0.4871
10792TIP3    H153867   5.542   5.532  12.457 -0.4225 -1.2778 -1.9954
10792TIP3    H253868   5.689   5.567  12.445 -0.4012 -1.3302 -1.8925
10793TIP3   OH253869   1.542   3.044   5.436  0.2742 -0.2269 -0.2458
10793TIP3    H153870   1.491   3.061   5.515 -0.7431 -1.5200 -0.6006
10793TIP3    H253871   1.628   3.081   5.454 -0.6180  1.5391  0.5822
10794TIP3   OH253872   1.839   1.698   5.605 -0.5212 -0.1951  0.1503
10794TIP3    H153873   1.810   1.722   5.517  1.8230 -0.9487 -0.8836
10794TIP3    H253874   1.894   1.771   5.633 -1.6737  0.2716  1.2095
10795TIP3   OH253875   3.314   3.010   2.101  0.0190  0.4057  0.1080
10795TIP3    H153876   3.239   3.063   2.128 -0.8302 -0.9547  0.4817
10795TIP3    H253877   3.286   2.969   2.020  0.9374  1.0589 -0.5561
10796TIP3   OH253878   1.299   1.952   4.452  0.2260 -0.2451 -0.6394
10796TIP3    H153879   1.276   1.892   4.381 -2.6321 -0.0307  0.0402
10796TIP3    H253880   1.259   2.035   4.428 -0.7744 -0.1604  1.1940
10797TIP3   OH253881   3.809   3.747   3.302 -0.3235  0.7184 -0.2334
10797TIP3    H153882   3.861   3.801   3.363  0.0588  0.3604 -0.2362
10797TIP3    H253883   3.823   3.787   3.217  0.3552  0.3334 -0.3110
10798TIP3   OH253884   4.814   6.400  12.531  0.8833  0.5446  0.0077
10798TIP3    H153885   4.761   6.478  12.547  0.6422  0.1785  1.0701
10798TIP3    H253886   4.794   6.376  12.441  0.8265  1.6046 -0.2730
10799TIP3   OH253887   5.023   5.305   0.026 -0.1269  0.3995 -0.0253
10799TIP3    H153888   5.030   5.400   0.015 -0.0955  0.2167 -1.7934
10799TIP3    H253889   4.955   5.293   0.092  0.7249  1.6734  1.1083
10800TIP3   OH253890   3.719   4.737   4.764 -0.3998  0.4014  0.5530
10800TIP3    H153891   3.680   4.693   4.839 -0.1823 -1.1406 -0.2313
10800TIP3    H253892   3.776   4.672   4.724  0.8468  1.7549  0.0598
10801TIP3   OH253893   0.140   0.538  11.986  0.3930 -0.6381 -0.0098
10801TIP3    H153894   0.145   0.551  12.081 -1.6490  0.2460 -0.0203
10801TIP3    H253895   0.047   0.545  11.965  0.9606  0.4098 -2.2729
10802TIP3   OH253896   5.767   1.157   5.424 -0.1869 -0.2834  0.4672
10802TIP3    H153897   5.860   1.177   5.425 -0.3992  0.8787 -0.6802
10802TIP3    H253898   5.728   1.227   5.371 -1.1923 -2.8770 -2.3478
10803TIP3   OH253899   2.414   2.738  16.012  0.2810 -0.3935 -0.1057
10803TIP3    H153900   2.401   2.791  16.091  1.9035 -0.4581  0.2218
10803TIP3    H253901   2.326   2.709  15.988 -0.5805  2.0658 -0.0514
10804TIP3   OH253902   0.231   4.052  11.962 -0.1045  0.0763  0.5569
10804TIP3    H153903   0.227   4.065  12.056 -2.1250  1.2769  0.3433
10804TIP3    H253904   0.139   4.052  11.934  0.4358 -1.1026 -1.2950
10805TIP3   OH253905   5.086   5.762  11.926 -0.0542  0.3329  0.5006
10805TIP3    H153906   5.042   5.760  12.011 -0.8427 -1.2742  0.0715
10805TIP3    H253907   5.015   5.754  11.863  0.8061 -2.0032 -0.2074
10806TIP3   OH253908   0.326   6.552   1.095 -0.1810 -0.3972  0.8891
10806TIP3    H153909   0.266   6.478   1.083  0.9514 -1.0574 -0.9061
10806TIP3    H253910   0.300   6.590   1.178 -3.5497 -0.2360 -0.1692
10807TIP3   OH253911   0.639   4.010  14.908  0.1888  0.3288 -0.1394
10807TIP3    H153912   0.707   3.948  14.883  0.2251 -0.1926  1.1783
10807TIP3    H253913   0.684   4.073  14.965 -0.4691 -0.1684  0.9477
10808TIP3   OH253914   4.292   0.451  17.039 -0.1644  0.5134 -0.3160
10808TIP3    H153915   4.354   0.479  16.970 -0.5354  1.0792 -0.4263
10808TIP3    H253916   4.263   0.533  17.079 -1.0719  0.2576 -0.4561
10809TIP3   OH253917   2.902   6.019  15.979  0.2828  0.2843 -0.3637
10809TIP3    H153918   2.894   5.926  15.955  0.0763  0.0663  0.5595
10809TIP3    H253919   2.851   6.028  16.059  0.0303  1.2718 -0.6304
10810TIP3   OH253920   1.005   2.329  10.770 -0.7900 -0.5573  0.1394
10810TIP3    H153921   0.980   2.389  10.840 -0.8597  0.1559 -0.4906
10810TIP3    H253922   0.926   2.319  10.717 -0.7779 -1.2060  0.2397
10811TIP3   OH253923   0.453   5.998   0.505  0.1542 -0.4058  0.0298
10811TIP3    H153924   0.472   5.926   0.445 -2.1018  0.7901 -2.2521
10811TIP3    H253925   0.494   6.074   0.464 -1.6661  0.4870 -0.1755
10812TIP3   OH253926   3.043   6.001   4.288  0.1113  0.2177 -0.5820
10812TIP3    H153927   3.123   5.969   4.246 -0.0844  0.6178 -1.2606
10812TIP3    H253928   3.073   6.036   4.372  0.7877  1.2184 -1.2336
10813TIP3   OH253929   1.683   1.498   2.453 -0.2853 -0.3058 -0.2952
10813TIP3    H153930   1.611   1.545   2.411 -0.0120  0.2646 -0.1306
10813TIP3    H253931   1.755   1.503   2.390 -0.0582  0.0430 -0.0069
10814TIP3   OH253932   3.689   1.135  12.123 -0.1449  0.4121  0.0247
10814TIP3    H153933   3.608   1.139  12.072  1.2501 -1.0516 -2.3762
10814TIP3    H253934   3.713   1.227  12.136 -0.3771  0.8399 -2.2877
10815TIP3   OH253935   3.152   2.007   1.437  0.4410 -0.4077 -0.5817
10815TIP3    H153936   3.141   1.993   1.531  3.3432  0.7839 -0.0056
10815TIP3    H253937   3.162   1.919   1.400  0.9788 -0.7936  0.4788
10816TIP3   OH253938   6.277   2.966  10.796 -0.3089 -0.0881  0.5600
10816TIP3    H153939   6.359   2.941  10.753  0.1813  1.3230  0.6367
10816TIP3    H253940   6.215   2.977  10.725 -0.3025 -0.6690  0.4606
10817TIP3   OH253941   6.159   4.869  15.464 -0.2010 -0.2151 -0.0425
10817TIP3    H153942   6.178   4.806  15.533  0.2420 -0.3456 -0.2804
10817TIP3    H253943   6.070   4.849  15.436  0.3726 -1.5456 -0.9659
10818TIP3   OH253944   1.790   4.475  16.380  0.1059  0.0657 -0.5041
10818TIP3    H153945   1.696   4.462  16.393  0.2589 -2.3476 -1.5738
10818TIP3    H253946   1.823   4.493  16.468 -1.4556  1.7470 -0.2289
10819TIP3   OH253947   2.617   2.147  13.414 -0.0533  0.8601 -0.3686
10819TIP3    H153948   2.561   2.210  13.370 -0.1713  0.1538 -1.2454
10819TIP3    H253949   2.611   2.068  13.360  1.9903  0.8510 -0.6195
10820TIP3   OH253950   6.020   2.346   5.819  0.3105 -0.2877  0.0672
10820TIP3    H153951   5.931   2.346   5.785  0.5634 -0.7981 -0.6004
10820TIP3    H253952   6.072   2.388   5.751  0.1857  2.3968  1.5578
10821TIP3   OH253953   6.681   0.968   1.159 -0.2927  0.2963 -0.3357
10821TIP3    H153954   6.688   0.873   1.170 -0.0471  0.4212  0.6657
10821TIP3    H253955   6.771   0.997   1.142 -0.2016  0.4682  0.4135
10822TIP3   OH253956   5.859   6.161   5.036 -0.0893  0.8531  0.1433
10822TIP3    H153957   5.773   6.123   5.053 -0.6968  0.9079 -2.5988
10822TIP3    H253958   5.910   6.138   5.113 -3.0006  2.2712  2.5743
10823TIP3   OH253959   4.134   4.595  16.641 -0.1091  0.2861  0.0766
10823TIP3    H153960   4.162   4.620  16.553  2.3255 -1.1883  0.3817
10823TIP3    H253961   4.202   4.630  16.698  0.5266 -2.3136  0.9672
10824TIP3   OH253962   0.068   4.734  12.837  0.3149 -0.7084 -0.8435
10824TIP3    H153963   0.029   4.670  12.778  0.2792 -0.5210 -1.0234
10824TIP3    H253964  -0.006   4.789  12.865  0.5475  0.0422 -1.6845
10825TIP3   OH253965   2.477   5.540   1.726 -0.1437  0.1073  0.0164
10825TIP3    H153966   2.570   5.532   1.706 -0.1408  0.7897 -0.2555
10825TIP3    H253967   2.434   5.550   1.641 -0.4583 -0.1270  0.1446
10826TIP3   OH253968   1.832   2.207   5.127 -0.2802 -0.3479 -0.2336
10826TIP3    H153969   1.787   2.122   5.120 -2.2343  0.6898 -0.5225
10826TIP3    H253970   1.880   2.216   5.044  3.0969 -2.8721  1.3111
10827TIP3   OH253971   3.430   3.061  17.087  0.4292 -0.0574  0.7140
10827TIP3    H153972   3.398   3.148  17.109  1.9798  0.9106 -0.7124
10827TIP3    H253973   3.523   3.064  17.107  0.4237 -1.5211  1.0222
10828TIP3   OH253974   3.600   1.554  14.836 -0.1407  0.0393 -0.4877
10828TIP3    H153975   3.638   1.582  14.753 -0.1613  2.4964  0.2957
10828TIP3    H253976   3.659   1.486  14.868 -0.3286 -1.1843 -2.6532
10829TIP3   OH253977   1.093   5.103   2.034 -0.2348 -0.1523 -0.2012
10829TIP3    H153978   1.034   5.028   2.041 -0.6500  0.2699  1.1380
10829TIP3    H253979   1.035   5.179   2.027  0.1251  0.2538  0.9691
10830TIP3   OH253980   2.590   6.392   5.940  0.3816  0.6034  0.1903
10830TIP3    H153981   2.565   6.441   6.019  0.7096  0.4690  0.3776
10830TIP3    H253982   2.623   6.458   5.880  1.0174  0.5884  0.5198
10831TIP3   OH253983   0.310   5.405  16.964  0.0158  0.4311  0.0346
10831TIP3    H153984   0.390   5.376  16.918 -0.1290  2.4623 -1.5391
10831TIP3    H253985   0.256   5.326  16.968 -0.1990  0.2574 -3.8558
10832TIP3   OH253986   3.274   6.722   3.382 -0.2027 -0.0479 -0.0195
10832TIP3    H153987   3.306   6.742   3.294  2.4066 -0.5586  0.7887
10832TIP3    H253988   3.287   6.628   3.392 -2.3574 -0.3582  0.2250
10833TIP3   OH253989   2.383   2.207   1.524  0.4028 -0.7436 -0.1538
10833TIP3    H153990   2.307   2.153   1.503 -0.1346  0.0385 -0.2325
10833TIP3    H253991   2.365   2.241   1.611 -0.0385  0.6612 -0.7897
10834TIP3   OH253992   4.553   6.349   3.430  0.6805 -0.1398 -0.0029
10834TIP3    H153993   4.641   6.386   3.425 -0.0009  1.1761 -3.7027
10834TIP3    H253994   4.513   6.392   3.506  2.0080  2.0179 -0.4782
10835TIP3   OH253995   3.381   5.323   2.469  0.0224 -0.2530 -0.4569
10835TIP3    H153996   3.330   5.253   2.509  1.2060 -1.0791 -0.3979
10835TIP3    H253997   3.452   5.279   2.423  0.5096  0.8753 -0.8095
10836TIP3   OH253998   0.821   5.015   1.783  0.1158  0.5840 -0.4490
10836TIP3    H153999   0.892   4.997   1.722  0.4467  2.1572 -0.5407
10836TIP3    H254000   0.825   4.944   1.846  0.4623 -0.4676 -1.6204
10837TIP3   OH254001   0.657   5.122   5.075  0.0236 -0.9333  0.0753
10837TIP3    H154002   0.624   5.211   5.089  1.7016 -0.5536  1.7349
10837TIP3    H254003   0.645   5.107   4.981  0.3987  1.3118 -0.3606
10838TIP3   OH254004   6.082   6.707   2.773 -0.6867  0.4738 -0.0195
10838TIP3    H154005   5.988   6.695   2.761 -0.0640 -2.3065 -2.8811
10838TIP3    H254006   6.109   6.763   2.701 -0.1010  1.0976  0.6731
10839TIP3   OH254007   4.452   6.798  15.087  0.0741 -0.3401  0.1792
10839TIP3    H154008   4.513   6.727  15.068  1.9221  1.0033  0.9517
10839TIP3    H254009   4.377   6.782  15.030  1.3748 -1.7389 -1.1524
10840TIP3   OH254010   5.852   3.872  12.076 -0.7472 -0.2178  0.0506
10840TIP3    H154011   5.802   3.875  11.994 -0.2669  0.0324 -0.2363
10840TIP3    H254012   5.859   3.779  12.096  0.3871 -0.3566 -0.9668
10841TIP3   OH254013   3.296   2.493  14.972  0.3830 -0.1871  0.0766
10841TIP3    H154014   3.303   2.539  15.056  1.3403 -1.1161  0.5134
10841TIP3    H254015   3.354   2.541  14.913 -1.1212  1.1223 -0.3637
10842TIP3   OH254016   6.036   5.461   4.559  0.3916 -0.2180  0.0418
10842TIP3    H154017   5.971   5.392   4.571 -0.7579  0.2568 -2.9814
10842TIP3    H254018   5.984   5.542   4.563  1.5639  0.4787  2.4413
10843TIP3   OH254019   5.670   4.615   5.882  0.4183  0.0880  0.3697
10843TIP3    H154020   5.674   4.524   5.853  0.9434  0.6331 -1.3291
10843TIP3    H254021   5.627   4.661   5.809  1.3613  1.4169  0.6307
10844TIP3   OH254022   2.527   3.258   1.686 -0.1697  0.0445 -0.4474
10844TIP3    H154023   2.606   3.204   1.679 -1.1145 -1.2235 -1.3067
10844TIP3    H254024   2.529   3.314   1.608  0.7142  1.1660  0.3534
10845TIP3   OH254025   3.758   6.496   2.134 -0.7643  0.3455  0.9084
10845TIP3    H154026   3.667   6.503   2.103 -0.9201 -1.4868  0.8563
10845TIP3    H254027   3.807   6.554   2.077 -1.7785  0.6493  0.3202
10846TIP3   OH254028   3.016   3.926  17.058 -0.1092  0.5304 -0.6512
10846TIP3    H154029   3.067   3.847  17.036 -0.3599  0.4064 -0.7906
10846TIP3    H254030   3.080   3.986  17.096  0.1878  0.4613 -1.0364
10847TIP3   OH254031   3.849   6.196  12.819 -0.3065  0.2687 -0.3043
10847TIP3    H154032   3.897   6.241  12.888 -1.5120 -2.5524  2.5430
10847TIP3    H254033   3.916   6.162  12.760  0.9491  0.0416  1.2377
10848TIP3   OH254034   3.485   6.543  11.281  0.1042 -0.3013  0.3933
10848TIP3    H154035   3.396   6.576  11.297  0.8649  1.3979  1.2188
10848TIP3    H254036   3.498   6.555  11.186 -0.9512 -1.6185  0.0676
10849TIP3   OH254037   2.455   3.458  12.239 -0.3104  0.1879 -0.2885
10849TIP3    H154038   2.369   3.476  12.202 -0.8489 -1.5791  0.0495
10849TIP3    H254039   2.497   3.400  12.176  0.8384  1.4344 -0.6863
10850TIP3   OH254040   4.291   3.594   2.621  0.0861  0.2947  0.2303
10850TIP3    H154041   4.201   3.584   2.591  0.1122 -0.1091  0.2835
10850TIP3    H254042   4.322   3.675   2.580  0.1183 -0.2465 -0.8189
10851TIP3   OH254043   5.361   1.667  11.800 -0.0500  0.3012  0.2329
10851TIP3    H154044   5.319   1.605  11.859  1.1148  0.0624  0.8201
10851TIP3    H254045   5.359   1.623  11.714 -0.4310  0.0285  0.3786
10852TIP3   OH254046   2.082   1.391   4.005  0.5690  0.3905  0.0276
10852TIP3    H154047   2.094   1.393   4.100 -1.0107  0.5495  0.2331
10852TIP3    H254048   2.153   1.335   3.973  0.1171 -1.0367  1.4549
10853TIP3   OH254049   1.932   1.770   3.520  0.5963 -0.1311  0.3312
10853TIP3    H154050   1.932   1.708   3.447  0.5295 -1.0218  1.0826
10853TIP3    H254051   1.866   1.737   3.580  0.0388  1.0825  0.3996
10854TIP3   OH254052   0.547   3.259   1.273 -0.1069 -0.6024 -0.1230
10854TIP3    H154053   0.467   3.247   1.325 -0.2411 -0.7652 -0.3683
10854TIP3    H254054   0.618   3.239   1.334 -0.1484  1.8612  0.7850
10855TIP3   OH254055   1.064   3.682  16.028  0.2398  0.0582  0.6171
10855TIP3    H154056   1.040   3.612  16.090 -2.6664 -0.0689 -0.5609
10855TIP3    H254057   0.997   3.749  16.042  1.4403  1.4421 -0.1769
10856TIP3   OH254058   3.756   3.756   0.360  0.1331  0.3801  0.2340
10856TIP3    H154059   3.763   3.725   0.270  0.1537  0.5091  0.1924
10856TIP3    H254060   3.688   3.822   0.359  0.1301  0.3795  0.3138
10857TIP3   OH254061   5.760   2.347  15.398  0.2383 -0.1513  0.2861
10857TIP3    H154062   5.780   2.308  15.484  0.9638 -2.9584 -1.0910
10857TIP3    H254063   5.845   2.351  15.354 -0.5290 -1.5132 -1.3803
10858TIP3   OH254064   5.329   4.704  17.208 -0.2200 -0.3591 -0.5567
10858TIP3    H154065   5.418   4.696  17.242  0.0185 -0.9173 -1.3001
10858TIP3    H254066   5.317   4.626  17.154 -0.5560  0.5543 -1.8231
10859TIP3   OH254067   2.458   6.584  12.662  0.0748 -0.5144 -0.0930
10859TIP3    H154068   2.376   6.617  12.698  0.6232  0.7190  0.0475
10859TIP3    H254069   2.513   6.568  12.739  0.6006  0.3784 -0.2746
10860TIP3   OH254070   6.094   5.080  12.608 -0.2603 -0.7048  0.7724
10860TIP3    H154071   6.006   5.087  12.646 -0.0831  0.3152  1.0249
10860TIP3    H254072   6.079   5.069  12.514 -0.6643 -0.8609  0.8530
10861TIP3   OH254073   5.150   4.748  14.215  0.1855 -0.1300 -0.1836
10861TIP3    H154074   5.078   4.688  14.233  0.4097  0.0054  1.2510
10861TIP3    H254075   5.228   4.693  14.221  0.4815  0.5061  2.3412
10862TIP3   OH254076   6.696   6.478  15.550 -0.3002 -0.1864 -0.4295
10862TIP3    H154077   6.762   6.444  15.611 -0.9878 -0.4356  0.1918
10862TIP3    H254078   6.613   6.466  15.597 -0.5614  2.3849 -0.1737
10863TIP3   OH254079   0.496   0.177  15.018  0.2304  0.0168  0.0406
10863TIP3    H154080   0.568   0.178  15.081  0.4888  2.2030 -0.2339
10863TIP3    H254081   0.448   0.257  15.037 -2.2928 -1.5287  0.3633
10864TIP3   OH254082   0.458   0.772   2.789  0.0033  0.4425 -0.2625
10864TIP3    H154083   0.514   0.806   2.859  1.0922  0.2169 -1.0227
10864TIP3    H254084   0.378   0.744   2.835  0.8191  0.0140  0.9336
10865TIP3   OH254085   1.932   0.535   0.752  0.3252 -0.3801  0.2211
10865TIP3    H154086   1.928   0.440   0.761 -0.0661 -0.4213 -0.3759
10865TIP3    H254087   1.936   0.551   0.658 -0.0996  0.2087  0.2955
10866TIP3   OH254088   4.196   5.077  15.060  0.0448 -0.8796  0.1099
10866TIP3    H154089   4.208   4.991  15.100 -1.3173 -1.2712 -0.2935
10866TIP3    H254090   4.201   5.062  14.966  1.2435 -0.2802  0.0662
10867TIP3   OH254091   1.520   2.024   1.778 -0.2069 -0.1255  0.8113
10867TIP3    H154092   1.517   2.117   1.802 -2.7534  0.0851 -0.1933
10867TIP3    H254093   1.578   2.021   1.703  0.8446  0.4675  1.5845
10868TIP3   OH254094   4.503   2.592   4.065 -0.0687 -0.0798 -0.0345
10868TIP3    H154095   4.423   2.562   4.108  0.5357 -1.9031 -0.1582
10868TIP3    H254096   4.475   2.614   3.976 -0.4919 -0.4431  0.0069
10869TIP3   OH254097   1.474   4.114   5.209 -0.5021  0.2049  0.2967
10869TIP3    H154098   1.555   4.069   5.235 -1.4214 -2.0964 -0.6614
10869TIP3    H254099   1.501   4.175   5.141  0.3459 -1.0751 -0.5372
10870TIP3   OH254100   2.643   1.712   5.214  0.1672 -0.4767  0.1550
10870TIP3    H154101   2.554   1.678   5.204  1.5084 -3.6811 -2.0479
10870TIP3    H254102   2.665   1.697   5.306 -1.1195 -0.8797  0.4080
10871TIP3   OH254103   4.736   4.514   4.967 -0.5402 -0.2185  0.0880
10871TIP3    H154104   4.725   4.589   4.909 -0.4617  0.9674  1.5715
10871TIP3    H254105   4.648   4.489   4.992 -0.5042  0.5348  1.0125
10872TIP3   OH254106   2.055   2.059   0.998  0.4289  0.9497 -0.0030
10872TIP3    H154107   2.038   2.126   1.064 -1.7393  0.3589  0.0801
10872TIP3    H254108   2.073   1.979   1.048 -0.8008  0.5973 -0.1146
10873TIP3   OH254109   3.198   5.476  16.220  0.3502 -0.1830 -0.0818
10873TIP3    H154110   3.218   5.424  16.299  0.8869 -0.6639 -0.5313
10873TIP3    H254111   3.149   5.416  16.164  0.4025  0.0051 -0.3264
10874TIP3   OH254112   0.957   6.721  15.162  0.0500 -0.8301  0.4248
10874TIP3    H154113   0.898   6.736  15.088 -1.0303  1.9096  1.7735
10874TIP3    H254114   1.039   6.692  15.122 -0.0826  1.9261 -1.9529
10875TIP3   OH254115   2.090   5.499   4.911  0.0521  0.1784  0.7623
10875TIP3    H154116   2.039   5.419   4.894 -1.0266  0.8542  0.7395
10875TIP3    H254117   2.050   5.565   4.854  0.4919  0.9075  1.2931
10876TIP3   OH254118   5.913   6.524   2.320 -0.4481  0.5604  0.0550
10876TIP3    H154119   5.841   6.551   2.377 -0.2347 -0.2097  0.7061
10876TIP3    H254120   5.895   6.567   2.237 -1.6173  0.4517  0.2385
10877TIP3   OH254121   2.945   0.078   1.395 -0.0368  0.1754  0.4758
10877TIP3    H154122   2.955   0.135   1.472 -2.0289  0.8894  0.2322
10877TIP3    H254123   2.927  -0.008   1.431  0.1519  0.2789  0.8211
10878TIP3   OH254124   0.800   1.184  13.712 -0.3914  0.2077 -0.4868
10878TIP3    H154125   0.772   1.137  13.791 -0.1487  3.8048  1.8370
10878TIP3    H254126   0.719   1.220  13.675 -0.6455 -2.2917 -2.5505
10879TIP3   OH254127   3.265   0.564  13.170  0.0504  0.2477 -0.0436
10879TIP3    H154128   3.176   0.581  13.200  0.1299 -1.2107  1.0463
10879TIP3    H254129   3.300   0.501  13.233  1.9915  1.1215 -0.2322
10880TIP3   OH254130   2.214   1.429  15.258 -0.1022 -0.6211 -0.1147
10880TIP3    H154131   2.169   1.505  15.220  1.4549 -0.2248 -1.1989
10880TIP3    H254132   2.295   1.464  15.294  0.1696 -1.6212  0.2685
10881TIP3   OH254133   3.543   1.674   5.983  0.3155 -0.0426 -0.1029
10881TIP3    H154134   3.475   1.616   5.948  0.3418  0.8809 -1.7135
10881TIP3    H254135   3.496   1.731   6.044 -0.6192  1.3271 -2.0238
10882TIP3   OH254136   1.599   3.944  12.427 -0.2899  0.2080 -0.0835
10882TIP3    H154137   1.587   3.865  12.478 -0.9308 -0.0826 -0.6781
10882TIP3    H254138   1.628   4.010  12.490 -0.8761 -0.1975  0.6143
10883TIP3   OH254139   0.715   4.092   2.008  0.5273 -0.8677 -0.2873
10883TIP3    H154140   0.625   4.115   2.030  0.0931 -1.8800 -0.9842
10883TIP3    H254141   0.743   4.160   1.947  1.0769  0.8463  1.8219
10884TIP3   OH254142   6.584   2.964   1.360 -0.1489  0.4432  0.0494
10884TIP3    H154143   6.640   2.998   1.290 -0.4843  1.2746  0.1767
10884TIP3    H254144   6.521   3.034   1.376 -0.3132  0.1062  0.9183
10885TIP3   OH254145   5.374   4.121  12.357 -0.2031 -0.3801  0.1198
10885TIP3    H154146   5.420   4.205  12.358 -0.7314 -0.0717 -0.9120
10885TIP3    H254147   5.418   4.071  12.288 -0.6848 -0.5015 -0.0962
10886TIP3   OH254148   4.491   4.078  15.086 -0.1082 -0.6782 -0.4948
10886TIP3    H154149   4.536   4.005  15.044  0.5277 -0.6296  0.1039
10886TIP3    H254150   4.528   4.156  15.046  2.4442 -0.5257  2.0289
10887TIP3   OH254151   2.702   1.771  14.621 -0.2295  0.3051  0.5910
10887TIP3    H154152   2.656   1.722  14.689 -0.5339  0.7541  0.7099
10887TIP3    H254153   2.633   1.824  14.579 -0.4183 -1.3484 -1.2980
10888TIP3   OH254154   4.372   2.142  16.289  0.2507 -0.6028 -0.4964
10888TIP3    H154155   4.365   2.236  16.306 -0.8024 -0.4655 -1.5363
10888TIP3    H254156   4.283   2.116  16.265  0.7844 -1.6135 -1.4363
10889TIP3   OH254157   1.832   2.197   3.893 -0.8548  0.4731  0.0033
10889TIP3    H154158   1.843   2.132   3.824 -2.0502 -0.4534  0.6403
10889TIP3    H254159   1.791   2.148   3.965  0.6505  1.3278  1.4944
10890TIP3   OH254160   4.850   3.757  17.108 -1.2846  0.4751 -0.0957
10890TIP3    H154161   4.907   3.730  17.036 -2.1766 -1.0933 -0.2385
10890TIP3    H254162   4.900   3.825  17.154  0.2591 -0.1519 -0.8112
10891TIP3   OH254163   1.220   3.181   1.940  0.0556 -0.0276  0.8150
10891TIP3    H154164   1.246   3.093   1.967 -0.9884 -0.8108 -0.6710
10891TIP3    H254165   1.222   3.233   2.021 -1.0139 -1.8152  2.0230
10892TIP3   OH254166   3.721   1.314  15.497 -0.0983 -0.0958 -0.8829
10892TIP3    H154167   3.632   1.290  15.468 -0.7386  2.1438 -0.8624
10892TIP3    H254168   3.724   1.290  15.589 -1.0076  0.6282 -0.6547
10893TIP3   OH254169   6.325   4.960  15.262  0.3243 -0.5712 -0.1017
10893TIP3    H154170   6.394   5.005  15.309  2.2218 -1.4598 -1.9625
10893TIP3    H254171   6.269   4.923  15.331  1.0266  1.1265  1.4119
10894TIP3   OH254172   1.995   1.872  16.244 -0.1619 -0.7796  0.0966
10894TIP3    H154173   2.045   1.909  16.171  0.5703 -2.0313 -0.0489
10894TIP3    H254174   2.043   1.898  16.322  0.4498 -1.5628 -0.0150
10895TIP3   OH254175   6.533   5.409  11.579  0.1696 -0.3295  0.3123
10895TIP3    H154176   6.559   5.448  11.496 -0.3766 -0.8148 -0.0868
10895TIP3    H254177   6.464   5.467  11.612  0.6536  0.0763  0.6143
10896TIP3   OH254178   0.901   2.241  16.840 -0.5170  0.4121  0.3953
10896TIP3    H154179   0.901   2.149  16.812  0.7488  0.3634  0.5416
10896TIP3    H254180   0.808   2.264  16.844 -0.8074 -0.4154 -1.1021
10897TIP3   OH254181   5.899   2.045  15.230 -0.1714  0.1007 -0.3874
10897TIP3    H154182   5.864   2.002  15.308  1.8845 -1.2686 -0.1896
10897TIP3    H254183   5.866   1.992  15.157  0.1382 -0.2017 -0.3049
10898TIP3   OH254184   5.434   6.334   3.904 -0.6506 -0.2413 -0.3510
10898TIP3    H154185   5.451   6.265   3.968  1.9007 -0.1924 -0.9161
10898TIP3    H254186   5.397   6.406   3.957 -1.1227 -1.1793  0.6139
10899TIP3   OH254187   6.681   4.775   0.629  0.6168 -0.5645 -0.3214
10899TIP3    H154188   6.591   4.745   0.643 -0.4837  0.2425 -4.7570
10899TIP3    H254189   6.677   4.869   0.642  1.6280 -0.9207  2.8191
10900TIP3   OH254190   1.229   4.239   5.362 -0.3035 -0.7694  0.0193
10900TIP3    H154191   1.281   4.178   5.310 -0.5114 -0.6161 -0.3772
10900TIP3    H254192   1.289   4.273   5.427  0.9580  1.7624 -2.3727
10901TIP3   OH254193   0.203   4.421  12.667  0.0759 -0.3419 -0.4371
10901TIP3    H154194   0.161   4.448  12.585 -0.4688  3.1428  0.8929
10901TIP3    H254195   0.130   4.409  12.728  0.6008 -1.2242  0.0261
10902TIP3   OH254196   6.235   4.823  11.964  0.2250  0.5036 -0.5890
10902TIP3    H154197   6.200   4.734  11.962  2.0681 -0.2351 -0.6419
10902TIP3    H254198   6.163   4.878  11.930 -0.5547 -1.0748 -1.5326
10903TIP3   OH254199   5.502   5.178   2.150 -1.1002  0.4973  0.0235
10903TIP3    H154200   5.575   5.178   2.089  0.3220 -0.0393  1.6930
10903TIP3    H254201   5.471   5.269   2.150  0.1807  0.9344  0.0371
10904TIP3   OH254202   2.832   5.749   0.553 -0.1057  0.7617 -0.2506
10904TIP3    H154203   2.914   5.790   0.523 -0.5770  2.0022  0.1093
10904TIP3    H254204   2.763   5.800   0.511 -0.6981 -0.0902 -0.3055
10905TIP3   OH254205   1.894   3.912  12.708  0.2148  0.2658  0.7666
10905TIP3    H154206   1.849   3.839  12.667  0.8283 -0.4163  1.3104
10905TIP3    H254207   1.971   3.874  12.750  1.0735  1.3515  0.2246
10906TIP3   OH254208   1.137   4.304  14.322 -0.3543 -0.1645 -0.1651
10906TIP3    H154209   1.126   4.263  14.408  0.6186  0.2811  0.1830
10906TIP3    H254210   1.182   4.386  14.341 -1.4552  0.6336 -0.9533
10907TIP3   OH254211   6.159   2.757  16.737 -0.4307  0.0411  0.1295
10907TIP3    H154212   6.182   2.696  16.667  0.6878 -0.9852  1.3638
10907TIP3    H254213   6.108   2.704  16.799  0.2555  0.4389  1.0414
10908TIP3   OH254214   1.401   6.052  14.600 -0.4331  0.6205 -0.3594
10908TIP3    H154215   1.494   6.064  14.618 -0.2019 -0.9216 -0.4601
10908TIP3    H254216   1.357   6.086  14.677  0.2749  0.1601  0.2550
10909TIP3   OH254217   6.071   2.553  15.810  0.0311  0.2443  0.6098
10909TIP3    H154218   6.113   2.624  15.761  0.8494 -0.2228  0.6216
10909TIP3    H254219   5.978   2.565  15.795  0.1120  1.7725  1.2143
10910TIP3   OH254220   0.915   2.022   0.774 -0.9245 -0.0198 -0.1107
10910TIP3    H154221   0.929   2.082   0.848  0.1203  0.6518 -0.8289
10910TIP3    H254222   0.941   1.936   0.808  0.9911  0.5256 -0.1234
10911TIP3   OH254223   4.940   3.433   3.048 -0.3381  0.1491  0.3841
10911TIP3    H154224   4.870   3.436   3.112 -0.5654  0.1831  0.1335
10911TIP3    H254225   4.976   3.344   3.056  0.6299  0.6294  1.6155
10912TIP3   OH254226   2.311   4.963  11.726  0.3267  0.3901  0.0090
10912TIP3    H154227   2.275   4.919  11.803  1.2439  2.3664  1.6268
10912TIP3    H254228   2.401   4.984  11.750  0.6983  0.8550 -1.6937
10913TIP3   OH254229   1.501   4.813   1.102  0.1897  0.0066 -0.2443
10913TIP3    H154230   1.544   4.732   1.129  1.3282  0.7939  0.3636
10913TIP3    H254231   1.459   4.792   1.019  0.2948 -1.2534  0.0112
10914TIP3   OH254232   6.521   4.540  14.510 -0.3328  0.2228  0.0692
10914TIP3    H154233   6.565   4.458  14.532 -0.9248  0.1731  1.1329
10914TIP3    H254234   6.538   4.553  14.417  0.6866 -0.5420  0.1424
10915TIP3   OH254235   0.642   1.948  14.035 -0.3450  0.1436  0.1404
10915TIP3    H154236   0.648   2.037  14.001  0.4335 -0.7289 -2.0844
10915TIP3    H254237   0.730   1.927  14.065 -0.0351 -0.5935 -1.2428
10916TIP3   OH254238   4.712   3.401  10.977 -0.2899  0.5428  0.4246
10916TIP3    H154239   4.734   3.338  10.908 -0.4523  0.7109  0.2174
10916TIP3    H254240   4.706   3.485  10.931 -0.8613  0.5801  0.5595
10917TIP3   OH254241   0.978   4.525  11.151  0.1809 -0.1393 -0.1150
10917TIP3    H154242   1.055   4.517  11.207 -1.0653  0.9914  1.7914
10917TIP3    H254243   1.001   4.596  11.090  0.2926  0.8618  1.0690
10918TIP3   OH254244   5.744   4.055  14.023 -0.1813 -0.1096  0.0361
10918TIP3    H154245   5.720   3.986  14.086 -0.0591 -1.1725 -1.0705
10918TIP3    H254246   5.668   4.064  13.967 -0.1058  0.4948  0.0304
10919TIP3   OH254247   0.629   1.068  15.939 -0.0330  0.5170 -0.0578
10919TIP3    H154248   0.575   0.989  15.928  0.2872 -0.1050  2.4277
10919TIP3    H254249   0.632   1.081  16.034  4.5293  0.2917 -0.0910
10920TIP3   OH254250   4.646   4.154  11.857  0.3240 -0.1168  0.1072
10920TIP3    H154251   4.552   4.155  11.843  0.2672 -0.2764  0.4852
10920TIP3    H254252   4.663   4.072  11.903  0.8722 -0.9356 -1.5308
10921TIP3   OH254253   2.534   5.846   1.523 -0.1869  0.2151 -0.2676
10921TIP3    H154254   2.554   5.813   1.436  1.6385  0.3312  0.1000
10921TIP3    H254255   2.575   5.932   1.527 -1.5540  0.8613  0.1825
10922TIP3   OH254256   3.609   2.597  12.344 -0.0432  0.4702 -0.0268
10922TIP3    H154257   3.673   2.569  12.410  1.5347 -0.7484 -1.9911
10922TIP3    H254258   3.617   2.692  12.341 -1.9353  0.8015  3.2601
10923TIP3   OH254259   6.536   0.238  11.777 -0.3879 -0.3195  0.8727
10923TIP3    H154260   6.514   0.146  11.794 -2.1327 -0.2904 -1.0329
10923TIP3    H254261   6.627   0.235  11.749 -1.0793 -1.8148 -1.4385
10924TIP3   OH254262   4.209   3.660  16.913  0.5029  0.1821 -0.3975
10924TIP3    H154263   4.214   3.730  16.847  0.4888 -0.3461 -0.9621
10924TIP3    H254264   4.249   3.584  16.870  1.2300  0.0490  0.4970
10925TIP3   OH254265   4.747   0.489  14.623 -0.4046  0.5348  0.2351
10925TIP3    H154266   4.716   0.558  14.565  0.1945 -0.0261 -0.7691
10925TIP3    H254267   4.670   0.461  14.672 -0.8345  1.2672 -0.0277
10926TIP3   OH254268   0.415   2.290  13.823 -0.5078 -0.4404  0.1319
10926TIP3    H154269   0.326   2.271  13.853 -0.6759 -0.5775 -0.4476
10926TIP3    H254270   0.470   2.274  13.899 -0.9467 -0.6301  0.4121
10927TIP3   OH254271   0.795   5.209   4.161  0.4387  0.0294 -0.3571
10927TIP3    H154272   0.739   5.207   4.083 -0.7798  0.1085  0.4962
10927TIP3    H254273   0.736   5.234   4.232  1.4855 -0.2740  0.6355
10928TIP3   OH254274   6.168   2.467   2.636  0.4619  0.1287 -0.0415
10928TIP3    H154275   6.103   2.404   2.667  1.6267 -1.2758 -0.3901
10928TIP3    H254276   6.117   2.536   2.595 -0.7928 -1.1815 -0.7340
10929TIP3   OH254277   5.037   0.630  16.554 -0.4834 -0.3439  0.2833
10929TIP3    H154278   4.975   0.567  16.589 -1.8914  1.0974  0.4561
10929TIP3    H254279   4.983   0.703  16.524  1.0368  0.4084 -0.7167
10930TIP3   OH254280   0.125   2.151   2.836 -0.1045 -0.0926  0.1125
10930TIP3    H154281   0.068   2.202   2.779 -1.7740 -0.8405  1.0803
10930TIP3    H254282   0.209   2.149   2.790 -0.6454  1.6277 -0.9923
10931TIP3   OH254283   5.770   1.007   6.408 -0.3194 -0.1841  0.1351
10931TIP3    H154284   5.843   0.973   6.460 -0.6534  0.5455  1.0885
10931TIP3    H254285   5.710   1.044   6.472 -1.2808 -0.3016 -0.6932
10932TIP3   OH254286   4.946   0.456   0.511 -0.5323 -0.2763 -0.0635
10932TIP3    H154287   4.965   0.485   0.600 -0.7478 -2.9748  0.9144
10932TIP3    H254288   4.866   0.404   0.520  0.1964 -1.6930 -1.6198
10933TIP3   OH254289   1.896   1.766  11.205  0.2917 -0.7575  0.1098
10933TIP3    H154290   1.870   1.696  11.146 -2.4630 -1.0554  1.6088
10933TIP3    H254291   1.924   1.722  11.285  0.8805 -0.2348  0.1987
10934TIP3   OH254292   6.229   0.276  12.601 -0.3605 -0.1166  0.8518
10934TIP3    H154293   6.193   0.337  12.537 -1.8744 -1.6557  0.1838
10934TIP3    H254294   6.323   0.276  12.584 -0.4222  1.4694  0.4003
10935TIP3   OH254295   3.100   4.540   2.001 -0.6790 -0.0316 -0.4831
10935TIP3    H154296   3.022   4.534   2.056 -0.3746  1.1666  0.1091
10935TIP3    H254297   3.158   4.471   2.033 -0.1984  1.1240  1.2375
10936TIP3   OH254298   0.310   2.753  16.531  0.0412 -0.0470  0.3954
10936TIP3    H154299   0.302   2.790  16.619  0.4428 -0.0394  0.4286
10936TIP3    H254300   0.399   2.717  16.528 -0.2487 -0.7437  0.2551
10937TIP3   OH254301   4.478   4.691   3.102 -0.3927 -0.3747  0.8491
10937TIP3    H154302   4.420   4.744   3.156  0.3007  1.8740 -0.5330
10937TIP3    H254303   4.528   4.754   3.051  1.7758 -2.3296  0.4554
10938TIP3   OH254304   2.490   5.022   2.901 -0.1381 -0.1822 -0.6306
10938TIP3    H154305   2.578   5.013   2.864  1.1002  0.2117  2.0718
10938TIP3    H254306   2.504   5.020   2.996 -2.8760  1.5232 -0.1375
10939TIP3   OH254307   0.057   3.869   1.794 -0.0015  0.0737 -0.0658
10939TIP3    H154308  -0.009   3.897   1.731 -0.8134  0.2794  0.8771
10939TIP3    H254309   0.139   3.873   1.745 -0.4078  1.7964 -0.6352
10940TIP3   OH254310   0.380   3.421   3.342  0.1511  0.4051  0.3594
10940TIP3    H154311   0.317   3.350   3.335  0.8991 -0.1708 -0.7292
10940TIP3    H254312   0.458   3.380   3.379 -0.4511  1.3462  2.7484
10941TIP3   OH254313   1.506   6.268   4.268 -0.2986  0.3847  0.3127
10941TIP3    H154314   1.542   6.352   4.239  0.6762 -0.0859  0.1258
10941TIP3    H254315   1.577   6.229   4.320 -0.6929 -0.3783  0.2815
10942TIP3   OH254316   3.135   2.414  16.451  0.1223 -0.2492 -0.0848
10942TIP3    H154317   3.160   2.346  16.388  0.0333  0.3119 -0.7291
10942TIP3    H254318   3.084   2.477  16.400 -1.4120 -0.6586  0.9192
10943TIP3   OH254319   3.120   1.980  15.326  0.2627 -0.2406 -0.2410
10943TIP3    H154320   3.206   1.944  15.304  0.4358 -1.1512  1.7500
10943TIP3    H254321   3.115   1.971  15.422 -1.4091  1.2339 -0.1694
10944TIP3   OH254322   2.669   3.637  14.267 -0.0879  0.3877  0.0447
10944TIP3    H154323   2.726   3.603  14.337  1.0238  0.4968 -0.7901
10944TIP3    H254324   2.730   3.672  14.202 -1.0663 -0.5505 -1.4109
10945TIP3   OH254325   1.358   5.493   1.897  0.0447  0.7472 -0.3993
10945TIP3    H154326   1.427   5.535   1.847  1.1987 -2.9776 -2.0728
10945TIP3    H254327   1.290   5.473   1.832  0.2194 -1.3380  0.0163
10946TIP3   OH254328   4.130   5.188  16.226 -0.1113  0.7267  0.0904
10946TIP3    H154329   4.128   5.284  16.231 -0.3643  0.8234 -1.5597
10946TIP3    H254330   4.041   5.164  16.199  0.0555  0.0551  0.1357
10947TIP3   OH254331   4.485   2.716   3.517  0.2105  0.1502 -0.2336
10947TIP3    H154332   4.441   2.799   3.499 -0.4878 -0.4927 -1.5351
10947TIP3    H254333   4.429   2.649   3.476  1.3909 -0.8496 -0.2502
10948TIP3   OH254334   2.038   5.264  16.011  0.3602  0.3279  0.1377
10948TIP3    H154335   2.091   5.273  16.090 -0.6709 -0.3566  0.9148
10948TIP3    H254336   1.979   5.191  16.030  1.7766 -1.5009 -2.1952
10949TIP3   OH254337   0.829   3.687  13.513 -0.6420  0.5315 -0.1336
10949TIP3    H154338   0.776   3.627  13.459  0.2247 -1.9087  1.6018
10949TIP3    H254339   0.773   3.707  13.588  0.4371 -1.1922  1.1709
10950TIP3   OH254340   1.196   5.338   5.689 -0.6724 -0.0090 -0.1901
10950TIP3    H154341   1.130   5.327   5.621  1.5951  0.6165 -2.5573
10950TIP3    H254342   1.190   5.258   5.741 -1.0406 -1.4610 -2.3915
10951TIP3   OH254343   1.560   1.719  13.343 -0.1139 -0.1061  0.1263
10951TIP3    H154344   1.471   1.746  13.320 -0.3719  0.5573  1.8226
10951TIP3    H254345   1.552   1.684  13.432  1.4210  0.5371  0.5240
10952TIP3   OH254346   4.622   2.893   2.893  0.2599  0.2115  0.4885
10952TIP3    H154347   4.712   2.881   2.861  0.4621  2.6057  0.1145
10952TIP3    H254348   4.567   2.873   2.817  0.5515  0.6840  0.1486
10953TIP3   OH254349   2.408   1.947   0.469 -0.4377  0.3208 -0.0369
10953TIP3    H154350   2.384   2.038   0.449 -0.9377  0.5263  1.4222
10953TIP3    H254351   2.395   1.900   0.386  1.4168  1.8735 -1.2497
10954TIP3   OH254352   4.158   6.443  13.757 -0.1522  0.1529 -0.0952
10954TIP3    H154353   4.195   6.441  13.668  2.3337  1.8852  0.8504
10954TIP3    H254354   4.179   6.357  13.793  0.2578  0.0222 -0.6312
10955TIP3   OH254355   3.267   4.003  13.473  0.5153  0.2185  0.2142
10955TIP3    H154356   3.263   3.925  13.418 -0.8094 -0.3063  1.0619
10955TIP3    H254357   3.361   4.017  13.487  0.8395 -0.1159 -1.4889
10956TIP3   OH254358   6.398   6.571  13.036 -0.0193 -0.4566  0.0118
10956TIP3    H154359   6.476   6.516  13.022  0.2769 -0.1832  0.5807
10956TIP3    H254360   6.358   6.577  12.949  0.9176 -0.1061 -0.4109
10957TIP3   OH254361   1.799   0.012   2.784 -0.1465  0.2638  0.0284
10957TIP3    H154362   1.784  -0.031   2.868  1.7495  0.5701  0.5399
10957TIP3    H254363   1.892  -0.001   2.766 -0.1124  1.8627 -1.0887
10958TIP3   OH254364   5.510   0.069  12.123  0.1136 -0.0347 -0.0771
10958TIP3    H154365   5.450  -0.005  12.130  0.3038 -0.1626  0.2147
10958TIP3    H254366   5.517   0.087  12.029  1.9829 -1.9560 -0.3502
10959TIP3   OH254367   5.950   4.632  13.841 -0.3160  0.1043 -0.3569
10959TIP3    H154368   5.915   4.644  13.930 -0.2574  2.0064 -0.5818
10959TIP3    H254369   5.872   4.632  13.785 -0.2413  0.3948 -0.4600
10960TIP3   OH254370   3.154   1.225  13.929 -0.2269  0.4790 -0.1366
10960TIP3    H154371   3.235   1.277  13.924  1.7048 -2.4326 -0.9791
10960TIP3    H254372   3.149   1.182  13.843 -2.0515 -0.2497  0.3244
10961TIP3   OH254373   3.825   0.851   5.718 -0.2007 -0.1751 -0.1981
10961TIP3    H154374   3.746   0.903   5.705  0.9178  2.0666  1.5514
10961TIP3    H254375   3.878   0.867   5.640 -0.0215  1.0723  0.1651
10962TIP3   OH254376   3.840   2.721  14.748 -0.2491 -0.0408  0.0072
10962TIP3    H154377   3.834   2.647  14.688  0.2077 -0.7438  0.8291
10962TIP3    H254378   3.773   2.705  14.814 -0.8614  0.8175 -0.3919
10963TIP3   OH254379   4.005   3.500   3.233  0.2189  0.0940 -0.2678
10963TIP3    H154380   3.982   3.592   3.215  0.6449  0.7569  2.3538
10963TIP3    H254381   4.079   3.482   3.175  1.0534  1.8850  0.2000
10964TIP3   OH254382   1.428   6.060   5.796  0.4241  0.3476 -0.1120
10964TIP3    H154383   1.429   6.093   5.886  1.0538  0.5118 -0.1789
10964TIP3    H254384   1.508   6.095   5.757  0.8901 -0.9288 -0.3071
10965TIP3   OH254385   5.841   0.459   2.427  0.1503  0.4036 -0.2471
10965TIP3    H154386   5.934   0.449   2.447  0.5468  0.0617 -2.1630
10965TIP3    H254387   5.798   0.389   2.477  0.7239  1.5385  1.8821
10966TIP3   OH254388   2.608   5.119   1.287  0.1288 -0.4374  0.4518
10966TIP3    H154389   2.603   5.045   1.227  2.0809  0.0549 -0.3321
10966TIP3    H254390   2.701   5.129   1.306 -0.1176  1.7269  0.6630
10967TIP3   OH254391   5.551   4.116  13.237  0.8397 -0.5005  0.1104
10967TIP3    H154392   5.536   4.052  13.167 -0.6562  0.3983 -0.4157
10967TIP3    H254393   5.513   4.075  13.315 -1.0774  0.1739 -0.4455
10968TIP3   OH254394   4.488   1.083   3.816  0.0787  0.8368  0.2425
10968TIP3    H154395   4.529   1.122   3.739 -0.0862  0.7476  0.1089
10968TIP3    H254396   4.555   1.024   3.852  0.2621  1.1031  0.3389
10969TIP3   OH254397   1.953   5.827   5.327 -0.0209  0.1308  0.1506
10969TIP3    H154398   1.986   5.825   5.237 -1.2334  0.7204 -0.3141
10969TIP3    H254399   1.965   5.738   5.359  1.5564  0.2047 -0.1714
10970TIP3   OH254400   2.912   3.155   3.628 -0.3974 -0.2647  0.0726
10970TIP3    H154401   2.932   3.098   3.554  0.3368  0.5132 -0.3251
10970TIP3    H254402   2.882   3.237   3.588 -0.3979  0.0126  0.6411
10971TIP3   OH254403   4.821   0.461  16.671 -0.7659 -0.0649  0.2050
10971TIP3    H154404   4.731   0.492  16.662 -0.6448 -0.1266 -1.3523
10971TIP3    H254405   4.814   0.366  16.665 -0.4153  0.0145 -1.7695
10972TIP3   OH254406   2.487   4.655  12.085 -0.1533 -0.1949 -0.4830
10972TIP3    H154407   2.481   4.698  12.170 -0.3419 -0.4257 -0.3758
10972TIP3    H254408   2.526   4.720  12.027 -1.5207  0.5282 -0.6070
10973TIP3   OH254409   3.236   2.637   0.139 -0.9061  0.0816 -0.5532
10973TIP3    H154410   3.266   2.725   0.115  1.5955 -1.0449 -1.7655
10973TIP3    H254411   3.162   2.620   0.080 -1.1371  1.1800 -0.5974
10974TIP3   OH254412   0.837   3.087  16.879 -0.2409  0.0424 -0.6156
10974TIP3    H154413   0.785   3.165  16.862 -0.7001 -0.0428  0.3443
10974TIP3    H254414   0.779   3.030  16.929  1.2304  0.5529  1.7428
10975TIP3   OH254415   6.509   0.888   6.016  0.1015 -0.1633 -0.0193
10975TIP3    H154416   6.518   0.856   6.105  1.8403  0.3649  0.0229
10975TIP3    H254417   6.504   0.984   6.025  1.0905 -0.0543 -0.5261
10976TIP3   OH254418   2.294   5.352  15.232 -0.5078  0.5802 -0.1738
10976TIP3    H154419   2.336   5.434  15.260 -0.8514  1.0243 -0.9564
10976TIP3    H254420   2.309   5.292  15.305 -0.7226  1.4990  0.6392
10977TIP3   OH254421   5.520   6.095   3.357  0.2473  0.0011 -0.1223
10977TIP3    H154422   5.569   6.098   3.274 -0.3343  0.5012 -0.4556
10977TIP3    H254423   5.430   6.076   3.331  0.4494 -2.0366  0.5774
10978TIP3   OH254424   1.282   2.328   4.669  0.3127  0.2872  1.0230
10978TIP3    H154425   1.308   2.406   4.718 -1.2836  0.3996  1.7298
10978TIP3    H254426   1.363   2.277   4.659  0.8198  0.6571  3.0851
10979TIP3   OH254427   4.467   5.641  16.515  0.1155  0.1078  0.1309
10979TIP3    H154428   4.401   5.585  16.473  1.0432 -1.3217  0.5442
10979TIP3    H254429   4.443   5.729  16.488 -0.5396 -0.5995 -1.7131
10980TIP3   OH254430   2.873   6.427   2.907  0.2196  0.3103  0.6283
10980TIP3    H154431   2.930   6.440   2.831  0.7565 -0.7247  0.8437
10980TIP3    H254432   2.891   6.502   2.964  0.5884  0.5352  0.2188
10981TIP3   OH254433   3.147   4.516  13.584  0.5647  0.6252  0.1155
10981TIP3    H154434   3.213   4.543  13.520  0.6612 -0.7932 -0.3862
10981TIP3    H254435   3.199   4.483  13.658  0.4414 -1.6864 -0.7892
10982TIP3   OH254436   1.410   6.808  14.414  0.4994  0.2245 -0.0528
10982TIP3    H154437   1.498   6.786  14.383  1.2160 -0.1732  2.1664
10982TIP3    H254438   1.371   6.724  14.438  0.1848  0.5620  0.6451
10983TIP3   OH254439   6.611   4.381   3.846 -0.1046 -0.0065 -0.2163
10983TIP3    H154440   6.654   4.441   3.908  0.6504 -1.9358  1.1774
10983TIP3    H254441   6.681   4.352   3.788  0.1421 -1.6729  0.8679
10984TIP3   OH254442   1.231   4.584  12.511 -0.0535  0.4858  0.1293
10984TIP3    H154443   1.225   4.583  12.606 -2.3256  1.7014  0.0387
10984TIP3    H254444   1.208   4.674  12.487  1.4423  0.4471 -1.5199
10985TIP3   OH254445   4.209   3.413   0.573  0.3837 -0.2769  0.1735
10985TIP3    H154446   4.141   3.479   0.584 -0.5222 -1.2468  0.5139
10985TIP3    H254447   4.268   3.450   0.507  0.3091  1.1823  0.9229
10986TIP3   OH254448   1.648   6.629   5.959  0.3962 -0.6170 -0.6605
10986TIP3    H154449   1.590   6.561   5.924 -1.6417 -0.1045  1.5993
10986TIP3    H254450   1.701   6.585   6.025 -0.6538 -0.1319  0.5276
10987TIP3   OH254451   1.271   1.285   1.743 -0.3005  0.7907 -0.7368
10987TIP3    H154452   1.231   1.370   1.757  0.5564  0.7186  2.6168
10987TIP3    H254453   1.359   1.293   1.781 -0.7085 -1.9773  0.9306
10988TIP3   OH254454   3.211   5.595  16.651 -0.1686  0.4366 -0.5660
10988TIP3    H154455   3.292   5.571  16.697  0.0818  0.2899 -1.0757
10988TIP3    H254456   3.225   5.685  16.623 -0.7295  0.8602  0.5289
10989TIP3   OH254457   6.339   2.871  15.413  0.0013  0.5783  0.0461
10989TIP3    H154458   6.431   2.879  15.386  0.2812  2.1515  1.3496
10989TIP3    H254459   6.291   2.927  15.351 -0.1155 -0.3482 -0.7179
10990TIP3   OH254460   1.179   2.251   0.545 -0.1295 -0.7968  0.1410
10990TIP3    H154461   1.144   2.165   0.569 -2.1857 -0.4101 -1.3633
10990TIP3    H254462   1.201   2.243   0.452 -1.3495  0.6174 -0.2881
10991TIP3   OH254463   0.374   5.570  13.758  0.5937 -0.0727 -0.3453
10991TIP3    H154464   0.437   5.499  13.769  1.2402  0.6933  0.8964
10991TIP3    H254465   0.419   5.633  13.702  0.3956 -0.1747 -0.6210
10992TIP3   OH254466   4.430   2.848  15.427 -0.2050 -0.5141 -0.4170
10992TIP3    H154467   4.482   2.871  15.349 -0.7503  0.9505 -0.3735
10992TIP3    H254468   4.339   2.859  15.398 -0.4293 -0.7548  0.2034
10993TIP3   OH254469   4.639   1.246  16.365  0.2603  0.2257  0.6364
10993TIP3    H154470   4.641   1.341  16.376 -0.7357  0.1176  1.8890
10993TIP3    H254471   4.555   1.229  16.322  0.5703 -0.0600  0.1404
10994TIP3   OH254472   3.334   5.277  14.540 -0.0319 -0.3606 -0.2683
10994TIP3    H154473   3.401   5.323  14.490 -1.1577 -0.0791 -1.5516
10994TIP3    H254474   3.368   5.275  14.630  0.8675  1.3792 -0.5471
10995TIP3   OH254475   3.620   2.584   5.456 -0.1755  0.1138 -0.0359
10995TIP3    H154476   3.639   2.634   5.376  0.4548  0.8090  0.5369
10995TIP3    H254477   3.582   2.502   5.424  0.4227  0.2198 -1.0719
10996TIP3   OH254478   0.129   3.887  12.818  0.4987  0.1186  0.5049
10996TIP3    H154479   0.133   3.810  12.762  0.0482 -0.7475  1.6324
10996TIP3    H254480   0.189   3.868  12.890  1.0955  1.2263  0.3166
10997TIP3   OH254481   3.448   3.730   3.433  0.5868 -0.1963 -0.5544
10997TIP3    H154482   3.403   3.688   3.507  1.1071  0.4177  0.1143
10997TIP3    H254483   3.540   3.728   3.456  0.8749 -1.0684 -1.7390
10998TIP3   OH254484   1.160   2.213  16.678 -1.2757 -0.2670  0.2048
10998TIP3    H154485   1.129   2.186  16.765 -0.3290  0.5092  0.7894
10998TIP3    H254486   1.120   2.150  16.618  0.5152 -2.7167  1.4929
10999TIP3   OH254487   4.632   1.490  12.674  0.8296 -0.7293  0.4392
10999TIP3    H154488   4.539   1.513  12.670  1.4481  1.5673 -1.7614
10999TIP3    H254489   4.634   1.398  12.649 -0.8353 -0.7453  0.2914
11000TIP3   OH254490   1.659   6.532   7.074  0.2669 -0.1370  0.6448
11000TIP3    H154491   1.738   6.481   7.060  0.2546  0.4805 -2.0102
11000TIP3    H254492   1.596   6.469   7.110  0.7735 -1.6092 -0.9574
11001TIP3   OH254493   0.601   5.861   5.968  0.0278  0.1780  0.6533
11001TIP3    H154494   0.538   5.929   5.945 -1.0812 -1.6821 -1.9305
11001TIP3    H254495   0.559   5.812   6.039  0.2659  1.3172  1.6013
11002TIP3   OH254496   6.241   3.942  14.655  0.6035 -0.6198  0.0623
11002TIP3    H154497   6.198   4.004  14.595  0.9459  0.8716  1.3164
11002TIP3    H254498   6.169   3.904  14.705  0.4779 -0.4948 -0.0200
11003TIP3   OH254499   2.441   2.760   5.907 -0.0402  0.0146  0.6619
11003TIP3    H154500   2.473   2.735   5.994  0.5174 -0.5678  0.2944
11003TIP3    H254501   2.519   2.764   5.852 -0.4717 -0.4097  0.0003
11004TIP3   OH254502   5.865   5.919   2.465 -0.2406  0.1283 -0.0298
11004TIP3    H154503   5.930   5.848   2.460 -1.3341 -0.7941 -1.3571
11004TIP3    H254504   5.849   5.929   2.559  2.0055  0.5476  0.3562
11005TIP3   OH254505   3.099   0.294   5.235  0.4656 -0.6852  0.2855
11005TIP3    H154506   3.092   0.201   5.258  2.2932 -1.4146 -1.8722
11005TIP3    H254507   3.190   0.316   5.253  0.8956 -0.2137 -2.3004
11006TIP3   OH254508   1.325   5.667   2.368  0.2983 -0.2594 -0.3787
11006TIP3    H154509   1.276   5.603   2.418 -1.1090 -0.0441 -1.4357
11006TIP3    H254510   1.355   5.620   2.290  0.8700 -0.1161 -0.2500
11007TIP3   OH254511   4.556   0.133   3.661 -0.3861  0.5848 -0.6455
11007TIP3    H154512   4.636   0.092   3.629 -1.2015 -0.4321 -1.4146
11007TIP3    H254513   4.510   0.064   3.708 -1.3324  0.8558 -1.1514
11008TIP3   OH254514   4.382   0.514   3.465 -0.1183 -0.6612 -0.0198
11008TIP3    H154515   4.415   0.550   3.548 -0.5637 -1.9344  0.7281
11008TIP3    H254516   4.458   0.470   3.427 -0.2870 -1.4120  0.4828
11009TIP3   OH254517   0.367   2.800  10.317  0.5694  0.3181 -0.2536
11009TIP3    H154518   0.419   2.853  10.256  1.3959  1.5821  1.5290
11009TIP3    H254519   0.357   2.855  10.394 -1.6342 -0.7382  0.2613
11010TIP3   OH254520   1.584   2.250   4.851 -0.0176  0.8166 -0.2436
11010TIP3    H154521   1.649   2.313   4.820  0.0692 -0.1687 -2.1322
11010TIP3    H254522   1.527   2.235   4.776 -2.4246  1.6088  1.3855
11011TIP3   OH254523   2.550   3.399  15.122 -0.0957  0.7411 -0.4374
11011TIP3    H154524   2.485   3.396  15.192 -0.6273  0.5615 -0.9441
11011TIP3    H254525   2.557   3.309  15.091 -0.7338  1.0301 -1.4229
11012TIP3   OH254526   3.341   5.701   2.368  0.0377  0.0091  0.0478
11012TIP3    H154527   3.269   5.725   2.311  1.4490 -1.6419 -2.5143
11012TIP3    H254528   3.394   5.781   2.375 -0.6090  0.4633 -0.2016
11013TIP3   OH254529   2.294   0.921  13.404 -0.3157 -0.2468  0.6471
11013TIP3    H154530   2.202   0.903  13.418 -0.7494 -0.7671 -2.5280
11013TIP3    H254531   2.338   0.837  13.417 -0.9924 -1.2661 -3.1322
11014TIP3   OH254532   1.799   3.701  12.440 -1.1742  0.3242  0.0058
11014TIP3    H154533   1.796   3.766  12.370 -0.6559  0.3003 -0.0398
11014TIP3    H254534   1.772   3.620  12.397  1.2493 -0.1486 -0.6947
11015TIP3   OH254535   0.305   4.501  14.200 -0.8536  0.5408 -0.1578
11015TIP3    H154536   0.301   4.406  14.211 -0.6224  0.5538  0.0350
11015TIP3    H254537   0.220   4.524  14.162 -0.4438  0.1034 -1.3469
11016TIP3   OH254538   0.431   1.281   2.962  0.2515  0.6535 -0.1038
11016TIP3    H154539   0.441   1.292   3.056 -1.0370 -1.4327  0.3382
11016TIP3    H254540   0.337   1.297   2.946  0.0701 -0.8906 -0.7010
11017TIP3   OH254541   6.779   4.181   0.145 -0.1520 -0.6176 -0.4787
11017TIP3    H154542   6.844   4.162   0.077 -1.1122 -1.6027 -1.1552
11017TIP3    H254543   6.695   4.184   0.097 -0.8651 -1.5467  0.6860
11018TIP3   OH254544   2.676   4.320  15.031  0.0096 -0.3542  0.2994
11018TIP3    H154545   2.770   4.309  15.046 -0.4215 -2.3227  1.7530
11018TIP3    H254546   2.663   4.293  14.940  0.6790 -1.2500  0.4620
11019TIP3   OH254547   0.474   3.768   1.988  0.1937 -0.1251 -0.0201
11019TIP3    H154548   0.379   3.782   1.984  0.2130  0.2647  0.7999
11019TIP3    H254549   0.488   3.686   1.940 -0.6974 -0.7890  0.8335
11020TIP3   OH254550   2.408   6.312  12.579  0.2488  0.1192 -0.4059
11020TIP3    H154551   2.316   6.334  12.593  0.8889  1.6863  1.5475
11020TIP3    H254552   2.455   6.392  12.600  2.1817 -1.1420  0.1524
11021TIP3   OH254553   3.549   5.775   0.893  0.3207 -0.0357  0.5436
11021TIP3    H154554   3.559   5.868   0.873 -1.4166  0.9704  3.8996
11021TIP3    H254555   3.475   5.746   0.840  0.9268  0.4411 -0.5767
11022TIP3   OH254556   4.202   2.526   5.053 -0.1968  0.1879 -0.5957
11022TIP3    H154557   4.255   2.536   5.132 -0.7877 -1.4602  0.0387
11022TIP3    H254558   4.262   2.488   4.989 -0.2335 -0.4111 -0.2873
11023TIP3   OH254559   6.034   4.345  14.472 -0.1614  0.2145  0.2813
11023TIP3    H154560   6.027   4.250  14.465  0.1952  0.2284 -0.3121
11023TIP3    H254561   6.126   4.364  14.450 -1.3096  1.0883 -4.3661
11024TIP3   OH254562   1.760   3.217  14.908 -0.5729  0.4195 -0.1180
11024TIP3    H154563   1.779   3.223  15.001  2.6607  1.2139 -0.7933
11024TIP3    H254564   1.731   3.305  14.883 -0.4802  0.4617 -0.0743
11025TIP3   OH254565   3.252   2.605  16.610  0.4174  0.3180 -0.1286
11025TIP3    H154566   3.213   2.572  16.529 -1.3446  0.8881  0.4766
11025TIP3    H254567   3.230   2.697  16.612  0.8542  0.4147  0.7840
11026TIP3   OH254568   4.952   6.152   3.447  0.5281  0.1331 -0.2895
11026TIP3    H154569   5.026   6.213   3.446 -0.9482  2.0996  2.6849
11026TIP3    H254570   4.899   6.179   3.522 -2.5980 -1.9832 -1.6016
11027TIP3   OH254571   5.329   4.484   5.653 -0.4685 -0.0360 -0.4806
11027TIP3    H154572   5.351   4.577   5.644  2.0425 -0.4889  0.4739
11027TIP3    H254573   5.322   4.470   5.747 -0.2963 -0.9222 -0.5961
11028TIP3   OH254574   5.924   5.336   0.226 -0.4014  0.0058 -0.2058
11028TIP3    H154575   5.877   5.256   0.204  1.3688 -0.7452 -1.4130
11028TIP3    H254576   6.013   5.306   0.245  0.1392  1.6263 -0.1106
11029TIP3   OH254577   4.307   2.852   2.358 -0.0675  0.2868  0.4555
11029TIP3    H154578   4.352   2.915   2.415  1.6299  1.7037 -2.3308
11029TIP3    H254579   4.281   2.903   2.282  3.5994 -2.7971 -3.0885
11030TIP3   OH254580   1.528   1.308   1.853  0.1124 -0.5316 -0.3743
11030TIP3    H154581   1.609   1.261   1.871  0.5342  0.4676  0.3736
11030TIP3    H254582   1.531   1.385   1.910 -0.6135  0.3541 -1.5012
11031TIP3   OH254583   5.466   2.045   0.365 -0.0721  0.1088  0.0363
11031TIP3    H154584   5.473   1.988   0.289 -0.8499  1.8318 -1.3562
11031TIP3    H254585   5.425   1.990   0.432 -1.3564 -0.8088 -1.4716
11032TIP3   OH254586   2.502   5.102   3.370 -0.7094 -0.3758 -0.7663
11032TIP3    H154587   2.581   5.133   3.415 -2.1409  1.4072  0.5954
11032TIP3    H254588   2.474   5.025   3.419 -1.0622  0.3018  0.1005
11033TIP3   OH254589   5.349   2.701   0.853  0.1942  0.7198  0.2450
11033TIP3    H154590   5.312   2.780   0.814 -1.2915 -1.1009 -2.1571
11033TIP3    H254591   5.382   2.650   0.779 -0.1512 -1.5502  1.5755
11034TIP3   OH254592   3.339   6.445   3.348  0.1248  0.1474  0.0009
11034TIP3    H154593   3.324   6.469   3.256  0.3652  0.6325  0.0825
11034TIP3    H254594   3.377   6.358   3.344 -1.1138 -0.3950 -0.2917
11035TIP3   OH254595   0.421   4.249  11.974  0.1067  0.5869  0.0174
11035TIP3    H154596   0.349   4.185  11.974  1.5225 -1.0442  1.2823
11035TIP3    H254597   0.417   4.289  12.061  1.4265 -0.3300  0.5089
11036TIP3   OH254598   2.428   6.348   5.223 -0.0266 -0.3214  0.1385
11036TIP3    H154599   2.514   6.377   5.253 -0.3892 -0.4852  1.3398
11036TIP3    H254600   2.382   6.323   5.303 -0.7952 -1.3026 -0.6082
11037TIP3   OH254601   4.547   3.188  16.307 -0.0829  0.5066 -0.2430
11037TIP3    H154602   4.492   3.222  16.377  1.2186 -1.3483  1.7329
11037TIP3    H254603   4.499   3.112  16.274 -1.1084  1.8684 -2.0141
11038TIP3   OH254604   3.445   2.773   8.552  0.1691  0.1810  0.2482
11038TIP3    H154605   3.481   2.813   8.473  1.8644 -1.0436  0.3609
11038TIP3    H254606   3.383   2.837   8.586  1.4640  1.8855 -0.5541
11039TIP3   OH254607   3.551   3.778   4.989 -0.5152  0.7276  0.0681
11039TIP3    H154608   3.547   3.758   4.896 -1.6642  0.5431  0.1532
11039TIP3    H254609   3.470   3.825   5.007 -0.1339  1.0797  0.9036
11040TIP3   OH254610   3.728   0.645  11.200  0.3121 -0.0597 -0.3111
11040TIP3    H154611   3.801   0.636  11.140 -0.4463 -1.2358 -1.0780
11040TIP3    H254612   3.650   0.647  11.144 -0.4520 -1.9055  0.6400
11041TIP3   OH254613   4.576   4.029  15.344 -0.4356 -0.2534  0.1239
11041TIP3    H154614   4.557   4.075  15.263  1.7311  0.3617 -0.0751
11041TIP3    H254615   4.633   4.089  15.393  2.3546 -2.6144 -0.0771
11042TIP3   OH254616   4.719   1.290   3.300  0.5197  0.2174 -0.1787
11042TIP3    H154617   4.630   1.287   3.337  1.8244 -4.4192  3.0612
11042TIP3    H254618   4.717   1.226   3.229  1.4561 -0.5764  0.4964
11043TIP3   OH254619   3.638   1.709   4.947  0.0826 -0.5237  0.2567
11043TIP3    H154620   3.714   1.766   4.958  0.1276 -0.6038  0.3587
11043TIP3    H254621   3.585   1.726   5.025  0.2092 -0.7949  0.4018
11044TIP3   OH254622   2.434   0.300  12.837 -0.4644 -0.4546  0.2224
11044TIP3    H154623   2.457   0.368  12.900 -0.9823 -0.3086  0.2573
11044TIP3    H254624   2.372   0.244  12.883 -0.3611 -0.7117  0.0541
11045TIP3   OH254625   6.597   1.284  15.054 -0.1578 -0.2068 -0.3282
11045TIP3    H154626   6.617   1.191  15.067  1.6257 -0.3092 -3.2497
11045TIP3    H254627   6.675   1.319  15.010 -1.9784  1.9948 -1.9183
11046TIP3   OH254628   4.535   2.836   1.321  0.4535 -0.4408 -0.0534
11046TIP3    H154629   4.588   2.826   1.400  1.6317  2.0483 -0.4917
11046TIP3    H254630   4.454   2.877   1.351  0.7913  0.2615 -0.1101
11047TIP3   OH254631   0.069   6.306  16.971 -0.3455 -0.0449  0.2118
11047TIP3    H154632   0.020   6.224  16.960  1.1685 -0.9349  0.0550
11047TIP3    H254633   0.123   6.292  17.048  0.0466  0.7412  0.0847
11048TIP3   OH254634   5.473   0.636   0.650  0.8574  0.2769 -0.1203
11048TIP3    H154635   5.460   0.729   0.634  2.2315  0.6198  0.6995
11048TIP3    H254636   5.456   0.626   0.744  0.0582 -0.4168 -0.3347
11049TIP3   OH254637   6.005   1.940   0.541  0.2984 -0.2830 -0.2515
11049TIP3    H154638   6.087   1.932   0.493 -0.1523 -0.2322 -1.0419
11049TIP3    H254639   5.956   1.861   0.517  0.0169 -0.1949  0.0286
11050TIP3   OH254640   2.905   6.773  13.409  0.1106  0.4864  0.7201
11050TIP3    H154641   2.860   6.843  13.362  2.9945  3.2864  2.0057
11050TIP3    H254642   2.903   6.698  13.348 -1.7736  2.0713 -1.2400
11051TIP3   OH254643   3.084   5.026  16.048 -0.0304  0.2272  0.2151
11051TIP3    H154644   3.176   5.001  16.059  0.0627 -0.2866 -1.6268
11051TIP3    H254645   3.049   4.961  15.988 -0.2839  3.3347 -3.1435
11052TIP3   OH254646   5.246   4.820  16.326  0.2040  0.1941 -0.0412
11052TIP3    H154647   5.170   4.807  16.384  0.9233  0.8788  1.0712
11052TIP3    H254648   5.279   4.732  16.310 -0.4215 -0.0565  0.0073
11053TIP3   OH254649   0.550   4.181   4.242  0.1347 -0.3271 -0.3405
11053TIP3    H154650   0.503   4.144   4.316  0.2749  3.3340  1.7042
11053TIP3    H254651   0.483   4.194   4.175 -0.4082 -1.6612 -0.0689
11054TIP3   OH254652   4.891   6.373  16.234  0.2234 -0.8180  0.2649
11054TIP3    H154653   4.926   6.399  16.149 -0.0446  1.9879  0.9883
11054TIP3    H254654   4.961   6.392  16.296 -0.6575 -0.0776  1.0498
11055TIP3   OH254655   3.327   2.636  11.878  0.3178 -0.0927  0.2379
11055TIP3    H154656   3.375   2.718  11.866 -0.4645  0.4629  0.8149
11055TIP3    H254657   3.384   2.569  11.842  0.6965  0.7853 -0.8118
11056TIP3   OH254658   6.167   1.934   0.958  0.1561 -0.4674  0.4278
11056TIP3    H154659   6.223   1.864   0.993  2.0124  0.8690  0.2413
11056TIP3    H254660   6.229   2.001   0.929 -1.4898  0.2114 -1.6630
11057TIP3   OH254661   6.776   4.382   0.628 -0.5546  0.2115 -0.4796
11057TIP3    H154662   6.841   4.439   0.670 -2.8386  1.3380  1.6981
11057TIP3    H254663   6.766   4.416   0.540  1.4505  0.3123 -0.6749
11058TIP3   OH254664   0.540   3.167  13.148 -0.1181  0.1481 -0.0614
11058TIP3    H154665   0.519   3.205  13.233 -0.4376  3.1040 -1.3847
11058TIP3    H254666   0.473   3.101  13.133 -1.0415  0.7843  1.2439
11059TIP3   OH254667   5.717   2.206   2.485 -0.0203  0.3032 -0.2827
11059TIP3    H154668   5.724   2.190   2.580  2.5942  0.3596 -0.4399
11059TIP3    H254669   5.685   2.296   2.479  1.8488  1.0612  0.5732
11060TIP3   OH254670   2.217   4.911  12.290  0.4380  0.2364  0.4808
11060TIP3    H154671   2.197   4.827  12.332  0.8699  0.0806  0.3888
11060TIP3    H254672   2.149   4.970  12.320  0.6396  0.0782  1.2643
11061TIP3   OH254673   1.906   1.585   2.294  0.1692 -0.1224  0.2665
11061TIP3    H154674   1.910   1.575   2.199  0.6549 -0.4081  0.3180
11061TIP3    H254675   1.963   1.659   2.313  1.5824 -1.2429  0.5181
11062TIP3   OH254676   3.005   6.385   2.337 -0.9189  0.5289 -0.6383
11062TIP3    H154677   3.060   6.307   2.336  0.3471  1.4384 -2.6440
11062TIP3    H254678   3.063   6.456   2.365 -1.7494  0.9996 -0.0691
11063TIP3   OH254679   6.235   3.027  15.177  0.3802 -0.2426 -0.0838
11063TIP3    H154680   6.226   3.119  15.151 -0.2427  0.2778  1.9323
11063TIP3    H254681   6.253   2.981  15.095 -2.2057  1.2704 -1.5624
11064TIP3   OH254682   5.901   5.099  13.864 -0.0094 -0.5294 -0.1741
11064TIP3    H154683   5.875   5.075  13.953  1.4311 -0.2180  0.3376
11064TIP3    H254684   5.919   5.193  13.869 -0.4138 -0.4096 -0.9196
11065TIP3   OH254685   0.400   2.507   6.120 -0.3592 -0.1152  0.2291
11065TIP3    H154686   0.311   2.540   6.136  0.1921  1.9654 -0.7595
11065TIP3    H254687   0.441   2.505   6.206 -0.7230  0.9447  0.4416
11066TIP3   OH254688   2.104   4.741  13.149 -0.1781  0.1766 -0.3323
11066TIP3    H154689   2.062   4.760  13.234 -0.7949  0.2080 -0.6421
11066TIP3    H254690   2.068   4.657  13.122 -0.7074  0.6154 -1.0146
11067TIP3   OH254691   1.501   2.665  14.654  0.5574 -0.2724  0.0014
11067TIP3    H154692   1.417   2.702  14.682  1.4563  1.0915  0.9559
11067TIP3    H254693   1.490   2.571  14.664 -2.0143 -0.3813 -3.1107
11068TIP3   OH254694   5.002   0.068  12.236 -0.1217 -0.3126  0.4325
11068TIP3    H154695   5.016  -0.024  12.214  2.6328 -0.0675  0.9487
11068TIP3    H254696   5.028   0.115  12.157 -0.3123  0.0893  0.6079
11069TIP3   OH254697   6.693   0.475  14.092 -0.5927 -0.1978 -0.1412
11069TIP3    H154698   6.703   0.482  13.998 -2.0599  0.1210 -0.2916
11069TIP3    H254699   6.706   0.382  14.111 -1.1240 -0.4040 -0.7711
11070TIP3   OH254700   5.590   6.603  13.603 -0.1515  0.2522  0.2974
11070TIP3    H154701   5.625   6.689  13.628  1.7313 -0.0149 -1.2578
11070TIP3    H254702   5.646   6.575  13.531  1.5232 -3.8545  3.0039
11071TIP3   OH254703   2.972   2.701  15.330 -0.0639 -0.1655 -0.5263
11071TIP3    H154704   2.944   2.655  15.250  0.5452  0.6626 -1.2243
11071TIP3    H254705   2.892   2.706  15.383  0.2219 -3.5122  0.3253
11072TIP3   OH254706   5.931   3.537   3.661  0.3711  0.1962 -0.4447
11072TIP3    H154707   5.975   3.462   3.701  2.0286  2.2685  1.7821
11072TIP3    H254708   5.992   3.568   3.594  0.6788  0.8136  0.1061
11073TIP3   OH254709   6.779   2.316   0.491 -0.2537 -0.3043 -0.7620
11073TIP3    H154710   6.705   2.305   0.551  0.3747  1.0508  0.3028
11073TIP3    H254711   6.754   2.268   0.412 -2.5380  0.6875 -0.6692
11074TIP3   OH254712   5.600   3.424   0.822 -0.8508 -0.4035  0.3819
11074TIP3    H154713   5.558   3.510   0.824 -0.7747 -0.3733  0.6381
11074TIP3    H254714   5.688   3.439   0.854 -0.3187 -0.2893 -1.0976
11075TIP3   OH254715   3.989   3.336  11.391  0.6339 -0.9973 -0.2293
11075TIP3    H154716   3.930   3.280  11.442 -3.2945  3.3445  0.2769
11075TIP3    H254717   4.033   3.390  11.456  0.6789 -0.0907 -1.0125
11076TIP3   OH254718   0.197   1.349   0.965  0.4271  0.6288  0.1324
11076TIP3    H154719   0.252   1.334   1.041 -0.3727 -1.2651  0.3670
11076TIP3    H254720   0.255   1.389   0.900  1.4858  0.7970  1.1779
11077TIP3   OH254721   5.444   3.235  13.185  0.3954  0.3784 -0.2332
11077TIP3    H154722   5.477   3.316  13.224 -0.9542  0.5804  0.5069
11077TIP3    H254723   5.405   3.262  13.101 -2.1235  0.8649  1.0605
11078TIP3   OH254724   1.105   3.632   1.104 -0.3307 -0.0769  0.0828
11078TIP3    H154725   1.016   3.610   1.132 -0.1486  0.6241  1.2648
11078TIP3    H254726   1.151   3.653   1.186  0.8061 -0.0308 -0.5599
11079TIP3   OH254727   0.258   3.054   4.965 -0.4668  0.4232 -0.0691
11079TIP3    H154728   0.258   2.991   4.892  0.5593  0.9315 -0.5212
11079TIP3    H254729   0.237   3.002   5.042  1.3994 -0.6948 -0.2771
11080TIP3   OH254730   4.073   5.616   1.597  0.8230 -0.3854  0.2052
11080TIP3    H154731   4.041   5.707   1.600 -1.3730 -1.0712 -1.0154
11080TIP3    H254732   4.157   5.619   1.643  0.5968  2.1821  0.5685
11081TIP3   OH254733   2.006   2.856   2.481  0.1831  0.0545  0.4554
11081TIP3    H154734   2.084   2.855   2.425  0.5052 -3.6485  0.8466
11081TIP3    H254735   2.030   2.915   2.554  1.0749  2.1019 -1.4332
11082TIP3   OH254736   4.849   2.946  14.486 -0.3636 -0.3684  0.3897
11082TIP3    H154737   4.894   3.011  14.432  0.8890 -1.7858 -0.2854
11082TIP3    H254738   4.798   2.895  14.424 -1.4615  0.0454  0.9426
11083TIP3   OH254739   4.331   1.785   0.899 -0.1651 -0.2594 -0.6516
11083TIP3    H154740   4.292   1.701   0.922 -0.6569 -0.1633 -1.1157
11083TIP3    H254741   4.424   1.765   0.885 -0.4139 -0.8756 -1.4919
11084TIP3   OH254742   1.630   1.178   1.576  0.9762  0.0087  0.7564
11084TIP3    H154743   1.603   1.126   1.652  1.1092 -0.0615  0.7549
11084TIP3    H254744   1.594   1.265   1.593 -0.3207 -0.4062  0.1628
11085TIP3   OH254745   1.460   5.691  13.459  0.7046 -0.2481  0.3561
11085TIP3    H154746   1.441   5.736  13.377  0.9143  0.3925  0.6578
11085TIP3    H254747   1.380   5.703  13.511  1.7125  2.0581  1.4529
11086TIP3   OH254748   4.012   5.384  12.491  0.0348 -0.4157 -0.4643
11086TIP3    H154749   3.933   5.425  12.525 -0.2598 -1.1135 -0.3205
11086TIP3    H254750   3.995   5.290  12.494  1.0342 -0.5904 -0.0286
11087TIP3   OH254751   4.860   3.962   2.190  0.4282 -0.2012 -0.0765
11087TIP3    H154752   4.911   3.909   2.129  0.4217 -0.0482 -0.2166
11087TIP3    H254753   4.918   4.035   2.213  0.7083 -0.6642  0.6924
11088TIP3   OH254754   4.756   0.335  12.070 -0.1465 -0.6102  0.2679
11088TIP3    H154755   4.679   0.286  12.101 -0.5227  0.0791  0.4429
11088TIP3    H254756   4.781   0.388  12.146 -0.2437  0.0781 -0.1834
11089TIP3   OH254757   3.300   1.410   2.875  0.4911 -0.6645  0.0642
11089TIP3    H154758   3.206   1.429   2.874  0.3961 -0.7234  3.4267
11089TIP3    H254759   3.308   1.331   2.822 -1.2276 -0.1512 -1.0237
11090TIP3   OH254760   1.613   1.039  16.031 -0.1850 -0.3736 -0.6207
11090TIP3    H154761   1.681   1.036  16.098 -2.0861  0.2912  1.4083
11090TIP3    H254762   1.621   0.955  15.985 -0.5103 -1.9921  2.1569
11091TIP3   OH254763   5.750   2.908  16.316 -0.2725 -0.5331  0.2042
11091TIP3    H154764   5.817   2.947  16.261 -1.1682 -0.4560 -0.8596
11091TIP3    H254765   5.674   2.965  16.306 -0.2065 -0.0951  2.1358
11092TIP3   OH254766   4.453   5.657   4.934  0.2050  0.5205 -0.1814
11092TIP3    H154767   4.499   5.574   4.917  1.2768  1.0258  0.1981
11092TIP3    H254768   4.403   5.640   5.014 -0.4392 -0.1077 -0.7211
11093TIP3   OH254769   5.721   2.507  15.132 -0.3688 -0.4716 -0.4583
11093TIP3    H154770   5.814   2.489  15.125  0.0345  1.6524 -0.5986
11093TIP3    H254771   5.694   2.461  15.212  1.4037  1.3196  1.2199
11094TIP3   OH254772   6.719   6.526  14.144 -0.5329  0.1606  0.4246
11094TIP3    H154773   6.690   6.436  14.157 -0.9149  0.2036 -0.1003
11094TIP3    H254774   6.691   6.547  14.055  0.3288  0.5031  0.2296
11095TIP3   OH254775   0.753   1.913   5.704  0.0307 -0.3424 -0.0162
11095TIP3    H154776   0.818   1.961   5.654  0.0507  0.5673  0.8812
11095TIP3    H254777   0.733   1.837   5.649 -0.4307  0.9613 -1.7138
11096TIP3   OH254778   5.732   5.762   4.993  0.1914  0.1724  0.0337
11096TIP3    H154779   5.805   5.761   4.931 -0.7846 -0.1045 -1.1305
11096TIP3    H254780   5.724   5.671   5.022 -0.5284 -0.0611 -0.8597
11097TIP3   OH254781   4.931   1.183  11.181 -0.4055 -0.4476 -0.2596
11097TIP3    H154782   4.899   1.242  11.249 -0.0997  0.1728 -0.6503
11097TIP3    H254783   4.875   1.200  11.105  1.7526  1.7441 -1.4483
11098TIP3   OH254784   1.771   1.815  14.744 -0.0979  0.1514 -0.1091
11098TIP3    H154785   1.838   1.747  14.752 -1.8531 -1.6118 -0.1208
11098TIP3    H254786   1.820   1.895  14.728  1.9496 -1.4027 -1.9215
11099TIP3   OH254787   4.625   4.519  14.642  0.2560  0.0425  0.2822
11099TIP3    H154788   4.575   4.549  14.567  1.9438  3.4876  0.4559
11099TIP3    H254789   4.707   4.486  14.605  0.2816 -0.0979  0.4605
11100TIP3   OH254790   6.708   2.722   4.409 -0.0996 -1.1293  0.1656
11100TIP3    H154791   6.637   2.773   4.446  0.3034 -1.1970  1.0519
11100TIP3    H254792   6.779   2.729   4.473  0.2700 -2.0559 -0.1229
11101TIP3   OH254793   5.246   1.164   3.020 -0.1374  0.1389 -0.2873
11101TIP3    H154794   5.172   1.165   3.080  1.2078  1.6634  1.4025
11101TIP3    H254795   5.309   1.224   3.059  1.9289 -1.0122 -1.7634
11102TIP3   OH254796   2.283   0.804  13.036  0.1830  0.5531  0.0919
11102TIP3    H154797   2.354   0.867  13.048  0.0838  1.2020 -2.5389
11102TIP3    H254798   2.299   0.767  12.950 -2.4599  0.3891 -0.3450
11103TIP3   OH254799   5.367   5.350   3.851 -0.3703 -0.1533  0.0589
11103TIP3    H154800   5.434   5.285   3.829 -0.9832 -0.4120 -1.0853
11103TIP3    H254801   5.334   5.380   3.767 -0.1326  1.6248  0.5888
11104TIP3   OH254802   1.298   2.333  14.334  0.2552  0.0865  0.1229
11104TIP3    H154803   1.297   2.383  14.252  2.4248 -0.9286 -0.5675
11104TIP3    H254804   1.334   2.248  14.309  0.7747 -0.3011  2.1070
11105TIP3   OH254805   3.401   0.117  11.260  0.3551 -0.4663 -0.0461
11105TIP3    H154806   3.316   0.118  11.216 -0.2927  1.5933  1.1649
11105TIP3    H254807   3.385   0.071  11.342  0.3065  0.2767  0.3640
11106TIP3   OH254808   2.816   1.739   5.987 -0.1128 -0.5107 -0.7374
11106TIP3    H154809   2.726   1.712   6.002  0.4646 -2.4543 -0.5988
11106TIP3    H254810   2.842   1.786   6.066 -0.6957 -0.8159 -0.3680
11107TIP3   OH254811   6.599   2.971   0.387 -0.2042  0.0677 -0.0665
11107TIP3    H154812   6.611   2.900   0.323 -1.8447  1.4187 -1.9688
11107TIP3    H254813   6.677   2.968   0.442  0.3978 -2.3234 -0.9805
11108TIP3   OH254814   2.638   1.247  16.211  0.8975  0.7389  0.3409
11108TIP3    H154815   2.648   1.341  16.200  0.1784  0.7272 -0.4212
11108TIP3    H254816   2.555   1.236  16.257  1.2063  0.4961  0.8511
11109TIP3   OH254817   5.128   1.680  10.466  0.1897 -0.6477  0.0594
11109TIP3    H154818   5.073   1.641  10.398  3.3269 -1.2175 -2.2845
11109TIP3    H254819   5.193   1.613  10.486  1.0488  0.6015  1.5671
11110TIP3   OH254820   0.654   3.357  13.620  0.1126  0.3333 -0.0284
11110TIP3    H154821   0.691   3.271  13.601  0.0946  0.7281 -1.9750
11110TIP3    H254822   0.609   3.345  13.704 -0.8278 -1.8677 -0.7825
11111TIP3   OH254823   5.020   4.014   0.857  0.2110 -1.0377 -0.2224
11111TIP3    H154824   5.037   4.089   0.801  0.7676  1.1398  2.7155
11111TIP3    H254825   4.925   4.007   0.859  0.1190  0.2389  0.2740
11112TIP3   OH254826   2.374   2.780  14.741  0.0476 -0.1166 -0.0467
11112TIP3    H154827   2.450   2.838  14.749  0.4193 -0.4657 -0.9667
11112TIP3    H254828   2.303   2.829  14.782  0.3334  1.0245 -0.8847
11113TIP3   OH254829   4.810   5.358  13.530  0.0838  0.1874  0.0704
11113TIP3    H154830   4.748   5.415  13.485  0.1970 -0.8005 -1.3701
11113TIP3    H254831   4.818   5.396  13.617  0.8091  2.8699 -1.1119
11114TIP3   OH254832   0.255   3.250   4.457  0.1548  0.0976 -0.2958
11114TIP3    H154833   0.194   3.322   4.437 -0.2151 -0.1261  0.0159
11114TIP3    H254834   0.292   3.227   4.372 -2.3150 -1.6566 -0.9559
11115TIP3   OH254835   2.016   5.856   1.586 -0.3836 -0.2482  0.0317
11115TIP3    H154836   1.990   5.934   1.537  0.2855 -0.9742 -1.4906
11115TIP3    H254837   1.984   5.873   1.675 -1.5543  1.1077 -0.6130
11116TIP3   OH254838   4.943   0.459   6.148 -0.0155  0.4448 -0.0251
11116TIP3    H154839   5.030   0.498   6.142  0.8197 -0.9860  1.9710
11116TIP3    H254840   4.884   0.532   6.168  1.1514  1.0498  1.2615
11117TIP3   OH254841   4.280   5.833  15.557  0.1359 -0.1500  0.3321
11117TIP3    H154842   4.219   5.825  15.484  0.1361 -1.2625  0.4483
11117TIP3    H254843   4.367   5.838  15.516  0.1464 -0.9076  0.2562
11118TIP3   OH254844   3.420   0.000   4.771 -0.0191  0.3025  0.0306
11118TIP3    H154845   3.503   0.045   4.754 -0.6470  0.6289 -2.3216
11118TIP3    H254846   3.364   0.068   4.809  0.9308 -0.0533  2.1348
11119TIP3   OH254847   4.582   1.624  12.400  0.1309 -0.0980 -0.0364
11119TIP3    H154848   4.665   1.578  12.388  0.1746  0.3619 -1.5421
11119TIP3    H254849   4.589   1.703  12.346 -1.3105 -0.0976 -0.2513
11120TIP3   OH254850   0.667   5.082  12.278 -0.1176 -0.2797 -0.0006
11120TIP3    H154851   0.729   5.123  12.218 -0.8535  0.6003 -0.1820
11120TIP3    H254852   0.605   5.037  12.221 -3.0128  3.6417 -0.1880
11121TIP3   OH254853   2.111   3.448  15.986 -0.5958 -0.1913  0.3261
11121TIP3    H154854   2.113   3.360  16.023 -1.4467 -0.7343 -0.8887
11121TIP3    H254855   2.196   3.458  15.944 -2.2983 -2.3967 -3.9198
11122TIP3   OH254856   4.671   1.620  16.924 -0.4662  0.0163 -0.0736
11122TIP3    H154857   4.578   1.605  16.903 -1.3195  4.0922  0.3769
11122TIP3    H254858   4.671   1.698  16.979  3.1285 -1.1139  1.6851
11123TIP3   OH254859   4.964   4.139  13.926  0.4230 -0.9304  0.4252
11123TIP3    H154860   5.031   4.082  13.888  0.5587 -1.6675  1.7498
11123TIP3    H254861   5.013   4.204  13.976  0.2418 -0.0013 -0.5839
11124TIP3   OH254862   0.628   1.798   0.522 -0.6408 -0.8109 -0.2724
11124TIP3    H154863   0.657   1.842   0.442  1.6098  2.8547  2.3937
11124TIP3    H254864   0.706   1.757   0.558 -0.9628  0.0529  1.5071
11125TIP3   OH254865   2.262   6.325   1.081 -0.5214 -0.5936  0.3973
11125TIP3    H154866   2.321   6.336   1.006  3.3922  0.4818  3.4641
11125TIP3    H254867   2.210   6.406   1.083  1.8261  0.9498  0.8415
11126TIP3   OH254868   5.880   2.856  11.321  0.3901 -0.4889  0.5389
11126TIP3    H154869   5.873   2.939  11.370 -0.2366 -1.2666  1.7935
11126TIP3    H254870   5.843   2.876  11.235 -0.1428  0.4386  0.9726
11127TIP3   OH254871   6.346   4.873   1.538  0.1940  0.2293  0.3426
11127TIP3    H154872   6.308   4.831   1.462 -1.6251 -0.1080  1.4130
11127TIP3    H254873   6.348   4.966   1.516  0.2868  0.0645 -0.3552
11128TIP3   OH254874   4.143   4.857   4.804  0.0625  0.3380 -0.3298
11128TIP3    H154875   4.172   4.854   4.713  0.8167  0.3370 -0.0913
11128TIP3    H254876   4.069   4.919   4.804 -0.0305  0.2241 -0.9625
11129TIP3   OH254877   4.699   6.194  12.039 -0.1120 -0.4991 -0.2705
11129TIP3    H154878   4.723   6.102  12.051 -0.3567 -0.1447  3.6197
11129TIP3    H254879   4.606   6.197  12.057  0.2050  0.7490  1.2312
11130TIP3   OH254880   3.044   5.941   3.583  0.7856  0.4095 -0.4148
11130TIP3    H154881   3.058   5.954   3.677 -0.7971 -1.2911  0.0689
11130TIP3    H254882   3.069   5.850   3.567  0.6773  0.5773 -1.5628
11131TIP3   OH254883   6.456   1.669   4.917 -0.7468  0.0245 -0.1220
11131TIP3    H154884   6.482   1.582   4.945  0.6521  1.4077  3.1292
11131TIP3    H254885   6.368   1.680   4.951 -0.9247 -0.1066 -0.5340
11132TIP3   OH254886   5.896   4.474  14.854 -0.2555 -0.2811  0.0174
11132TIP3    H154887   5.919   4.566  14.840  0.4880 -0.2931  1.0868
11132TIP3    H254888   5.836   4.475  14.928  0.1016 -0.6999  0.3140
11133TIP3   OH254889   4.968   2.479  10.689  0.3579 -0.1839  0.7248
11133TIP3    H154890   4.937   2.477  10.779  1.2181 -1.5188  1.0013
11133TIP3    H254891   5.014   2.396  10.677  2.2192  0.9589 -0.2550
11134TIP3   OH254892   1.251   5.840   3.416  0.1364  0.2802  0.4409
11134TIP3    H154893   1.341   5.840   3.383  0.0419  1.1276  0.1583
11134TIP3    H254894   1.219   5.752   3.400  0.6109  0.2418 -0.3216
11135TIP3   OH254895   0.265   6.178   3.380 -0.0146 -0.0158  0.4220
11135TIP3    H154896   0.222   6.096   3.405 -1.3486  0.2909 -0.8314
11135TIP3    H254897   0.264   6.178   3.285  3.4331 -0.3273  0.3143
11136TIP3   OH254898   4.178   3.602   1.692 -1.0964  0.2334 -0.2803
11136TIP3    H154899   4.251   3.544   1.669  0.6163  1.9203  0.8316
11136TIP3    H254900   4.106   3.542   1.713  0.6457 -1.5129  0.8991
11137TIP3   OH254901   6.692   6.157   5.704  0.1272 -0.7287  0.2069
11137TIP3    H154902   6.705   6.065   5.725  0.5357 -0.8215 -0.4226
11137TIP3    H254903   6.597   6.167   5.697 -0.0121 -0.7225  1.9258
11138TIP3   OH254904   6.306   0.737  12.133  0.4103  0.3925  0.3554
11138TIP3    H154905   6.309   0.736  12.229  0.0134 -0.7454  0.3573
11138TIP3    H254906   6.378   0.680  12.106  0.9647  1.2624 -0.0432
11139TIP3   OH254907   3.076   2.168  11.349  0.1115 -0.0069  1.0726
11139TIP3    H154908   3.039   2.086  11.383 -1.7545  0.3824  0.0423
11139TIP3    H254909   3.139   2.195  11.416  1.0135 -2.4481  1.2674
11140TIP3   OH254910   5.541   6.327  11.252  0.1532  0.8318 -0.2926
11140TIP3    H154911   5.605   6.393  11.226  0.9802  0.6071  1.0924
11140TIP3    H254912   5.519   6.351  11.342  0.4977 -0.8119  0.2345
11141TIP3   OH254913   2.105   2.318  16.739  0.5822 -0.3378  0.1894
11141TIP3    H154914   2.155   2.397  16.761 -1.0127  0.5392  0.7832
11141TIP3    H254915   2.171   2.256  16.708  1.9389  1.0331  0.2396
11142TIP3   OH254916   4.924   3.927  11.692 -0.1506 -0.3853  0.1059
11142TIP3    H154917   4.941   3.859  11.756 -0.0891 -0.9690 -0.5197
11142TIP3    H254918   4.880   3.882  11.620  0.4409  0.1078 -0.5856
11143TIP3   OH254919   1.506   2.722   5.593 -1.0259 -0.0939 -0.1279
11143TIP3    H154920   1.498   2.651   5.656 -1.0259 -1.2370 -1.3923
11143TIP3    H254921   1.598   2.719   5.565 -0.8892  0.7527  0.2044
11144TIP3   OH254922   0.178   6.773   1.993 -0.4716  0.1342  1.0706
11144TIP3    H154923   0.175   6.819   2.077 -2.0494 -0.0808  1.1466
11144TIP3    H254924   0.139   6.834   1.931  1.5785  0.6748  0.2924
11145TIP3   OH254925   2.094   3.439   0.325 -0.0058 -0.3191 -0.1452
11145TIP3    H154926   2.163   3.484   0.374  0.3514  0.2579 -1.1563
11145TIP3    H254927   2.094   3.482   0.239 -0.4393 -1.4948 -0.7435
11146TIP3   OH254928   3.744   1.291   1.809  0.2771  0.3906  0.0788
11146TIP3    H154929   3.773   1.208   1.848 -0.1855 -0.5109 -1.4493
11146TIP3    H254930   3.722   1.268   1.719  0.6851  2.3014 -0.5224
11147TIP3   OH254931   0.966   0.182   5.456  0.2694  0.0109  0.8856
11147TIP3    H154932   1.036   0.207   5.396  0.5928 -0.8857  0.8773
11147TIP3    H254933   0.905   0.256   5.454  0.7459  0.3940  0.1755
11148TIP3   OH254934   1.803   4.646   4.594  0.1582  0.3631 -0.1940
11148TIP3    H154935   1.725   4.643   4.649 -0.1838 -0.8438 -0.7263
11148TIP3    H254936   1.876   4.634   4.655 -0.1328  0.5293  0.1893
11149TIP3   OH254937   6.756   6.653  12.224 -0.4288 -0.2739 -0.1287
11149TIP3    H154938   6.782   6.590  12.292  0.4330  0.9276  0.6917
11149TIP3    H254939   6.779   6.611  12.142  0.4046 -0.9263  0.4290
11150TIP3   OH254940   0.081   5.225  11.479 -0.3054 -0.6826  0.3441
11150TIP3    H154941   0.050   5.240  11.568 -0.4563 -0.5997  0.2781
11150TIP3    H254942   0.069   5.131  11.465  1.3292 -1.0058  1.0201
11151TIP3   OH254943   1.026   5.189  13.332 -0.4473 -0.2960 -0.0172
11151TIP3    H154944   1.099   5.139  13.367 -1.1041 -1.8055 -0.7951
11151TIP3    H254945   1.005   5.252  13.402  1.5271  0.1213  0.2297
11152TIP3   OH254946   1.971   2.282   3.595 -0.1551 -0.3191  0.0078
11152TIP3    H154947   1.982   2.283   3.500 -1.0556  0.4359 -0.1028
11152TIP3    H254948   2.051   2.244   3.628  1.3155  1.8621 -0.9188
11153TIP3   OH254949   3.605   3.688   0.626  0.5806  0.3440  0.0476
11153TIP3    H154950   3.675   3.651   0.574  0.3814  0.7576 -0.5287
11153TIP3    H254951   3.566   3.755   0.569 -2.6974 -2.3872 -1.1383
11154TIP3   OH254952   2.801   6.421  13.634  0.0293 -0.4308 -0.0290
11154TIP3    H154953   2.807   6.449  13.726 -0.6677 -0.8508  0.1490
11154TIP3    H254954   2.870   6.356  13.624 -0.6110 -1.2104  0.5115
11155TIP3   OH254955   6.733   4.332   2.280 -0.0594  0.6806  0.1313
11155TIP3    H154956   6.685   4.305   2.359 -1.2589  1.0535 -0.4528
11155TIP3    H254957   6.674   4.310   2.208  0.3022  1.9138 -0.5532
11156TIP3   OH254958   4.696   3.732  11.732  0.0504  0.1105  0.4385
11156TIP3    H154959   4.643   3.799  11.776 -0.3344 -1.4227  2.4033
11156TIP3    H254960   4.675   3.742  11.639 -0.9511  1.8708  0.8131
11157TIP3   OH254961   1.199   2.704  17.240  0.7422  0.4821  0.2251
11157TIP3    H154962   1.213   2.754  17.320 -0.5096 -0.1853  0.8847
11157TIP3    H254963   1.271   2.640  17.238 -0.7918 -1.3831  2.3326
11158TIP3   OH254964   0.505   3.537   6.422  0.5267  0.4035 -0.0030
11158TIP3    H154965   0.500   3.446   6.451  2.8037  0.4863  0.7085
11158TIP3    H254966   0.474   3.534   6.331  1.4605 -1.2426 -0.2958
11159TIP3   OH254967   2.488   3.385  13.629  0.2561 -0.1990 -0.5645
11159TIP3    H154968   2.538   3.336  13.563 -0.9830 -3.0784  0.5544
11159TIP3    H254969   2.399   3.387  13.594 -0.7256 -2.9731  1.5855
11160TIP3   OH254970   6.555   2.956   4.480  0.3415  0.2959 -0.0394
11160TIP3    H154971   6.472   2.937   4.437 -0.4063  0.9956  1.0693
11160TIP3    H254972   6.550   2.909   4.564  1.7549 -1.0024 -0.6581
11161TIP3   OH254973   0.148   0.513  10.943 -0.1728  0.7191  0.0437
11161TIP3    H154974   0.176   0.435  10.990  0.3450 -0.0648 -1.5287
11161TIP3    H254975   0.059   0.492  10.912 -0.3699  1.0840  0.3630
11162TIP3   OH254976   3.771   5.485   2.132  0.5444  0.0381  0.5850
11162TIP3    H154977   3.735   5.475   2.043  0.0153  1.0815  0.6778
11162TIP3    H254978   3.695   5.477   2.189  0.5568  1.5729  0.8212
11163TIP3   OH254979   3.360   6.063  16.321  0.2799 -0.5103 -0.8449
11163TIP3    H154980   3.310   6.020  16.390  1.4338 -1.2617 -0.4593
11163TIP3    H254981   3.390   5.992  16.265  1.0672 -0.0948 -0.9619
11164TIP3   OH254982   2.881   0.600  13.705 -0.1289 -0.3828 -0.1334
11164TIP3    H154983   2.839   0.514  13.702 -0.5671 -0.2765  2.1010
11164TIP3    H254984   2.809   0.663  13.695  0.0606 -0.2398 -0.6591
11165TIP3   OH254985   3.371   5.615  11.200 -0.2059  0.8545  0.0313
11165TIP3    H154986   3.386   5.700  11.159 -1.3634  0.5523 -1.0604
11165TIP3    H254987   3.371   5.553  11.127 -2.4749  0.3378  0.4400
11166TIP3   OH254988   2.389   0.567  16.552 -0.0735 -0.2356 -0.3116
11166TIP3    H154989   2.474   0.593  16.517 -0.2019  0.8662  0.1526
11166TIP3    H254990   2.408   0.524  16.635 -0.0952  2.5307  1.1990
11167TIP3   OH254991   2.443   5.306   0.100 -0.0491 -0.0194 -0.0785
11167TIP3    H154992   2.417   5.273   0.186 -0.6212 -0.5585 -0.4503
11167TIP3    H254993   2.360   5.316   0.052  0.2132  0.8634 -0.3618
11168TIP3   OH254994   5.487   3.958  15.638  0.2807  0.5432  0.0973
11168TIP3    H154995   5.445   4.023  15.581 -1.0527  0.1617  0.6336
11168TIP3    H254996   5.531   4.010  15.705  1.2438  0.9701 -0.8479
11169TIP3   OH254997   5.412   1.247   5.237 -0.2391  0.1779  0.2193
11169TIP3    H154998   5.364   1.225   5.317 -0.3557  0.0772  0.1223
11169TIP3    H254999   5.488   1.296   5.267 -0.6109  0.6762  0.3390
11170TIP3   OH255000   4.666   2.666  14.405  0.1745  0.0464 -0.1688
11170TIP3    H155001   4.621   2.609  14.342 -0.2281 -0.2338  0.3731
11170TIP3    H255002   4.632   2.639  14.490  0.0769  1.0159  0.0983
11171TIP3   OH255003   5.830   5.331  17.159  0.6083  0.0371 -0.1896
11171TIP3    H155004   5.766   5.344  17.229  0.1393  0.0058 -0.6123
11171TIP3    H255005   5.873   5.415  17.149 -0.5013  0.5199 -1.0225
11172TIP3   OH255006   6.193   2.710  13.418 -0.6871 -1.0763 -0.0935
11172TIP3    H155007   6.160   2.660  13.343 -0.3179 -1.2299 -0.1514
11172TIP3    H255008   6.268   2.758  13.384 -3.1328  2.3085 -1.0013
11173TIP3   OH255009   3.114   2.772   5.445 -0.3465 -0.7941 -0.2741
11173TIP3    H155010   3.169   2.811   5.513 -1.0433  0.9945 -0.7081
11173TIP3    H255011   3.158   2.691   5.422  1.8462  0.3573 -0.2568
11174TIP3   OH255012   0.031   2.952   5.444  0.4770 -0.0513 -0.1014
11174TIP3    H155013   0.101   2.995   5.493  0.0381  1.1233 -0.4989
11174TIP3    H255014   0.013   2.872   5.494  1.4759  0.0784  0.4924
11175TIP3   OH255015   3.798   4.129   2.614  0.1328  0.9261  0.1729
11175TIP3    H155016   3.814   4.093   2.527  1.2571  0.4830  0.5518
11175TIP3    H255017   3.871   4.097   2.667  0.2419  2.3630  0.9281
11176TIP3   OH255018   3.708   1.852  17.032 -0.4502 -0.1461 -0.1207
11176TIP3    H155019   3.780   1.865  17.094  0.4851  0.6441 -1.3486
11176TIP3    H255020   3.727   1.768  16.990  1.8032  1.7946 -3.1042
11177TIP3   OH255021   6.686   1.154  15.751 -0.4530 -0.1071 -0.3701
11177TIP3    H155022   6.735   1.084  15.707 -0.0219 -0.3119  0.4225
11177TIP3    H255023   6.658   1.212  15.680  0.9783  0.0409 -0.8377
11178TIP3   OH255024   0.157   4.377   2.176 -0.1815  0.6757  0.0183
11178TIP3    H155025   0.171   4.345   2.087  0.4747  0.2142  0.2860
11178TIP3    H255026   0.063   4.364   2.192 -0.2325  0.4329 -0.4766
11179TIP3   OH255027   0.089   1.492  11.903  0.4992  0.7100  0.1567
11179TIP3    H155028   0.035   1.516  11.978  2.1797  0.9911  1.2885
11179TIP3    H255029   0.097   1.573  11.852 -0.8455  0.4589 -0.4704
11180TIP3   OH255030   2.228   3.862   2.706 -0.8501 -0.0081  0.4137
11180TIP3    H155031   2.222   3.856   2.610  0.0346 -1.4406  0.4282
11180TIP3    H255032   2.208   3.774   2.736 -1.3587  0.4989  1.5722
11181TIP3   OH255033   3.842   1.471  16.176 -0.0424  0.0750  0.2386
11181TIP3    H155034   3.893   1.524  16.114  0.4210  0.1528  0.6884
11181TIP3    H255035   3.907   1.423  16.227 -0.4323 -0.1856  0.4961
11182TIP3   OH255036   4.096   4.169  14.794  0.7682 -0.1829 -0.5561
11182TIP3    H155037   4.103   4.111  14.718  0.4896 -1.1106  0.1324
11182TIP3    H255038   4.008   4.155  14.827  0.8681  0.2808 -0.0890
11183TIP3   OH255039   2.069   5.238   6.112 -0.4127 -0.4328 -0.9174
11183TIP3    H155040   2.108   5.238   6.025  2.2713 -1.6778  0.2275
11183TIP3    H255041   2.080   5.148   6.144 -0.0762  0.3470  1.2584
11184TIP3   OH255042   0.542   3.275  16.114 -0.2534 -0.4448 -0.2601
11184TIP3    H155043   0.565   3.277  16.021  1.1032 -1.1343  0.0453
11184TIP3    H255044   0.450   3.303  16.117 -0.2725 -0.3066 -1.7857
11185TIP3   OH255045   1.498   2.518   5.804  0.3917 -0.4268  0.0406
11185TIP3    H155046   1.458   2.566   5.876  0.4329  1.6306 -1.2685
11185TIP3    H255047   1.588   2.549   5.801  0.1737  0.1132 -1.3921
11186TIP3   OH255048   4.980   2.111  12.207 -0.5655 -0.1862 -0.0019
11186TIP3    H155049   4.962   2.022  12.237  1.1037  0.0256  1.7012
11186TIP3    H255050   4.924   2.166  12.262 -0.5200 -0.0825 -0.0591
11187TIP3   OH255051   5.544   4.672   4.562 -0.1930 -0.1479 -0.4571
11187TIP3    H155052   5.546   4.699   4.471 -4.6605  0.1793 -0.5558
11187TIP3    H255053   5.521   4.579   4.560 -0.0834 -0.2013  0.3254
11188TIP3   OH255054   6.785   4.100  14.150 -0.6731 -0.1281  0.1738
11188TIP3    H155055   6.810   4.020  14.197 -3.4313 -0.5245  1.0592
11188TIP3    H255056   6.700   4.124  14.187 -0.0131  3.0815 -0.2821
11189TIP3   OH255057   6.148   4.600  14.974  0.4736  0.0279 -0.6046
11189TIP3    H155058   6.093   4.532  15.014  1.1861  0.0207  0.3887
11189TIP3    H255059   6.209   4.625  15.044  1.7928 -0.0321 -1.7223
11190TIP3   OH255060   4.941   2.900   3.061 -0.1506 -0.6589  0.0470
11190TIP3    H155061   4.884   2.872   3.133 -0.2172 -0.3588  0.1099
11190TIP3    H255062   4.931   2.831   2.995 -0.5725 -0.6148  0.0632
11191TIP3   OH255063   0.498   6.075  13.464  0.0425 -0.2213  0.1385
11191TIP3    H155064   0.588   6.101  13.486 -0.2363  0.4584  0.4669
11191TIP3    H255065   0.443   6.145  13.499 -0.6593 -0.8897  0.3760
11192TIP3   OH255066   3.823   0.714   0.238  0.0837  0.4372 -0.3108
11192TIP3    H155067   3.729   0.720   0.252  0.2352  1.3648  0.3673
11192TIP3    H255068   3.841   0.771   0.164  0.1731  0.6269 -0.1445
11193TIP3   OH255069   6.178   1.218   5.139 -0.1454  0.4096 -0.2042
11193TIP3    H155070   6.100   1.265   5.167 -0.7370 -0.5502 -0.2257
11193TIP3    H255071   6.222   1.193   5.220  0.9191  2.1978 -0.1936
11194TIP3   OH255072   3.195   2.879  15.873  0.4009  0.1152  0.1227
11194TIP3    H155073   3.195   2.788  15.842  0.0470  0.2946 -0.4094
11194TIP3    H255074   3.148   2.876  15.956 -1.4040  0.1317 -0.8729
11195TIP3   OH255075   0.416   0.318   2.815 -0.0017 -0.1691 -0.7104
11195TIP3    H155076   0.341   0.356   2.861  0.7865 -1.0013  1.3407
11195TIP3    H255077   0.419   0.228   2.845  2.3738  0.1043 -0.0502
11196TIP3   OH255078   3.876   1.167  11.423  0.1475  0.7254  0.2232
11196TIP3    H155079   3.847   1.257  11.438  1.1927  0.9768  0.7939
11196TIP3    H255080   3.960   1.177  11.377 -0.8974  0.0115 -1.8895
11197TIP3   OH255081   3.111   0.544   1.682  0.1251 -0.2393 -0.2502
11197TIP3    H155082   3.047   0.475   1.697  0.2052 -0.4144 -0.7153
11197TIP3    H255083   3.191   0.512   1.725  0.1567 -0.4282 -0.4496
11198TIP3   OH255084   4.461   4.175   5.229  0.9545 -0.3593  0.7196
11198TIP3    H155085   4.405   4.102   5.255  1.0367 -0.8760 -0.5636
11198TIP3    H255086   4.400   4.240   5.194  0.9384 -0.0351  1.3470
11199TIP3   OH255087   6.432   4.958  14.440 -0.0735  0.0207  0.0080
11199TIP3    H155088   6.409   4.866  14.453  0.9917 -0.1788  0.5024
11199TIP3    H255089   6.525   4.963  14.461 -0.1083  1.1984 -0.0809
11200TIP3   OH255090   1.016   4.618  14.642 -0.5005 -0.1783  0.3511
11200TIP3    H155091   0.996   4.569  14.563 -1.4538  1.6848 -0.6053
11200TIP3    H255092   0.931   4.645  14.676  0.0245  1.3386  0.5078
11201TIP3   OH255093   2.772   4.750  13.134 -0.2042 -0.1763 -0.0761
11201TIP3    H155094   2.676   4.741  13.129 -0.2635  0.7440 -0.7600
11201TIP3    H255095   2.793   4.726  13.224 -0.7886 -2.8834 -0.6036
11202TIP3   OH255096   4.679   3.863  14.234 -0.3694 -0.3088  0.1687
11202TIP3    H155097   4.640   3.830  14.315  2.1745  0.4131  1.7390
11202TIP3    H255098   4.624   3.937  14.210 -0.8469 -0.2107  1.5144
11203TIP3   OH255099   0.260   2.873  16.283  0.3261 -0.4089  0.1556
11203TIP3    H155100   0.255   2.881  16.378  2.2819  2.3712  0.1117
11203TIP3    H255101   0.331   2.811  16.268 -0.5656 -1.5179  0.5091
11204TIP3   OH255102   4.482   2.851  16.498  0.4624 -0.2058  0.4082
11204TIP3    H155103   4.524   2.816  16.577  0.4508  0.4821  0.7262
11204TIP3    H255104   4.458   2.940  16.523 -1.1563 -0.5848  0.2192
11205TIP3   OH255105   1.373   6.719   1.536  0.1395  0.3732  0.1463
11205TIP3    H155106   1.278   6.707   1.524  0.0257  0.3789  1.0135
11205TIP3    H255107   1.404   6.748   1.450 -0.6153  0.1764 -0.1994
11206TIP3   OH255108   3.124   0.651   4.995 -0.1380 -0.0836 -0.4395
11206TIP3    H155109   3.170   0.567   4.992  2.5849  1.1723  3.0041
11206TIP3    H255110   3.182   0.712   4.949 -0.2760  0.6883  0.4066
11207TIP3   OH255111   5.056   0.099  11.673 -0.4817 -0.6866 -0.3247
11207TIP3    H155112   5.006   0.051  11.608 -1.1067 -0.9690  0.3523
11207TIP3    H255113   4.991   0.127  11.737 -0.0272  0.4944 -0.3664
11208TIP3   OH255114   6.422   2.202  14.885 -0.2368  0.2430  0.2094
11208TIP3    H155115   6.358   2.159  14.941  0.5644  0.1113  1.0310
11208TIP3    H255116   6.407   2.296  14.899 -1.4177  0.2445 -0.9415
11209TIP3   OH255117   0.210   1.874  16.570  0.2320 -0.5800 -0.5085
11209TIP3    H155118   0.185   1.797  16.621 -0.7733 -1.0087 -1.6143
11209TIP3    H255119   0.133   1.932  16.575  0.9856  0.3596  0.3269
11210TIP3   OH255120   0.894   1.401   5.103 -0.1108 -0.3946  0.4475
11210TIP3    H155121   0.816   1.345   5.102  0.2685 -0.9260  0.0339
11210TIP3    H255122   0.910   1.418   5.196 -0.7207 -0.2761  0.5337
11211TIP3   OH255123   0.411   2.181  10.910 -0.8645  0.5180  0.0792
11211TIP3    H155124   0.467   2.158  10.836 -0.7927  0.4695  0.1480
11211TIP3    H255125   0.355   2.105  10.922  0.1676 -0.0966  1.0526
11212TIP3   OH255126   5.025   1.024  13.794 -0.4965  0.3816  0.3839
11212TIP3    H155127   5.050   1.045  13.884 -3.7367 -0.0537  1.4647
11212TIP3    H255128   4.978   1.102  13.764 -1.2484 -0.2651 -0.1534
11213TIP3   OH255129   6.344   0.633   0.704 -0.2190 -0.0215 -0.6222
11213TIP3    H155130   6.322   0.726   0.705 -1.0056 -0.1978  0.5907
11213TIP3    H255131   6.364   0.614   0.613  0.1728  1.3849 -0.8460
11214TIP3   OH255132   1.663   0.311  15.635 -0.2640 -0.2653  0.5112
11214TIP3    H155133   1.661   0.242  15.569  1.9747  1.1353 -1.0861
11214TIP3    H255134   1.580   0.358  15.622 -0.3839 -0.7369 -0.5079
11215TIP3   OH255135   1.799   2.076  16.358 -0.2392 -0.4505 -0.0911
11215TIP3    H155136   1.782   2.018  16.433  1.0598  0.3554  0.8631
11215TIP3    H255137   1.894   2.086  16.358 -0.4095  1.2447 -0.5718
11216TIP3   OH255138   2.334   4.425   1.753  0.5829 -0.2656  0.2323
11216TIP3    H155139   2.284   4.348   1.780  0.2975 -0.4030 -0.6731
11216TIP3    H255140   2.299   4.447   1.667  1.1700  0.4396  0.1695
11217TIP3   OH255141   4.605   6.587  15.973 -0.3815  0.0409 -0.1239
11217TIP3    H155142   4.630   6.676  15.949  1.0837 -0.5314 -0.8169
11217TIP3    H255143   4.522   6.571  15.927 -1.1229  1.3526  0.7436
11218TIP3   OH255144   0.311   6.160   1.085  0.3564 -0.0519  0.4033
11218TIP3    H155145   0.251   6.092   1.054  1.1488 -1.1300  1.1949
11218TIP3    H255146   0.269   6.242   1.058 -0.6680 -0.8332 -0.4727
11219TIP3   OH255147   2.236   5.014  17.214 -0.6578 -0.5178  0.4163
11219TIP3    H155148   2.242   5.102  17.252 -1.2053 -0.3072  0.0262
11219TIP3    H255149   2.150   4.982  17.243 -0.9632 -0.4645 -0.4062
11220TIP3   OH255150   2.003   3.470  11.667 -0.7719 -0.2283  0.3647
11220TIP3    H155151   2.025   3.486  11.575  0.5510  0.1976  0.7460
11220TIP3    H255152   1.969   3.380  11.668 -2.2680  0.2907 -0.7727
11221TIP3   OH255153   2.484   3.291  14.404  0.1039  0.4310  0.1217
11221TIP3    H155154   2.399   3.246  14.403  0.2994  0.0408  1.1089
11221TIP3    H255155   2.505   3.302  14.496  1.5822 -0.2955 -0.1157
11222TIP3   OH255156   6.476   3.546  11.369  0.0824 -0.2673 -0.4892
11222TIP3    H155157   6.386   3.529  11.345 -0.5879  1.5679  0.5827
11222TIP3    H255158   6.525   3.470  11.338 -1.7707 -1.1123 -1.3778
11223TIP3   OH255159   1.696   1.596   0.596  0.0389  0.0733 -0.0812
11223TIP3    H155160   1.774   1.649   0.614 -0.8214  0.6337  2.0290
11223TIP3    H255161   1.655   1.583   0.681 -2.4500  0.1905 -1.2287
11224TIP3   OH255162   1.302   5.505   4.833  0.1282  0.4026 -0.7291
11224TIP3    H155163   1.252   5.586   4.821  1.0861  0.9137 -1.3278
11224TIP3    H255164   1.316   5.499   4.927 -1.1899  0.1744 -0.5374
11225TIP3   OH255165   2.568   4.885   5.220  0.1043 -0.7914  0.0450
11225TIP3    H155166   2.652   4.854   5.187 -0.2714 -1.3623 -0.3782
11225TIP3    H255167   2.536   4.945   5.153 -0.2214 -1.2331 -0.2008
11226TIP3   OH255168   3.147   4.258  14.394 -0.4851  0.7844  0.3909
11226TIP3    H155169   3.175   4.206  14.319 -1.2512 -2.1044  2.0208
11226TIP3    H255170   3.054   4.274  14.378 -0.5936  0.3671  0.5856
11227TIP3   OH255171   0.957   3.531   5.448  0.2174 -0.4465  0.5124
11227TIP3    H155172   1.017   3.599   5.478  0.4114 -0.6994  0.6972
11227TIP3    H255173   0.918   3.568   5.368  1.3378 -0.6676 -0.1488
11228TIP3   OH255174   4.396   0.322  15.336  0.1263 -0.2056 -0.1492
11228TIP3    H155175   4.336   0.362  15.398 -0.4916  0.6997 -1.3087
11228TIP3    H255176   4.426   0.394  15.281 -1.9248 -1.4451 -3.0420
11229TIP3   OH255177   5.367   4.981   1.065  0.0765 -0.0484  0.4309
11229TIP3    H155178   5.295   5.003   1.006  0.2730 -1.4382 -0.3383
11229TIP3    H255179   5.332   4.997   1.152 -0.7291  0.5191  0.0147
11230TIP3   OH255180   5.648   4.678  14.414 -0.5118 -0.1896 -0.3220
11230TIP3    H155181   5.716   4.738  14.383 -0.2232 -0.1126  0.4535
11230TIP3    H255182   5.693   4.594  14.425 -0.0658  0.3221  2.0758
11231TIP3   OH255183   0.315   1.659  13.320  0.3597  0.3136  0.2878
11231TIP3    H155184   0.391   1.608  13.349 -0.9169 -1.7889  0.0159
11231TIP3    H255185   0.270   1.683  13.401  0.1457 -0.2684  0.3386
11232TIP3   OH255186   1.035   0.769  11.362 -0.5004 -0.7303 -0.0614
11232TIP3    H155187   0.994   0.846  11.324  1.3597  0.4578  0.2788
11232TIP3    H255188   1.063   0.717  11.286  0.7450  0.3021 -0.3319
11233TIP3   OH255189   1.726   5.183  16.287  0.2846  0.0552  0.3929
11233TIP3    H155190   1.804   5.135  16.261 -0.7533 -1.2615 -0.3353
11233TIP3    H255191   1.661   5.162  16.220 -0.3570  2.0618  0.3355
11234TIP3   OH255192   4.900   2.105  14.333  0.2279 -0.4777  0.3295
11234TIP3    H155193   4.949   2.030  14.299 -2.2001 -1.4884 -1.0203
11234TIP3    H255194   4.885   2.084  14.425 -0.0209 -1.4532  0.0769
11235TIP3   OH255195   3.459   5.223  15.266 -0.5338  0.0409  0.2669
11235TIP3    H155196   3.523   5.158  15.238 -1.2409 -0.4816 -0.1618
11235TIP3    H255197   3.385   5.171  15.298 -0.3831  0.6315  1.6042
11236TIP3   OH255198   6.310   1.177  15.047 -0.1454 -0.2724 -1.2374
11236TIP3    H155199   6.285   1.104  14.989  0.4846 -0.5082 -1.2203
11236TIP3    H255200   6.387   1.144  15.094  0.1534  0.4167 -1.2437
11237TIP3   OH255201   5.778   3.356  10.660 -0.5685  0.3052 -0.0878
11237TIP3    H155202   5.721   3.343  10.585  0.6493  0.2658 -1.0129
11237TIP3    H255203   5.855   3.401  10.625  0.9307 -1.5598  0.7292
11238TIP3   OH255204   1.989   5.620  13.527 -0.1682 -0.1013 -0.0299
11238TIP3    H155205   1.958   5.658  13.444 -1.9747 -1.0681  0.1649
11238TIP3    H255206   1.987   5.694  13.588 -0.1166  0.3210 -0.5268
11239TIP3   OH255207   0.535   6.713   1.995  0.6353 -0.0581  0.4876
11239TIP3    H155208   0.572   6.760   2.069  1.4249  0.9744 -0.5543
11239TIP3    H255209   0.503   6.781   1.936 -0.0970 -0.8729 -0.0673
11240TIP3   OH255210   3.917   3.326  17.151 -0.6375  0.4662 -0.6098
11240TIP3    H155211   3.931   3.336  17.057  0.3974  0.4924 -0.4559
11240TIP3    H255212   3.995   3.280  17.182  0.9894  4.0789  0.8993
11241TIP3   OH255213   0.560   5.025  14.211 -0.6108  0.2410  0.3826
11241TIP3    H155214   0.608   4.943  14.222 -0.7587  0.1798  0.5701
11241TIP3    H255215   0.628   5.092  14.208 -0.5465  0.2224  1.3032
11242TIP3   OH255216   0.121   3.344   6.464  0.1118  0.1557  0.1298
11242TIP3    H155217   0.117   3.438   6.478  1.5004  0.3575 -0.7876
11242TIP3    H255218   0.172   3.310   6.538  0.1524  0.2027  0.1228
11243TIP3   OH255219   2.443   1.639  12.205  0.2829  0.5325 -0.3035
11243TIP3    H155220   2.538   1.640  12.210  0.2515 -0.7008  0.7867
11243TIP3    H255221   2.415   1.597  12.286 -1.1765  0.4433 -0.8349
11244TIP3   OH255222   5.070   1.855   3.355 -0.8430 -0.5803  0.1175
11244TIP3    H155223   5.095   1.940   3.318 -1.4201 -0.4423  0.0285
11244TIP3    H255224   5.074   1.795   3.281  2.4347 -1.2528  0.7890
11245TIP3   OH255225   3.849   1.058  14.333  0.4978 -0.2881 -0.6558
11245TIP3    H155226   3.936   1.085  14.304  1.5474 -1.1187  1.5555
11245TIP3    H255227   3.827   1.119  14.404 -0.6473 -0.2205 -1.0471
11246TIP3   OH255228   0.056   5.718   0.877  0.2975  0.0580 -0.3059
11246TIP3    H155229   0.111   5.643   0.857 -1.1089 -0.9061 -0.6434
11246TIP3    H255230  -0.009   5.684   0.938  0.8515  1.4998  1.1256
11247TIP3   OH255231   1.307   5.765   6.014  0.3961 -0.3300 -0.1104
11247TIP3    H155232   1.394   5.773   6.054  0.2705  0.5734  0.0072
11247TIP3    H255233   1.293   5.671   6.004  0.1033 -0.6360  2.6738
11248TIP3   OH255234   0.853   1.729  12.395 -0.2925 -0.7280  0.2472
11248TIP3    H155235   0.800   1.651  12.411 -2.1923  0.6210  0.6677
11248TIP3    H255236   0.902   1.708  12.316 -0.4002 -2.5434  0.6268
11249TIP3   OH255237   4.939   3.095   2.201  0.1419 -0.1798 -0.2131
11249TIP3    H155238   4.969   3.186   2.192  1.7546 -0.8330 -1.8134
11249TIP3    H255239   4.966   3.069   2.289  1.4779  0.2660 -0.4766
11250TIP3   OH255240   2.135   4.571   6.604 -0.4555 -0.0563 -0.0372
11250TIP3    H155241   2.057   4.556   6.552 -1.2334  0.3711  0.9811
11250TIP3    H255242   2.189   4.493   6.590 -1.8917 -1.2120  0.7158
11251TIP3   OH255243   6.660   4.185   3.447  0.3279  0.1071  0.8157
11251TIP3    H155244   6.634   4.200   3.356  1.1608 -2.8364  0.0305
11251TIP3    H255245   6.754   4.165   3.443  0.3008 -0.3972  2.2557
11252TIP3   OH255246   4.536   5.373   0.081  0.1677  0.3170  0.3754
11252TIP3    H155247   4.462   5.345   0.135  0.4642 -1.3493 -0.0482
11252TIP3    H255248   4.508   5.354  -0.009  1.3929 -1.0237  0.2681
11253TIP3   OH255249   0.455   5.848   4.188 -0.1800 -0.3398 -0.3696
11253TIP3    H155250   0.484   5.865   4.277 -0.1534 -2.0750 -0.0283
11253TIP3    H255251   0.373   5.897   4.179 -0.3852 -0.4697  0.7443
11254TIP3   OH255252   1.455   4.255   0.946  0.1073 -0.3467 -0.3583
11254TIP3    H155253   1.362   4.234   0.954 -0.4432  1.8621 -0.4276
11254TIP3    H255254   1.477   4.300   1.027  1.4572 -1.9695  0.1943
11255TIP3   OH255255   2.614   3.802   1.580 -0.2142 -0.2613 -0.3625
11255TIP3    H155256   2.689   3.774   1.631 -0.1480 -1.4252 -1.0775
11255TIP3    H255257   2.628   3.896   1.565  0.7112 -0.3224  0.1373
11256TIP3   OH255258   4.993   0.430   5.160 -0.6737  0.1006 -0.1059
11256TIP3    H155259   4.935   0.506   5.169 -1.0546 -0.4068  2.0723
11256TIP3    H255260   5.020   0.410   5.250  2.6960  0.1644 -1.0315
11257TIP3   OH255261   2.791   6.161  14.891 -0.1163 -0.0641  0.7354
11257TIP3    H155262   2.826   6.186  14.976 -3.4152 -1.9044  2.7401
11257TIP3    H255263   2.812   6.068  14.882 -1.0933 -0.2421  0.2183
11258TIP3   OH255264   0.673   4.801   3.273  0.1592 -0.1971  0.6040
11258TIP3    H155265   0.702   4.733   3.212 -2.4034 -1.2103  0.4578
11258TIP3    H255266   0.660   4.756   3.356 -3.0289 -0.3083  0.1383
11259TIP3   OH255267   1.517   0.609  13.023  0.2560  0.1649  0.4176
11259TIP3    H155268   1.583   0.668  13.061  0.5727  0.6677 -0.9096
11259TIP3    H255269   1.455   0.667  12.979 -1.1984 -0.2875  1.8067
11260TIP3   OH255270   6.027   3.475   4.396  0.6338 -0.1513 -0.5138
11260TIP3    H155271   6.037   3.431   4.311 -1.9894  0.1634 -1.0329
11260TIP3    H255272   6.090   3.430   4.454  0.9752 -1.7620 -2.0857
11261TIP3   OH255273   6.804   6.699   0.157 -0.3434  0.0771  0.4752
11261TIP3    H155274   6.803   6.646   0.078  3.4478  0.5160  0.0664
11261TIP3    H255275   6.854   6.778   0.134 -1.7876  1.6420  2.4354
11262TIP3   OH255276   4.473   1.121  11.243  0.3157 -0.4976  0.1624
11262TIP3    H155277   4.433   1.104  11.328  1.1242 -0.5041  0.5480
11262TIP3    H255278   4.432   1.202  11.213  2.3760  1.2984  2.0404
11263TIP3   OH255279   1.425   2.283   0.033 -0.2892  0.3695  0.3637
11263TIP3    H155280   1.330   2.270   0.040 -0.4997  1.8818  0.7038
11263TIP3    H255281   1.441   2.362   0.085  0.9633  0.9098 -0.8170
11264TIP3   OH255282   2.443   3.186  12.071  0.0260 -0.1152 -0.4439
11264TIP3    H155283   2.481   3.106  12.036 -0.0575  0.1605 -1.1769
11264TIP3    H255284   2.427   3.167  12.164 -1.3035 -1.4287 -0.9246
11265TIP3   OH255285   4.783   1.346  16.117 -0.6805 -0.2562  0.0773
11265TIP3    H155286   4.725   1.416  16.087 -0.3821  0.4108  1.0283
11265TIP3    H255287   4.734   1.304  16.188 -0.9939 -1.2309 -0.7022
11266TIP3   OH255288   3.335   6.089  15.998  1.4123  0.0140  0.3822
11266TIP3    H155289   3.409   6.040  15.964  0.7655 -0.7943  0.1292
11266TIP3    H255290   3.367   6.125  16.081  2.9869  1.9831 -1.0151
11267TIP3   OH255291   0.757   5.575  11.927  0.3746  0.1253 -0.5151
11267TIP3    H155292   0.724   5.541  12.010  2.1826 -2.0454 -0.6379
11267TIP3    H255293   0.681   5.577  11.870 -0.5364 -0.0376  0.6653
11268TIP3   OH255294   0.424   1.072  16.675 -0.0673 -0.0714 -0.2668
11268TIP3    H155295   0.512   1.054  16.641  0.2647  0.2072  0.4297
11268TIP3    H255296   0.371   1.088  16.597  0.6836  0.5654 -0.6547
11269TIP3   OH255297   0.757   6.714  15.344  0.1444  0.3042 -0.2781
11269TIP3    H155298   0.778   6.644  15.407  0.1844  2.3756  2.0737
11269TIP3    H255299   0.839   6.728  15.296  0.3016 -0.8582 -0.3717
11270TIP3   OH255300   0.164   1.254   2.880 -0.2476 -0.3122  0.1014
11270TIP3    H155301   0.156   1.219   2.968 -0.8406  1.2320  0.6875
11270TIP3    H255302   0.104   1.202   2.827  0.0416 -1.1854  0.6248
11271TIP3   OH255303   3.347   6.699  16.566  0.4842 -0.6279 -0.3134
11271TIP3    H155304   3.292   6.729  16.494 -0.0957  0.6182  0.6286
11271TIP3    H255305   3.286   6.663  16.630  0.6201  1.6174  1.1449
11272TIP3   OH255306   2.651   2.703   5.721  0.1833  0.2082 -0.1848
11272TIP3    H155307   2.584   2.701   5.652 -1.1521  0.8887  1.0614
11272TIP3    H255308   2.684   2.614   5.725 -1.6097 -0.4635  0.1000
11273TIP3   OH255309   1.122   2.178  14.567 -0.0785  0.0782  0.0103
11273TIP3    H155310   1.157   2.091  14.586  0.9750 -0.3909 -3.5752
11273TIP3    H255311   1.189   2.239  14.597  0.2628 -0.4549  0.3377
11274TIP3   OH255312   3.810   1.041   6.085  0.1638  0.2049  0.1819
11274TIP3    H155313   3.836   1.079   6.170  1.4748 -0.9450  0.3103
11274TIP3    H255314   3.892   1.013   6.045 -0.5548 -0.2435 -1.0008
11275TIP3   OH255315   4.914   0.477  12.992 -0.3098  0.4286 -0.1363
11275TIP3    H155316   4.855   0.458  13.065 -1.7647  2.8799 -0.5772
11275TIP3    H255317   5.002   0.477  13.030 -0.8588 -0.5962  1.1230
11276TIP3   OH255318   5.674   1.819   3.652  0.1235  0.1567 -0.1656
11276TIP3    H155319   5.605   1.855   3.708  2.2169  1.5597  1.5529
11276TIP3    H255320   5.654   1.725   3.649 -1.4370  0.4171  0.9133
11277TIP3   OH255321   3.714   2.718  15.504  0.7245  0.0680 -0.7544
11277TIP3    H155322   3.784   2.679  15.556 -0.0687  0.4792  0.6531
11277TIP3    H255323   3.753   2.796  15.465  1.3320 -0.2388 -0.7611
11278TIP3   OH255324   6.356   3.888  16.122 -0.0145 -0.3583  0.5045
11278TIP3    H155325   6.412   3.815  16.148  2.6476  0.1544 -3.2904
11278TIP3    H255326   6.406   3.966  16.146 -0.9336  0.1626  0.7467
11279TIP3   OH255327   0.810   3.084  11.490 -0.0201 -0.7871  0.0214
11279TIP3    H155328   0.881   3.046  11.541  1.0419 -0.6092 -1.2815
11279TIP3    H255329   0.852   3.154  11.440 -1.3675  0.1670  0.1916
11280TIP3   OH255330   4.738   0.567  16.997 -0.0768 -0.3915 -0.1066
11280TIP3    H155331   4.795   0.518  16.938 -0.6275 -0.2079 -0.8016
11280TIP3    H255332   4.751   0.527  17.083  0.1279 -1.1805 -0.5058
11281TIP3   OH255333   5.231   6.623  11.189  0.0079 -0.6264 -0.3409
11281TIP3    H155334   5.311   6.636  11.138  0.5428 -2.4310 -0.0028
11281TIP3    H255335   5.162   6.613  11.124  0.2972 -0.5618 -0.6583
11282TIP3   OH255336   3.343   4.732   4.997  0.1176 -0.0571 -0.0339
11282TIP3    H155337   3.402   4.677   4.945  0.0628 -0.0870 -0.0665
11282TIP3    H255338   3.343   4.692   5.084 -1.8848 -1.6553 -0.7045
11283TIP3   OH255339   0.306   3.402   2.009  0.1688 -0.1741  0.2998
11283TIP3    H155340   0.227   3.354   1.984  0.9001 -1.2168 -0.0298
11283TIP3    H255341   0.279   3.452   2.087 -1.2061  0.6057 -0.6566
11284TIP3   OH255342   2.413   3.711   1.742 -0.0261 -1.1402  0.2040
11284TIP3    H155343   2.483   3.747   1.688 -1.3066  0.8212 -0.1927
11284TIP3    H255344   2.458   3.669   1.815  1.6121 -1.4559 -0.9653
11285TIP3   OH255345   2.300   5.248   4.618 -0.3089  0.4212  0.2957
11285TIP3    H155346   2.334   5.296   4.542  0.8038 -1.4473 -0.4106
11285TIP3    H255347   2.314   5.307   4.692 -1.6783  2.3919 -0.9587
11286TIP3   OH255348   3.578   0.835   0.248 -0.2401  0.8078 -0.1810
11286TIP3    H155349   3.484   0.842   0.262 -0.4166  2.8862 -2.1059
11286TIP3    H255350   3.594   0.882   0.166  2.8529  3.0618  1.5704
11287TIP3   OH255351   6.765   3.699  15.794  0.0473  0.2073  0.0389
11287TIP3    H155352   6.736   3.679  15.883  0.4819  2.0051  0.6042
11287TIP3    H255353   6.683   3.703  15.743 -0.2857  0.2269  0.5704
11288TIP3   OH255354   4.658   1.109  15.017  0.0817  0.0462  0.1269
11288TIP3    H155355   4.704   1.091  14.935 -0.7229 -1.3783 -0.0288
11288TIP3    H255356   4.724   1.098  15.085  0.0625 -1.6383 -0.1204
11289TIP3   OH255357   3.623   2.856   4.035  0.1741 -0.3005 -0.1976
11289TIP3    H155358   3.563   2.781   4.035 -0.3738  0.1351 -0.8371
11289TIP3    H255359   3.665   2.853   4.121 -1.6203  0.0700  0.7230
11290TIP3   OH255360   3.078   2.171  12.463 -0.3331 -0.4266  0.0739
11290TIP3    H155361   2.997   2.171  12.514 -0.4871  1.6672 -0.0957
11290TIP3    H255362   3.129   2.099  12.498 -2.1789 -1.6508  0.3343
11291TIP3   OH255363   1.942   3.052  14.782  0.2018  0.3692 -0.0822
11291TIP3    H155364   1.937   3.063  14.687 -0.2920 -0.4984 -0.1701
11291TIP3    H255365   1.871   3.106  14.816  0.4537  0.7747 -0.2006
11292TIP3   OH255366   5.641   5.373  16.969  0.2903  0.4204  0.0757
11292TIP3    H155367   5.570   5.309  16.976 -0.1888  1.0088  0.6885
11292TIP3    H255368   5.709   5.338  17.026 -0.0092  0.4963  0.4898
11293TIP3   OH255369   5.658   0.273   0.124 -0.4595 -0.0524 -0.1471
11293TIP3    H155370   5.705   0.356   0.127 -0.5892  0.0218 -0.1621
11293TIP3    H255371   5.723   0.207   0.149  0.0619 -0.1309 -1.6936
11294TIP3   OH255372   2.816   1.423  13.234  0.0745  0.1871  0.1368
11294TIP3    H155373   2.865   1.464  13.164  0.2294 -0.1142  0.0711
11294TIP3    H255374   2.881   1.400  13.300  0.2972 -1.9412 -0.7780
11295TIP3   OH255375   6.410   4.446   4.586 -0.1242 -0.1437  0.1457
11295TIP3    H155376   6.494   4.426   4.626 -0.4877 -0.8604  0.5570
11295TIP3    H255377   6.363   4.497   4.652  0.0020  0.2919 -0.1002
11296TIP3   OH255378   0.959   2.258   3.290  0.0850  0.3117  0.0533
11296TIP3    H155379   0.980   2.268   3.197 -2.9829 -1.6010 -0.9374
11296TIP3    H255380   0.938   2.165   3.300 -0.5634  0.6776  2.4536
11297TIP3   OH255381   1.501   2.590   0.529  0.4960 -0.2935 -0.5527
11297TIP3    H155382   1.488   2.554   0.616 -0.8981  1.7924  0.1307
11297TIP3    H255383   1.592   2.618   0.527  0.7108 -0.9527 -0.0172
11298TIP3   OH255384   3.148   3.315  15.557 -0.3248  0.4890 -0.2138
11298TIP3    H155385   3.132   3.228  15.522 -0.3313  0.7865 -0.9535
11298TIP3    H255386   3.093   3.319  15.636  0.7507 -0.6725  0.6098
11299TIP3   OH255387   0.204   2.145  15.567  0.2412  0.5568 -0.4107
11299TIP3    H155388   0.176   2.164  15.656  1.2939  2.1168 -0.3900
11299TIP3    H255389   0.294   2.111  15.577  0.6043  1.3588 -0.9144
11300TIP3   OH255390   0.530   2.701   1.538 -0.1341 -0.4750  0.2023
11300TIP3    H155391   0.509   2.680   1.629 -1.0695  0.2537  0.1643
11300TIP3    H255392   0.453   2.748   1.506  0.6767  0.3261 -0.6074
11301TIP3   OH255393   0.767   4.049  13.482  0.2057  0.6637 -0.4030
11301TIP3    H155394   0.716   4.025  13.560 -0.1950  3.3388  0.2191
11301TIP3    H255395   0.705   4.043  13.410  0.0040  0.2670 -0.1975
11302TIP3   OH255396   3.673   6.791   5.902 -0.2492  0.2818  0.0187
11302TIP3    H155397   3.615   6.836   5.963 -1.7646 -0.9131 -0.5244
11302TIP3    H255398   3.672   6.845   5.823 -0.6955  0.1978 -0.0304
11303TIP3   OH255399   0.746   5.056  12.904 -0.1349  0.4677  0.2510
11303TIP3    H155400   0.784   4.968  12.907 -0.6802  0.2444  0.6765
11303TIP3    H255401   0.764   5.093  12.990  0.3812  0.8947 -0.0413
11304TIP3   OH255402   0.042   3.288  15.463 -0.1909 -0.0854 -0.1121
11304TIP3    H155403  -0.002   3.368  15.492 -0.9458  0.1432 -1.8048
11304TIP3    H255404   0.086   3.313  15.382  1.4089 -0.8428  0.5085
11305TIP3   OH255405   6.421   2.926   2.432 -0.4475 -0.5417 -0.1120
11305TIP3    H155406   6.391   2.980   2.359  0.8427  1.1546  0.5575
11305TIP3    H255407   6.429   2.838   2.396 -0.6441  0.1178 -1.7904
11306TIP3   OH255408   1.830   6.758   4.365  0.8056 -0.2465  0.0201
11306TIP3    H155409   1.898   6.693   4.347  1.5775  0.4622  0.3578
11306TIP3    H255410   1.843   6.781   4.457 -1.0235 -1.4198  0.6106
11307TIP3   OH255411   0.043   6.639  15.046  0.9712 -0.0851  0.1953
11307TIP3    H155412   0.130   6.612  15.015  0.4934 -1.6671  0.1883
11307TIP3    H255413   0.045   6.620  15.140  1.2221  1.4811  0.5145
11308TIP3   OH255414   5.772   6.572  17.021  0.1170  0.1988  0.0245
11308TIP3    H155415   5.823   6.515  17.078  0.2420  2.5851  2.4397
11308TIP3    H255416   5.682   6.564  17.052 -0.0848  0.2352 -0.5396
11309TIP3   OH255417   1.998   6.665   6.111 -0.1146 -0.2697 -0.0084
11309TIP3    H155418   1.993   6.678   6.206  0.8832  0.8205 -0.0989
11309TIP3    H255419   1.942   6.589   6.095 -0.9004 -0.0032  1.3579
11310TIP3   OH255420   1.667   1.829  16.653 -0.5100  0.4018  0.4851
11310TIP3    H155421   1.702   1.864  16.735  0.1427 -1.9577  1.2551
11310TIP3    H255422   1.585   1.787  16.677 -1.2187  1.2554 -0.3929
11311TIP3   OH255423   1.789   5.064  16.558 -0.0305  0.3609 -0.3257
11311TIP3    H155424   1.754   5.142  16.602 -0.6706 -0.7926  1.2324
11311TIP3    H255425   1.772   5.081  16.465 -2.0230  1.1968  0.1443
11312TIP3   OH255426   3.607   1.101  12.691  0.4782  0.5687  0.3960
11312TIP3    H155427   3.588   1.033  12.627  1.9255  0.2003  0.3323
11312TIP3    H255428   3.635   1.176  12.638 -0.0756  0.8641  0.5161
11313TIP3   OH255429   3.827   2.750   2.268  0.8119  0.1071 -0.0630
11313TIP3    H155430   3.773   2.742   2.347  0.6944 -0.5794 -0.2095
11313TIP3    H255431   3.888   2.676   2.273  0.7309 -0.0028 -0.6667
11314TIP3   OH255432   6.167   0.566   4.128  0.0798  0.4397 -0.1132
11314TIP3    H155433   6.223   0.640   4.104  0.4141 -0.3255 -1.7873
11314TIP3    H255434   6.100   0.604   4.185  0.6957  1.8809 -0.3194
11315TIP3   OH255435   0.476   0.134  12.025  0.3515  0.5767  0.1075
11315TIP3    H155436   0.438   0.146  11.938 -0.4043  2.8042  0.7005
11315TIP3    H255437   0.553   0.191  12.025 -0.2268  1.3950  1.2156
11316TIP3   OH255438   0.340   0.011   0.429  0.1102  0.1305 -0.2921
11316TIP3    H155439   0.264   0.068   0.434 -1.3022 -1.7546  0.6843
11316TIP3    H255440   0.384   0.022   0.513 -0.5135 -0.6772  0.1434
11317TIP3   OH255441   0.015   4.974   5.499  0.4897  0.1067  0.6332
11317TIP3    H155442   0.018   5.026   5.418 -0.3320 -1.0201 -0.1380
11317TIP3    H255443   0.103   4.979   5.534  0.7340  0.9934 -0.0930
11318TIP3   OH255444   2.247   3.558  12.608 -0.1432  0.0090 -0.4411
11318TIP3    H155445   2.284   3.561  12.696  0.2992 -1.6720 -0.5510
11318TIP3    H255446   2.321   3.580  12.550  0.0230 -0.7364 -0.5076
11319TIP3   OH255447   2.836   1.648  12.381  0.5680  0.4027 -0.0668
11319TIP3    H155448   2.916   1.700  12.386  1.9317 -1.5469 -0.9719
11319TIP3    H255449   2.831   1.603  12.465  0.6994  0.1475 -0.1941
11320TIP3   OH255450   0.736   2.295   5.687 -0.6609 -0.1538  0.0304
11320TIP3    H155451   0.715   2.322   5.597  0.8279 -0.3592 -0.4048
11320TIP3    H255452   0.652   2.267   5.724 -1.1680 -0.8179 -1.5649
11321TIP3   OH255453   4.652   5.180  15.410  0.0232 -0.1526  0.2289
11321TIP3    H155454   4.724   5.124  15.378 -0.7715 -1.1523  0.1461
11321TIP3    H255455   4.671   5.193  15.503 -0.1478 -1.1394  0.4087
11322TIP3   OH255456   3.024   4.497   6.182 -0.8517  0.0543  0.0626
11322TIP3    H155457   3.085   4.559   6.222  2.1622 -2.6421 -0.1007
11322TIP3    H255458   2.977   4.459   6.256 -0.9331  0.7394  0.3711
11323TIP3   OH255459   6.429   4.870  11.484  0.0826  0.3664 -0.5718
11323TIP3    H155460   6.512   4.913  11.506 -0.2187  0.4881  0.3187
11323TIP3    H255461   6.362   4.936  11.503 -0.3907 -0.5220  0.9222
11324TIP3   OH255462   2.790   5.071   4.031  0.2457 -0.4924 -0.1327
11324TIP3    H155463   2.866   5.103   3.983  0.2920 -0.6701 -0.1774
11324TIP3    H255464   2.742   5.017   3.968 -1.4686  1.9282 -1.0062
11325TIP3   OH255465   6.682   2.026  16.908  0.3691 -0.0709 -0.0531
11325TIP3    H155466   6.777   2.040  16.904  0.2539  0.8129  0.1715
11325TIP3    H255467   6.645   2.107  16.874 -0.3092 -0.4223 -0.1486
11326TIP3   OH255468   6.076   3.756  12.842 -0.9878  1.0557 -0.5718
11326TIP3    H155469   6.014   3.821  12.810 -1.2984  1.5169  0.9106
11326TIP3    H255470   6.147   3.807  12.881 -0.4659  0.5194 -0.8055
11327TIP3   OH255471   2.824   3.184   3.233 -0.1365 -0.6619  0.3022
11327TIP3    H155472   2.818   3.270   3.191  1.5517  0.3411  2.0384
11327TIP3    H255473   2.738   3.172   3.273 -0.6370 -0.1186 -0.5853
11328TIP3   OH255474   1.553   0.989  14.020  0.6536  0.5626  0.6330
11328TIP3    H155475   1.594   1.005  13.935 -0.4449  1.2917  0.2147
11328TIP3    H255476   1.486   1.057  14.027  0.3791  0.1886  1.8557
11329TIP3   OH255477   1.762   0.737   1.063 -0.0541 -0.4107 -0.0339
11329TIP3    H155478   1.676   0.764   1.093 -0.4659 -0.8580 -0.8128
11329TIP3    H255479   1.796   0.812   1.015  1.9640  1.5978  4.1854
11330TIP3   OH255480   4.054   5.937   6.040  0.2426  0.2866  0.2932
11330TIP3    H155481   4.046   5.849   6.078 -0.1850  0.7623  1.2975
11330TIP3    H255482   4.008   5.994   6.101  0.6066  1.2326 -0.3137
11331TIP3   OH255483   2.601   5.337   4.005 -0.3575 -0.1907  0.6008
11331TIP3    H155484   2.506   5.323   3.997 -0.0453 -0.9878 -2.4758
11331TIP3    H255485   2.639   5.249   3.998  0.5999  0.0856  2.1835
11332TIP3   OH255486   5.709   6.768   0.753  0.8759 -0.4547 -0.0458
11332TIP3    H155487   5.684   6.782   0.845  0.5929 -2.7388  0.2602
11332TIP3    H255488   5.714   6.856   0.716  2.1868  0.5824  2.4557
11333TIP3   OH255489   4.120   2.632  15.979 -0.0820 -0.2278 -0.2476
11333TIP3    H155490   4.094   2.544  15.954 -3.1922  0.3599  0.6285
11333TIP3    H255491   4.085   2.643  16.067  2.7402  0.9146  0.7904
11334TIP3   OH255492   3.126   4.477  10.902  0.0024  0.0615 -0.0456
11334TIP3    H155493   3.127   4.394  10.855 -2.0016  0.1170 -0.2400
11334TIP3    H255494   3.044   4.518  10.875  0.7157  1.8666  0.4586
11335TIP3   OH255495   1.305   1.947   3.310 -0.3766  0.1368 -0.5420
11335TIP3    H155496   1.388   1.941   3.262 -0.3687  0.5010 -0.5720
11335TIP3    H255497   1.322   1.901   3.392 -0.2269 -0.0246 -0.6632
11336TIP3   OH255498   1.046   3.016  13.506  0.7254  0.7038 -0.3144
11336TIP3    H155499   1.041   3.099  13.554  0.5379  0.7052 -0.3364
11336TIP3    H255500   0.967   3.015  13.452 -0.7592 -0.7660  1.7986
11337TIP3   OH255501   1.003   4.855   1.385  0.0239  0.4498 -0.1235
11337TIP3    H155502   0.937   4.847   1.317 -1.1171 -1.4683  1.1764
11337TIP3    H255503   1.073   4.795   1.358  0.0843  0.5501 -0.1895
11338TIP3   OH255504   4.238   5.586   3.434  0.0562  0.0918  0.4997
11338TIP3    H155505   4.214   5.672   3.469 -2.9309 -0.2490 -0.5469
11338TIP3    H255506   4.194   5.524   3.493  0.7319 -0.6588  0.2162
11339TIP3   OH255507   2.204   0.987   3.841  0.0065  0.2293 -0.0399
11339TIP3    H155508   2.109   0.991   3.840 -0.0151  0.1326  1.4828
11339TIP3    H255509   2.224   0.899   3.872  0.5951  0.3454 -0.0850
11340TIP3   OH255510   3.647   6.403   0.327  0.5010  0.4244  0.8806
11340TIP3    H155511   3.627   6.341   0.257 -0.3751 -0.8109  2.2043
11340TIP3    H255512   3.640   6.489   0.285 -0.8764 -0.2577 -0.3552
11341TIP3   OH255513   3.822   1.637   1.518  0.2478  0.2855 -0.9998
11341TIP3    H155514   3.842   1.702   1.451  1.6455  0.5432 -0.3622
11341TIP3    H255515   3.772   1.684   1.584  1.2965  0.7515 -0.5168
11342TIP3   OH255516   5.885   1.247   4.351 -0.1522 -0.5124 -0.1344
11342TIP3    H155517   5.866   1.158   4.323  0.3021 -0.3290 -1.0510
11342TIP3    H255518   5.910   1.292   4.270 -1.7629  0.8070  0.0657
11343TIP3   OH255519   5.279   0.412  16.909  0.7648 -0.4753  0.3205
11343TIP3    H155520   5.203   0.452  16.867  1.1055  1.1416  1.1985
11343TIP3    H255521   5.243   0.362  16.982  0.3907 -1.2874 -0.4085
11344TIP3   OH255522   5.202   2.838   5.230  0.2164  0.2737  0.0058
11344TIP3    H155523   5.150   2.871   5.156  0.4967 -2.1415 -1.3215
11344TIP3    H255524   5.169   2.887   5.306 -0.6607  2.2069 -1.5585
11345TIP3   OH255525   0.906   6.221  12.149  0.5596 -0.1513  0.1780
11345TIP3    H155526   0.897   6.313  12.122  0.7871  0.1227  1.0360
11345TIP3    H255527   0.974   6.187  12.091  0.7351  0.3188  0.0994
11346TIP3   OH255528   1.214   5.404  17.221 -0.3310  0.0630  0.4361
11346TIP3    H155529   1.145   5.337  17.221  0.1434 -0.4379 -0.5552
11346TIP3    H255530   1.209   5.443  17.133  1.7243 -1.1136 -0.2401
11347TIP3   OH255531   5.464   4.841  16.530  0.0435  0.0605  0.3449
11347TIP3    H155532   5.447   4.753  16.563 -2.5639  0.3132 -0.2278
11347TIP3    H255533   5.462   4.831  16.434 -2.5222  1.0932  0.2439
11348TIP3   OH255534   2.718   3.582  16.816  0.4233 -0.4970 -0.0001
11348TIP3    H155535   2.758   3.576  16.903  1.7068 -1.1593 -0.6314
11348TIP3    H255536   2.700   3.675  16.804  0.3047 -0.3931  0.9384
11349TIP3   OH255537   3.003   6.475   0.707 -0.0738 -0.1660  0.4775
11349TIP3    H155538   2.931   6.516   0.659 -1.2303 -1.3266  1.2058
11349TIP3    H255539   3.061   6.441   0.639 -1.5144 -1.4781 -0.1295
11350TIP3   OH255540   2.441   1.780   6.651  0.0330 -0.8859 -0.6903
11350TIP3    H155541   2.351   1.758   6.631 -0.2420 -0.4802  0.0686
11350TIP3    H255542   2.491   1.752   6.574 -0.7576 -0.9382 -1.1844
11351TIP3   OH255543   0.322   3.870   1.693  1.0176 -0.1634  0.1243
11351TIP3    H155544   0.400   3.923   1.680  1.7006 -1.0180  0.6957
11351TIP3    H255545   0.316   3.816   1.614  0.1930  0.9071 -0.5612
11352TIP3   OH255546   2.746   1.449  15.473  0.0913  0.4821 -0.8603
11352TIP3    H155547   2.719   1.535  15.441 -1.8630  0.4964  0.7427
11352TIP3    H255548   2.788   1.467  15.557 -2.2803 -0.2895  0.5374
11353TIP3   OH255549   4.069   3.125   1.769 -0.0571 -0.4436  0.2567
11353TIP3    H155550   4.157   3.099   1.795 -0.3789 -1.3809  0.4107
11353TIP3    H255551   4.067   3.220   1.784  0.9569 -0.3979  0.1391
11354TIP3   OH255552   2.096   6.640  13.418  0.5756 -0.3407  0.4879
11354TIP3    H155553   2.105   6.690  13.499 -0.6698 -0.5844  0.7876
11354TIP3    H255554   2.060   6.703  13.355  0.7624 -0.3681  0.3533
11355TIP3   OH255555   5.432   2.617  11.908 -0.1212 -0.0709 -0.3964
11355TIP3    H155556   5.449   2.584  11.819 -2.4253 -1.4265 -0.3516
11355TIP3    H255557   5.410   2.539  11.959  0.6092  0.7816  1.2588
11356TIP3   OH255558   4.878   5.720   1.510 -0.1859 -0.0501  0.0667
11356TIP3    H155559   4.898   5.630   1.485 -1.5950 -0.5910  0.8576
11356TIP3    H255560   4.866   5.717   1.605 -0.7216  0.8732  0.0322
11357TIP3   OH255561   5.184   3.966   3.478 -0.1048  0.0077  0.1822
11357TIP3    H155562   5.175   3.968   3.383  1.6533 -1.4025 -0.0342
11357TIP3    H255563   5.278   3.958   3.494 -0.5680 -2.5656  1.9561
11358TIP3   OH255564   5.451   0.573  11.778  0.0660 -0.1987 -0.6707
11358TIP3    H155565   5.497   0.494  11.807  2.2081  1.9024  2.0132
11358TIP3    H255566   5.521   0.631  11.747 -1.4261  0.7924 -2.2319
11359TIP3   OH255567   2.266   4.257   3.843 -0.2510  0.0639  0.1598
11359TIP3    H155568   2.205   4.194   3.805 -0.9352  0.5574  0.4082
11359TIP3    H255569   2.352   4.232   3.809 -1.0836  1.7709 -3.4634
11360TIP3   OH255570   0.078   1.907  13.655 -0.0034 -0.1984  0.0959
11360TIP3    H155571   0.148   1.843  13.648 -0.2993 -0.3480 -1.6998
11360TIP3    H255572  -0.001   1.859  13.631 -0.6813  0.0660  1.7420
11361TIP3   OH255573   0.487   1.150  14.725 -0.3039 -0.4458  0.5397
11361TIP3    H155574   0.426   1.121  14.793  0.4435  2.4917  2.5323
11361TIP3    H255575   0.572   1.150  14.767  0.1245  1.7689 -0.2829
11362TIP3   OH255576   2.594   3.012   5.632  0.4645  0.2555 -0.2601
11362TIP3    H155577   2.626   3.046   5.548  1.8366 -1.8451 -0.6358
11362TIP3    H255578   2.625   2.921   5.634  1.1774  0.5174  2.8888
11363TIP3   OH255579   2.805   4.243  11.474 -0.1051  0.3897  0.2708
11363TIP3    H155580   2.796   4.282  11.387  1.6910 -0.5724 -0.3811
11363TIP3    H255581   2.802   4.317  11.534 -0.5959  1.1429 -0.6769
11364TIP3   OH255582   4.191   4.192  11.272  0.4957  0.4987 -0.0025
11364TIP3    H155583   4.259   4.168  11.336  0.9876  0.4454 -0.5392
11364TIP3    H255584   4.181   4.115  11.217 -0.2892  0.3713  0.3202
11365TIP3   OH255585   3.743   2.143   3.849  0.2767 -0.5277 -0.2731
11365TIP3    H155586   3.729   2.205   3.921  0.8625 -1.9979  1.1442
11365TIP3    H255587   3.659   2.139   3.804 -0.3520 -0.2114  0.8419
11366TIP3   OH255588   3.386   3.320  17.169 -0.0923 -0.0396 -0.1157
11366TIP3    H155589   3.422   3.388  17.113  1.3068  0.1544  0.9705
11366TIP3    H255590   3.363   3.366  17.250 -0.2165 -0.6669  0.2064
11367TIP3   OH255591   2.820   6.220   0.552  0.1949 -0.0393  0.2499
11367TIP3    H155592   2.791   6.309   0.534 -0.7903 -0.7927 -2.1118
11367TIP3    H255593   2.910   6.217   0.519  0.4309  0.2358  0.8622
11368TIP3   OH255594   5.825   2.652   4.243 -0.0490  0.4551  0.2169
11368TIP3    H155595   5.794   2.586   4.305 -1.4106  0.7774 -0.1208
11368TIP3    H255596   5.779   2.732   4.267  0.9937  1.1076  0.1023
11369TIP3   OH255597   1.201   3.291  15.766  0.5283 -0.0076  0.1616
11369TIP3    H155598   1.279   3.241  15.741  0.2798 -1.2020  1.6634
11369TIP3    H255599   1.231   3.347  15.838  0.2108  0.1903  0.1390
11370TIP3   OH255600   4.100   5.943   2.050  0.6317  0.1106  0.1603
11370TIP3    H155601   4.049   5.930   2.131  0.1539  2.9792  0.3771
11370TIP3    H255602   4.042   5.994   1.993  0.9183 -2.0036 -2.0690
11371TIP3   OH255603   4.483   4.857  14.392  0.2736  0.0856 -0.1024
11371TIP3    H155604   4.441   4.860  14.307 -0.0754 -1.6225 -0.0046
11371TIP3    H255605   4.556   4.918  14.385  0.5515 -0.4161 -1.8012
11372TIP3   OH255606   2.860   3.893  12.205  0.1977 -0.1673  0.5377
11372TIP3    H155607   2.837   3.920  12.294  1.0985 -1.7970  1.2998
11372TIP3    H255608   2.777   3.861  12.168 -0.0073 -0.3015  1.1069
11373TIP3   OH255609   0.361   6.304  15.944  0.4604 -0.0811 -0.5599
11373TIP3    H155610   0.428   6.264  15.999  0.1595  0.1579 -0.0170
11373TIP3    H255611   0.282   6.253  15.962  0.5423 -0.5059 -1.3655
11374TIP3   OH255612   6.025   5.510  17.107 -0.2916  1.0161 -0.1030
11374TIP3    H155613   5.995   5.585  17.055  0.4732  1.6366  0.3371
11374TIP3    H255614   6.053   5.446  17.042 -1.4829  0.8711 -0.4941
11375TIP3   OH255615   5.680   1.126  13.618 -0.2051  0.0058  0.0369
11375TIP3    H155616   5.761   1.177  13.616  0.5636 -1.0171  2.5152
11375TIP3    H255617   5.708   1.036  13.604 -1.4295  0.0399 -3.1857
11376TIP3   OH255618   5.544   0.183  11.871 -0.0247  1.0365  0.6287
11376TIP3    H155619   5.624   0.139  11.843 -0.1814  0.5346  0.9649
11376TIP3    H255620   5.569   0.275  11.881 -0.1516  1.3811 -1.9308
11377TIP3   OH255621   4.518   2.453  10.879 -0.4514 -1.1835  0.2017
11377TIP3    H155622   4.495   2.495  10.796  1.0378 -0.3280  0.2109
11377TIP3    H255623   4.440   2.462  10.933 -0.2488  1.4136  0.1352
11378TIP3   OH255624   6.619   6.363  16.752 -0.0399  0.5057 -0.5417
11378TIP3    H155625   6.694   6.374  16.810 -0.1164  1.5805 -0.6410
11378TIP3    H255626   6.643   6.410  16.672 -0.2649 -0.2929 -1.0891
11379TIP3   OH255627   5.033   1.140  11.901  0.0040 -0.1599 -0.2599
11379TIP3    H155628   5.004   1.208  11.961 -0.5825 -1.5518  1.0874
11379TIP3    H255629   5.079   1.077  11.957 -2.1409 -2.4180 -0.9051
11380TIP3   OH255630   0.217   4.390   0.499 -1.1143 -0.2901 -0.0669
11380TIP3    H155631   0.245   4.477   0.470  0.8541 -1.2709 -1.2354
11380TIP3    H255632   0.250   4.383   0.589 -0.2768 -0.2648 -0.3708
11381TIP3   OH255633   2.068   4.068   0.708  0.4351  0.1198 -0.5871
11381TIP3    H155634   2.076   4.143   0.648 -2.2129  1.1827  0.3289
11381TIP3    H255635   1.975   4.045   0.706  0.7304 -1.3602  1.2980
11382TIP3   OH255636   0.315   4.734  13.091  0.2115  0.3948  0.8708
11382TIP3    H155637   0.368   4.810  13.112  0.1650 -0.2531  3.5186
11382TIP3    H255638   0.235   4.744  13.144  0.3347 -1.5991  1.4995
11383TIP3   OH255639   5.169   1.575  15.045 -0.6362  0.1319 -0.7358
11383TIP3    H155640   5.228   1.563  14.971 -2.5189  0.2495 -2.3049
11383TIP3    H255641   5.210   1.642  15.099  0.9736 -0.2642 -1.4510
11384TIP3   OH255642   1.736   2.642   5.460  0.2694  0.2461 -0.0488
11384TIP3    H155643   1.761   2.564   5.511  0.0741 -0.0239 -0.3605
11384TIP3    H255644   1.818   2.688   5.445  0.2817  0.5217  0.8322
11385TIP3   OH255645   2.587   3.647  15.009 -0.0285 -0.2507  0.1976
11385TIP3    H155646   2.522   3.658  14.940  1.0696  2.1250 -0.5348
11385TIP3    H255647   2.559   3.570  15.058 -1.0954 -1.7067 -2.6221
11386TIP3   OH255648   4.456   1.637  10.660  0.0741 -0.3736  0.4991
11386TIP3    H155649   4.446   1.651  10.755 -1.3833 -0.6554  0.4063
11386TIP3    H255650   4.471   1.543  10.651  2.1054 -0.0777  0.5705
11387TIP3   OH255651   1.454   2.047  10.529  0.0623  0.0908 -0.3314
11387TIP3    H155652   1.450   1.954  10.511 -0.5877 -0.7894  3.7982
11387TIP3    H255653   1.362   2.075  10.531  0.2435  0.7889 -1.3361
11388TIP3   OH255654   4.338   3.606   0.421 -0.4217 -0.2574 -0.2775
11388TIP3    H155655   4.258   3.651   0.392 -1.0799  0.0856  1.9748
11388TIP3    H255656   4.407   3.671   0.412 -0.5900 -0.1954 -1.1574
11389TIP3   OH255657   3.829   5.521   5.042 -0.1409  0.2862 -0.1438
11389TIP3    H155658   3.808   5.438   5.085  1.7214  0.9819  2.1981
11389TIP3    H255659   3.918   5.510   5.009 -0.7421  0.5492 -1.9503
11390TIP3   OH255660   5.536   2.919  13.403  0.1739 -0.5450  0.3539
11390TIP3    H155661   5.547   2.823  13.405 -0.5211 -0.7447 -2.6455
11390TIP3    H255662   5.508   2.942  13.491  2.4222 -2.8338  1.7374
11391TIP3   OH255663   4.091   2.942   2.124 -0.2362  0.2303 -0.1662
11391TIP3    H155664   4.035   2.956   2.200  2.7698  0.2078  2.1753
11391TIP3    H255665   4.125   3.029   2.103  1.4409 -0.2124  0.6001
11392TIP3   OH255666   2.407   5.610  12.771  0.1309  0.2863 -0.1435
11392TIP3    H155667   2.398   5.699  12.805 -3.2972  0.4785 -1.3456
11392TIP3    H255668   2.410   5.620  12.676 -0.0040 -0.8660 -0.2831
11393TIP3   OH255669   1.664   2.094   0.198 -0.1483  0.1859  0.3362
11393TIP3    H155670   1.687   2.185   0.219  0.5542  0.0738  0.0794
11393TIP3    H255671   1.593   2.073   0.258 -0.5074  1.0001  0.2052
11394TIP3   OH255672   0.496   1.169  10.939  0.2724  0.2383  0.5206
11394TIP3    H155673   0.440   1.196  10.866  0.1179  0.9618  0.9009
11394TIP3    H255674   0.524   1.080  10.917 -2.0870 -0.6437  0.9421
11395TIP3   OH255675   3.502   1.610  13.485  0.1152  0.2479 -0.2566
11395TIP3    H155676   3.571   1.573  13.429  0.1967 -0.4333  0.2859
11395TIP3    H255677   3.420   1.587  13.440  0.2038  0.2266 -0.4093
11396TIP3   OH255678   0.856   5.058  16.463 -0.4858 -0.1809 -0.2741
11396TIP3    H155679   0.919   5.109  16.413  2.5010 -2.4474  1.0096
11396TIP3    H255680   0.909   4.995  16.512 -3.5453 -0.4623  2.9059
11397TIP3   OH255681   1.808   3.450   3.450 -0.1851 -0.4438  0.7009
11397TIP3    H155682   1.892   3.415   3.480  0.6084 -0.6039 -1.6352
11397TIP3    H255683   1.773   3.383   3.392 -0.0630  1.2754 -1.4318
11398TIP3   OH255684   1.649   1.476   2.105 -0.2202  0.1935  0.2049
11398TIP3    H155685   1.676   1.391   2.142  0.6448 -0.1923 -1.2822
11398TIP3    H255686   1.554   1.468   2.095  0.0247 -1.1512 -1.2470
11399TIP3   OH255687   1.849   5.119  13.370  0.1318  0.3985 -0.7985
11399TIP3    H155688   1.897   5.109  13.288  0.1511  1.1871 -0.8796
11399TIP3    H255689   1.917   5.125  13.437  0.1371  1.0653 -0.8652
11400TIP3   OH255690   2.755   3.775   1.088  0.6455  0.0901  0.0067
11400TIP3    H155691   2.694   3.726   1.032 -0.2008  1.1811 -0.0479
11400TIP3    H255692   2.736   3.743   1.177  0.2471  0.1469 -0.0533
11401TIP3   OH255693   3.273   1.271  14.898  0.0675  0.1151 -0.0069
11401TIP3    H155694   3.252   1.182  14.871  0.4953 -0.4980  1.5889
11401TIP3    H255695   3.244   1.326  14.826 -1.0658 -1.2407 -0.6012
11402TIP3   OH255696   6.294   5.640   3.399  0.2287  0.5168 -0.0325
11402TIP3    H155697   6.204   5.609   3.412  0.8791 -1.0769  0.9162
11402TIP3    H255698   6.296   5.671   3.309 -0.7315 -1.4080 -0.7663
11403TIP3   OH255699   6.431   0.244  14.588 -0.8327  0.3937 -0.3944
11403TIP3    H155700   6.351   0.277  14.628 -0.5855  1.1234 -0.4977
11403TIP3    H255701   6.446   0.159  14.629 -1.4036  0.4673 -0.0414
11404TIP3   OH255702   4.957   1.189  12.622  0.5922  0.2747  0.3420
11404TIP3    H155703   4.921   1.216  12.706  0.2351  1.0401 -0.0446
11404TIP3    H255704   4.882   1.192  12.562  0.9918  0.4634 -0.1532
11405TIP3   OH255705   4.785   6.728   3.943 -0.4792 -0.0977 -0.0250
11405TIP3    H155706   4.747   6.732   4.031  1.2205 -0.0184  0.7300
11405TIP3    H255707   4.796   6.819   3.917  0.7602 -0.0959  0.4701
11406TIP3   OH255708   6.418   2.951   3.538 -0.2894  0.1161  0.4774
11406TIP3    H155709   6.433   2.911   3.452  1.1495  0.0198  0.7596
11406TIP3    H255710   6.415   2.877   3.599 -2.1623  0.1153  0.4177
11407TIP3   OH255711   4.043   6.104  13.209 -0.8631 -0.0464  0.1324
11407TIP3    H155712   4.084   6.103  13.123 -1.2873  0.1817 -0.0775
11407TIP3    H255713   4.051   6.195  13.238 -2.0601  0.2253 -0.3317
11408TIP3   OH255714   5.764   3.414  12.706 -0.4539  0.1563 -0.2192
11408TIP3    H155715   5.751   3.503  12.741  0.9724 -0.3045  1.5469
11408TIP3    H255716   5.704   3.360  12.756  1.8222 -0.5577  1.8487
11409TIP3   OH255717   2.948   4.451   1.700  0.0526 -0.7610 -0.5032
11409TIP3    H155718   3.000   4.532   1.703  1.7146 -1.8694  1.4812
11409TIP3    H255719   2.899   4.457   1.617  1.1012  1.6784 -0.9793
11410TIP3   OH255720   6.203   3.284   6.015 -0.2334  0.1913 -0.1053
11410TIP3    H155721   6.135   3.247   5.958  0.1526 -0.6901 -0.0094
11410TIP3    H255722   6.206   3.225   6.090  0.0923  0.6712  0.2636
11411TIP3   OH255723   4.264   5.500   5.197  0.0402  0.4561 -0.4115
11411TIP3    H155724   4.247   5.585   5.237 -0.4793 -0.1200  0.6302
11411TIP3    H255725   4.203   5.441   5.241  2.0603 -0.9254  0.5956
11412TIP3   OH255726   3.640   4.345   4.799 -0.2724 -0.6651 -0.4288
11412TIP3    H155727   3.673   4.291   4.872  1.7591  0.8481 -0.1660
11412TIP3    H255728   3.595   4.283   4.742  0.7608 -2.4018  0.5832
11413TIP3   OH255729   5.891   4.576   5.089  0.0100 -0.0987 -0.8187
11413TIP3    H155730   5.910   4.584   4.996 -1.2165 -0.2023 -1.0724
11413TIP3    H255731   5.843   4.494   5.098 -0.6811  0.3670 -0.2127
11414TIP3   OH255732   0.417   2.028   4.267 -0.0305  0.3115  0.0702
11414TIP3    H155733   0.345   2.012   4.206 -1.0398  1.5783  0.8964
11414TIP3    H255734   0.422   2.123   4.273  1.3143  0.2175  0.4974
11415TIP3   OH255735   6.271   3.326   1.788  0.5167  0.0870 -0.0650
11415TIP3    H155736   6.308   3.313   1.876  0.1928 -2.2440 -0.2328
11415TIP3    H255737   6.182   3.358   1.804 -0.3229 -2.4151  0.5579
11416TIP3   OH255738   5.767   5.533  12.896 -0.2144  0.2302  0.2864
11416TIP3    H155739   5.776   5.628  12.889  0.9908  0.1627  0.7832
11416TIP3    H255740   5.844   5.498  12.852 -2.0690 -0.6135 -2.4191
11417TIP3   OH255741   3.751   5.297  16.954 -1.2206 -0.4517  0.0072
11417TIP3    H155742   3.701   5.219  16.931  0.3389 -1.4442 -0.0576
11417TIP3    H255743   3.805   5.314  16.877  2.4944 -2.5638  2.0115
11418TIP3   OH255744   5.456   2.011  13.448 -0.2546 -0.0163 -0.4020
11418TIP3    H155745   5.527   2.069  13.420  0.0822 -0.4961 -0.5489
11418TIP3    H255746   5.384   2.031  13.388 -0.4902  0.9895  0.2087
11419TIP3   OH255747   6.764   3.760  12.986 -0.0827 -0.0314  0.1212
11419TIP3    H155748   6.670   3.760  12.967  0.0316  2.1152 -0.6608
11419TIP3    H255749   6.801   3.818  12.920  1.9087 -1.4294 -0.0193
11420TIP3   OH255750   2.466   1.862  15.225 -0.6100  0.6680  0.2161
11420TIP3    H155751   2.481   1.949  15.262 -1.8258  1.5249 -1.2263
11420TIP3    H255752   2.388   1.831  15.270 -1.8058  1.5084 -1.2370
11421TIP3   OH255753   0.424   2.071  16.609  0.6849  0.2299 -0.2706
11421TIP3    H155754   0.366   2.143  16.634  1.1988 -0.4324  3.0821
11421TIP3    H255755   0.371   1.993  16.622  0.4975 -0.0915 -2.8146
11422TIP3   OH255756   6.045   1.218   3.468 -0.3563 -0.4657 -0.1656
11422TIP3    H155757   6.025   1.125   3.483  1.9924 -1.0481 -0.3589
11422TIP3    H255758   6.081   1.220   3.379 -0.6347  0.6803 -0.2581
11423TIP3   OH255759   4.137   1.290  14.489  0.1579  0.2729  0.0166
11423TIP3    H155760   4.109   1.266  14.577 -0.3213 -0.2839 -0.2847
11423TIP3    H255761   4.076   1.358  14.461 -0.5394 -0.5048 -0.4002
11424TIP3   OH255762   3.693   2.451   2.143  0.2340 -0.0011 -0.2159
11424TIP3    H155763   3.686   2.485   2.054  1.0340  1.7075  0.3570
11424TIP3    H255764   3.787   2.453   2.162  0.1873 -1.4812  0.2461
11425TIP3   OH255765   5.611   4.077   5.491  0.1110 -0.2233  0.2747
11425TIP3    H155766   5.668   4.023   5.545  2.5058 -0.2235 -2.1283
11425TIP3    H255767   5.649   4.072   5.403 -0.8789  3.5585 -0.4757
11426TIP3   OH255768   1.967   4.562   2.037 -0.0092 -0.1412  0.2488
11426TIP3    H155769   2.048   4.583   2.084  0.3525 -0.1389 -0.3667
11426TIP3    H255770   1.949   4.641   1.984 -0.1482 -0.3283  0.0149
11427TIP3   OH255771   0.203   5.911  10.635 -0.1980  0.0175 -0.3808
11427TIP3    H155772   0.291   5.907  10.597  0.5802  0.8494  1.2773
11427TIP3    H255773   0.194   6.002  10.665 -0.6418 -0.7027  1.7449
11428TIP3   OH255774   2.682   1.081   4.009  0.3289 -0.1827 -0.4631
11428TIP3    H155775   2.750   1.019   3.984  0.7960  0.7677 -1.6284
11428TIP3    H255776   2.604   1.027   4.024  1.0867 -1.1778 -0.0574
11429TIP3   OH255777   6.395   1.902  13.470 -0.0465  0.0667  0.0171
11429TIP3    H155778   6.339   1.945  13.405 -0.9213 -1.8144 -0.5152
11429TIP3    H255779   6.439   1.974  13.514  0.6363  1.3995 -2.7048
11430TIP3   OH255780   2.148   3.981  15.262 -0.1089  0.1261 -0.2497
11430TIP3    H155781   2.127   3.995  15.355 -1.9607  0.3512 -0.6696
11430TIP3    H255782   2.242   3.998  15.255  0.5036 -2.0509  2.0104
11431TIP3   OH255783   4.980   3.421  16.984 -0.8657 -0.0793 -0.6272
11431TIP3    H155784   4.972   3.500  16.931  2.2694 -0.6273 -2.0024
11431TIP3    H255785   4.985   3.350  16.921 -0.4109 -1.0728  0.5171
11432TIP3   OH255786   4.924   4.326  17.264  0.3760  0.2682 -0.4003
11432TIP3    H155787   4.942   4.339  17.357  1.0837  0.3534 -0.5467
11432TIP3    H255788   4.901   4.413  17.231  0.1097  0.2350 -0.2956
11433TIP3   OH255789   1.552   0.678   3.158  0.2703 -0.2418  0.3437
11433TIP3    H155790   1.576   0.622   3.232  1.2839  0.5879  0.6598
11433TIP3    H255791   1.563   0.767   3.191  0.0888  0.1354 -0.6038
11434TIP3   OH255792   5.357   5.401   6.303  0.2079 -0.0870 -0.2962
11434TIP3    H155793   5.372   5.491   6.274  2.8718 -0.7972 -1.2447
11434TIP3    H255794   5.294   5.409   6.375  0.7267  2.5700 -0.0940
11435TIP3   OH255795   6.067   0.651   0.837  0.0552  0.6687 -0.1520
11435TIP3    H155796   6.082   0.562   0.804  0.2320  1.2090 -1.5477
11435TIP3    H255797   6.130   0.706   0.789 -2.0474  1.9873 -1.4772
11436TIP3   OH255798   2.922   2.448   5.594  0.5115  0.3464 -0.7228
11436TIP3    H155799   2.936   2.529   5.643  0.8622  0.1873 -0.5567
11436TIP3    H255800   2.887   2.387   5.659 -0.6275  0.6296 -1.0480
11437TIP3   OH255801   3.918   2.342  12.648 -0.2395  0.0162 -0.4133
11437TIP3    H155802   3.992   2.317  12.704  1.3074  2.1245 -1.4381
11437TIP3    H255803   3.846   2.356  12.709  1.5847  2.9314  1.2375
11438TIP3   OH255804   1.839   1.953   0.808  0.3862  0.8534  0.2822
11438TIP3    H155805   1.900   1.939   0.880 -0.7284 -0.2327  1.0475
11438TIP3    H255806   1.754   1.926   0.844 -0.2462  0.7133 -1.2979
11439TIP3   OH255807   3.209   2.192  16.659 -0.3387  0.6126 -0.5445
11439TIP3    H155808   3.225   2.137  16.583  1.0313  0.8514 -0.4411
11439TIP3    H255809   3.161   2.136  16.720  2.5164 -1.0800  0.2688
11440TIP3   OH255810   0.508   5.369  11.708  0.7915 -0.2977  0.6840
11440TIP3    H155811   0.423   5.328  11.697  2.0189 -2.3778 -1.7564
11440TIP3    H255812   0.555   5.312  11.769  2.1431 -2.1220 -1.9275
11441TIP3   OH255813   4.713   6.175  14.312  0.0950 -0.3321 -0.0565
11441TIP3    H155814   4.710   6.264  14.276  0.6451 -0.2657  0.0696
11441TIP3    H255815   4.734   6.187  14.404  1.0245 -0.6460 -0.2263
11442TIP3   OH255816   1.829   6.727  11.596 -0.1228 -0.1658  0.3031
11442TIP3    H155817   1.872   6.789  11.537  1.0454  0.7585  2.1120
11442TIP3    H255818   1.736   6.731  11.571  0.2935  0.4970 -1.1919
11443TIP3   OH255819   4.724   1.402   5.371  0.3982 -0.2830 -0.0198
11443TIP3    H155820   4.806   1.387   5.419  0.2043 -0.5271  0.2322
11443TIP3    H255821   4.750   1.400   5.278  0.9869  1.4342  0.0967
11444TIP3   OH255822   0.398   3.581  11.814  0.6415  0.0005  0.2549
11444TIP3    H155823   0.486   3.554  11.839  1.0546  0.1005 -1.0409
11444TIP3    H255824   0.396   3.675  11.834  0.3243 -0.3050  1.6673
11445TIP3   OH255825   2.277   1.879  12.225  0.6513  0.9217  0.0483
11445TIP3    H155826   2.307   1.886  12.315  0.6296 -1.2160  0.2444
11445TIP3    H255827   2.300   1.791  12.198  0.2947  1.3911 -1.9183
11446TIP3   OH255828   6.807   4.587   1.008  0.3207  0.4302  0.0423
11446TIP3    H155829   6.723   4.543   1.023  0.8904  0.0439  2.1695
11446TIP3    H255830   6.810   4.600   0.913 -1.3595 -1.1161 -0.2452
11447TIP3   OH255831   3.114   6.190  11.433 -0.4975 -0.3240 -0.5007
11447TIP3    H155832   3.133   6.240  11.354  2.2413 -2.1080 -1.0078
11447TIP3    H255833   3.148   6.244  11.504  0.8002 -0.6038 -0.8982
11448TIP3   OH255834   2.112   0.170   2.264 -0.6157  0.0828 -0.5117
11448TIP3    H155835   2.188   0.180   2.207  0.6130 -1.1070  0.8755
11448TIP3    H255836   2.118   0.244   2.324 -1.1902  0.6152 -1.1041
11449TIP3   OH255837   1.035   1.643   0.362 -0.2701 -0.3660  0.3712
11449TIP3    H155838   1.105   1.581   0.379  1.9424  1.5802 -1.2460
11449TIP3    H255839   1.036   1.655   0.267 -1.0784  1.6028  0.5775
11450TIP3   OH255840   2.215   0.017   3.909 -0.2010  0.1671  0.4897
11450TIP3    H155841   2.231  -0.042   3.835 -0.9425 -0.5932  0.9189
11450TIP3    H255842   2.156   0.084   3.873  1.2888  1.1331 -0.2170
11451TIP3   OH255843   1.887   5.071   7.106  0.0926 -0.5574 -0.5010
11451TIP3    H155844   1.815   5.018   7.074  0.7600 -1.1471 -1.0347
11451TIP3    H255845   1.889   5.148   7.049  0.1776 -0.7600 -0.7661
11452TIP3   OH255846   1.349   0.726   4.340 -0.4209 -0.1898 -0.4101
11452TIP3    H155847   1.325   0.714   4.248 -0.1369 -0.9521 -0.3859
11452TIP3    H255848   1.292   0.666   4.388  0.5565 -0.9851 -0.2316
11453TIP3   OH255849   3.569   0.087   3.905  0.0653  0.0716  0.1401
11453TIP3    H155850   3.630   0.129   3.844  0.5629  0.6462  1.0175
11453TIP3    H255851   3.625   0.035   3.964 -0.1632  1.5431  1.7013
11454TIP3   OH255852   1.079   2.356  11.283  0.1917 -0.2878 -0.0624
11454TIP3    H155853   1.027   2.286  11.323  0.0549  0.3380  0.8646
11454TIP3    H255854   1.088   2.422  11.351  2.1100 -0.3186 -0.2369
11455TIP3   OH255855   0.588   1.107  11.448 -0.0662 -0.0707  0.0312
11455TIP3    H155856   0.658   1.052  11.413  0.8733  1.2137 -0.1322
11455TIP3    H255857   0.532   1.046  11.496  1.1187 -1.1318  0.1017
11456TIP3   OH255858   6.681   5.582  13.130 -0.1828 -0.5310 -0.0180
11456TIP3    H155859   6.728   5.654  13.171 -2.4072  0.8143  0.2690
11456TIP3    H255860   6.664   5.611  13.040 -0.4040 -1.0186 -0.1383
11457TIP3   OH255861   6.605   3.056  14.510  0.2887  0.0236 -0.2839
11457TIP3    H155862   6.621   2.971  14.551  1.6401  0.2139 -0.4092
11457TIP3    H255863   6.667   3.061  14.437 -1.0681  0.3257 -1.4460
11458TIP3   OH255864   3.047   5.215   2.830 -0.1463  0.1099 -0.3174
11458TIP3    H155865   3.010   5.300   2.807  1.0811  0.7533  0.0937
11458TIP3    H255866   3.141   5.229   2.833  0.0043 -1.0465  0.6886
11459TIP3   OH255867   3.697   0.837  16.417  0.6600  0.7019  0.3693
11459TIP3    H155868   3.741   0.870  16.338 -1.1493  2.3247  0.0230
11459TIP3    H255869   3.614   0.803  16.386  0.8033 -0.5505  1.3188
11460TIP3   OH255870   4.590   2.850   2.141 -0.6383  0.4174  0.3136
11460TIP3    H155871   4.667   2.892   2.105 -0.4212 -0.5768 -0.4258
11460TIP3    H255872   4.580   2.886   2.229  2.1530 -1.3077  1.3977
11461TIP3   OH255873   0.706   2.078  15.517 -0.1508  0.3687  0.3649
11461TIP3    H155874   0.709   2.111  15.607 -0.7577 -1.4249  1.0858
11461TIP3    H255875   0.764   2.135  15.468 -0.8558  2.1966  1.6213
11462TIP3   OH255876   6.296   2.705   0.021 -0.3030  0.1038 -0.3511
11462TIP3    H155877   6.201   2.708   0.009 -0.4872  0.4435  1.0916
11462TIP3    H255878   6.317   2.786   0.066  0.3083 -1.1078  1.6339
11463TIP3   OH255879   6.444   4.811  11.785  0.3662  1.1315  0.1214
11463TIP3    H155880   6.489   4.728  11.795 -0.9775  0.2440 -0.9921
11463TIP3    H255881   6.398   4.824  11.868  0.1195  0.4891  0.0839
11464TIP3   OH255882   4.302   0.332  11.926  0.1401 -0.0511 -0.0270
11464TIP3    H155883   4.230   0.282  11.887 -0.7772  1.4057 -0.2724
11464TIP3    H255884   4.298   0.312  12.019 -0.8866  0.3675  0.0263
11465TIP3   OH255885   3.285   4.095  13.775 -0.2208  0.3951  0.8947
11465TIP3    H155886   3.203   4.109  13.823 -1.6483 -0.3420 -1.2767
11465TIP3    H255887   3.258   4.055  13.693  2.1071  2.4240 -0.9211
11466TIP3   OH255888   5.105   6.645  14.845 -0.0318 -0.4733  0.4369
11466TIP3    H155889   5.130   6.735  14.864  0.2113 -0.1615 -1.2762
11466TIP3    H255890   5.124   6.597  14.926 -2.0765  1.3677  2.0769
11467TIP3   OH255891   5.302   5.346  15.164 -0.5549  0.5572 -0.3694
11467TIP3    H155892   5.380   5.326  15.113 -1.4308 -0.3171 -1.3903
11467TIP3    H255893   5.335   5.375  15.249  0.8426 -0.9619 -0.3801
11468TIP3   OH255894   3.331   1.462   0.755 -0.1543  0.8256  0.2406
11468TIP3    H155895   3.259   1.400   0.770  0.9061 -0.4723  0.0537
11468TIP3    H255896   3.364   1.439   0.668  1.1585  0.7177  0.7613
11469TIP3   OH255897   0.940   4.159  11.779 -0.1019 -0.0222  0.2835
11469TIP3    H155898   0.939   4.098  11.705 -0.3670 -1.5336  1.4950
11469TIP3    H255899   0.860   4.138  11.827  0.1152  0.8893  1.0442
11470TIP3   OH255900   0.746   5.249  16.646  0.3842 -0.0888 -0.1126
11470TIP3    H155901   0.749   5.333  16.602  2.8394  0.4143  0.8827
11470TIP3    H255902   0.777   5.186  16.581  2.1479  0.3688  0.2486
11471TIP3   OH255903   4.638   1.529  16.365 -0.3487 -0.0399  0.3942
11471TIP3    H155904   4.629   1.563  16.454 -0.0582  0.1326  0.3573
11471TIP3    H255905   4.596   1.595  16.310 -1.6002 -0.7038  0.5109
11472TIP3   OH255906   0.070   2.140   5.519 -0.1741 -0.1409 -0.5913
11472TIP3    H155907   0.119   2.130   5.601  0.8693  2.3512 -0.8635
11472TIP3    H255908  -0.018   2.167   5.547  0.1678  0.6622 -0.2839
11473TIP3   OH255909   4.901   3.469   4.484 -0.6743  0.2715 -0.5265
11473TIP3    H155910   4.968   3.537   4.481 -1.3731  0.9343 -1.7223
11473TIP3    H255911   4.851   3.488   4.563  1.0668 -0.7670  0.8745
11474TIP3   OH255912   2.990   5.746  12.148 -0.1201  0.2700 -0.3810
11474TIP3    H155913   2.962   5.712  12.063 -0.1820  2.8815 -1.4620
11474TIP3    H255914   3.086   5.743  12.146 -0.1057  1.0780 -0.8631
11475TIP3   OH255915   4.216   5.877   1.319 -0.0391 -0.2619 -0.0661
11475TIP3    H155916   4.215   5.782   1.332 -0.3301 -0.2308  0.1452
11475TIP3    H255917   4.140   5.894   1.265  0.2487 -0.1971 -0.4505
11476TIP3   OH255918   1.947   4.259  15.953 -0.3524  0.0118  0.2734
11476TIP3    H155919   1.872   4.239  16.010  0.5891 -1.3024  1.0594
11476TIP3    H255920   2.012   4.192  15.974  1.3847  1.6441  0.1983
11477TIP3   OH255921   2.110   6.729  13.668 -0.9895  0.4356 -0.3081
11477TIP3    H155922   2.100   6.794  13.738  1.0604  0.7524 -0.2931
11477TIP3    H255923   2.069   6.650  13.703 -2.3430  1.3253  0.1860
11478TIP3   OH255924   3.182   0.530  12.242 -0.2282 -0.3543  0.2222
11478TIP3    H155925   3.100   0.507  12.200 -0.2599  0.2266 -0.0469
11478TIP3    H255926   3.241   0.457  12.223  0.1925  0.5170 -2.0456
11479TIP3   OH255927   6.086   5.185   3.001  0.1738  0.3670 -0.1186
11479TIP3    H155928   6.137   5.249   3.050 -1.3056  1.1022  0.5205
11479TIP3    H255929   5.998   5.223   2.997 -0.7590 -1.6752  0.3548
11480TIP3   OH255930   6.422   0.968   1.027  0.0607 -0.0560 -0.2796
11480TIP3    H155931   6.511   0.971   1.063  0.4432 -0.1039 -1.1930
11480TIP3    H255932   6.373   0.914   1.089  0.2076  1.4479  1.1829
11481TIP3   OH255933   1.479   0.187   4.625  0.1229 -0.4270 -0.1596
11481TIP3    H155934   1.457   0.183   4.718  1.0216 -1.5635  0.0076
11481TIP3    H255935   1.468   0.098   4.593  2.0637 -0.5286 -0.6250
11482TIP3   OH255936   4.880   5.244   1.186 -0.0487  0.7112 -0.4565
11482TIP3    H155937   4.802   5.196   1.213  0.2370  0.7143  0.3753
11482TIP3    H255938   4.853   5.289   1.106 -0.3789 -0.6546 -1.1265
11483TIP3   OH255939   1.494   3.533  15.587  0.3275 -0.3918 -0.0164
11483TIP3    H155940   1.497   3.597  15.515 -0.3676 -1.0237 -0.6167
11483TIP3    H255941   1.401   3.523  15.606  0.4063 -1.5287 -0.1972
11484TIP3   OH255942   0.780   2.371  14.157  0.3723  0.3632 -0.4736
11484TIP3    H155943   0.767   2.455  14.201  1.6587 -0.3212  1.2859
11484TIP3    H255944   0.823   2.316  14.223 -0.8736 -1.8325 -1.4362
11485TIP3   OH255945   4.174   3.678   2.867  0.3061  0.7400  0.3837
11485TIP3    H155946   4.237   3.747   2.889  1.8643 -0.6333  0.3412
11485TIP3    H255947   4.209   3.637   2.788 -0.9377  0.3095  0.0469
11486TIP3   OH255948   6.336   3.822   3.952  0.0880  0.0884  0.3768
11486TIP3    H155949   6.369   3.893   3.897 -0.2744  0.1799  0.2760
11486TIP3    H255950   6.315   3.752   3.891  2.4287 -0.9186  0.6403
11487TIP3   OH255951   3.469   5.541   1.674  0.2162 -0.1899 -0.0905
11487TIP3    H155952   3.406   5.531   1.746 -0.3681  1.2115 -0.3895
11487TIP3    H255953   3.415   5.565   1.598  1.0670  0.6528 -0.4395
11488TIP3   OH255954   6.201   6.175  16.257 -0.1107  0.0794 -0.6003
11488TIP3    H155955   6.237   6.231  16.188  0.3958 -0.8424 -1.0975
11488TIP3    H255956   6.272   6.116  16.281 -0.0354  0.8980  1.2879
11489TIP3   OH255957   3.783   3.894   0.667  0.2352  0.1819 -1.1415
11489TIP3    H155958   3.702   3.844   0.667 -1.4484  2.7685  1.1039
11489TIP3    H255959   3.840   3.848   0.728 -1.3394  0.9756  1.0091
11490TIP3   OH255960   5.409   2.057   5.841  0.4377 -0.4024 -0.0273
11490TIP3    H155961   5.377   2.034   5.928  1.5164  0.5794  0.6321
11490TIP3    H255962   5.437   2.148   5.848  0.2511 -0.2087 -1.4846
11491TIP3   OH255963   5.718   6.776   1.770 -0.1378  0.0941 -0.5669
11491TIP3    H155964   5.721   6.779   1.866 -0.2058 -1.4787 -0.5062
11491TIP3    H255965   5.730   6.867   1.743 -2.9430  1.0091  1.0210
11492TIP3   OH255966   5.771   4.654  11.250  0.1302  0.3100 -0.1028
11492TIP3    H155967   5.738   4.726  11.304 -0.0259  0.9910 -1.0880
11492TIP3    H255968   5.771   4.578  11.309 -0.4617  0.9340  0.7225
11493TIP3   OH255969   0.980   6.264  15.565 -0.0573 -0.3558 -0.4213
11493TIP3    H155970   1.007   6.172  15.568 -0.9988 -0.6938 -1.9681
11493TIP3    H255971   1.054   6.312  15.602  0.6204 -1.6920 -0.0048
11494TIP3   OH255972   5.145   2.184  13.527  0.1928  0.1007  0.0476
11494TIP3    H155973   5.176   2.096  13.506  0.1085 -0.1922  1.1392
11494TIP3    H255974   5.186   2.240  13.461  1.2088 -0.5954  0.0757
11495TIP3   OH255975   1.558   4.095  13.881  0.2003  0.4836  0.2504
11495TIP3    H155976   1.473   4.113  13.840 -0.2687 -1.4040  0.3729
11495TIP3    H255977   1.604   4.042  13.817  1.2859  1.4536  0.2158
11496TIP3   OH255978   2.088   0.147   1.866 -0.3246 -0.6226 -0.2656
11496TIP3    H155979   2.129   0.123   1.783  0.7508  0.7262 -0.1502
11496TIP3    H255980   1.999   0.114   1.859  0.2120 -1.9270 -1.3078
11497TIP3   OH255981   1.102   5.207  11.330  0.1890 -0.3503  0.3713
11497TIP3    H155982   1.181   5.154  11.327  0.7111  0.4046  0.6390
11497TIP3    H255983   1.064   5.200  11.243  1.1284  0.1622 -0.0809
11498TIP3   OH255984   2.141   3.308  13.166 -0.2798 -0.0720 -0.4545
11498TIP3    H155985   2.226   3.339  13.132 -0.4732  0.5478 -0.3720
11498TIP3    H255986   2.158   3.218  13.193  0.2586 -0.0792 -0.8041
11499TIP3   OH255987   5.650   4.132  15.822 -0.1847 -0.4036  0.5957
11499TIP3    H155988   5.725   4.189  15.843  0.4465 -1.6930  1.9003
11499TIP3    H255989   5.672   4.048  15.861 -0.6905 -1.8633 -2.1122
11500TIP3   OH255990   1.050   4.962   1.633 -0.5730  0.2630 -0.0896
11500TIP3    H155991   1.108   5.037   1.621 -1.6271  1.0002 -0.5760
11500TIP3    H255992   1.026   4.936   1.545  0.2856 -1.0576  0.0426
11501TIP3   OH255993   2.166   5.836   0.002 -0.1354 -0.1618 -0.2473
11501TIP3    H155994   2.167   5.801  -0.087 -0.3038  0.2770 -0.4211
11501TIP3    H255995   2.109   5.912  -0.003 -3.6210 -2.5186  1.1323
11502TIP3   OH255996   4.445   1.446  13.248  0.4467  0.2972  0.1111
11502TIP3    H155997   4.438   1.414  13.158 -0.5025  0.0781  0.2517
11502TIP3    H255998   4.464   1.368  13.300 -1.2762  0.0329  0.3795
11503TIP3   OH255999   1.305   5.785  16.491  0.5965  0.3597 -0.4061
11503TIP3    H156000   1.350   5.718  16.440  1.1921 -0.3340  0.9894
11503TIP3    H256001   1.349   5.783  16.576  0.1342  2.0224 -0.1114
11504TIP3   OH256002   1.790   1.887  15.627  0.1031 -0.0018 -0.5109
11504TIP3    H156003   1.705   1.931  15.621 -0.0800 -0.1296  0.8713
11504TIP3    H256004   1.770   1.804  15.670  1.0513  0.3526  0.6379
11505TIP3   OH256005   0.144   0.629   0.714 -0.0568  0.1297 -0.1229
11505TIP3    H156006   0.234   0.637   0.746 -0.9367 -0.0427  2.4929
11505TIP3    H256007   0.144   0.677   0.632  2.3860  0.2773 -0.0877
11506TIP3   OH256008   4.528   4.405   4.709  0.6234 -0.2411  0.0709
11506TIP3    H156009   4.592   4.453   4.656 -0.0967  0.1946 -0.4194
11506TIP3    H256010   4.554   4.424   4.799 -0.3485  2.1072 -0.0836
11507TIP3   OH256011   3.468   2.612  14.749 -0.2678  0.4255 -1.0441
11507TIP3    H156012   3.431   2.690  14.709  0.8723  0.9414 -1.0938
11507TIP3    H256013   3.472   2.547  14.678 -0.4236  0.5863 -1.1983
11508TIP3   OH256014   2.747   3.447   3.178 -0.2173  0.5821  0.5478
11508TIP3    H156015   2.828   3.488   3.147 -0.8352  1.6193  0.3210
11508TIP3    H256016   2.722   3.498   3.254 -0.4702  0.0354  0.8297
11509TIP3   OH256017   5.207   0.035  16.332 -0.3298 -0.0036 -0.3764
11509TIP3    H156018   5.241  -0.022  16.401  0.2971 -0.0767 -0.7420
11509TIP3    H256019   5.245   0.120  16.351 -2.0501  0.5278  0.7315
11510TIP3   OH256020   0.414   2.196  16.303 -0.1257  0.3758 -0.4430
11510TIP3    H156021   0.406   2.220  16.396  0.0923  3.4249 -1.1648
11510TIP3    H256022   0.468   2.116  16.304  1.3058  1.3088  1.9633
11511TIP3   OH256023   2.184   2.511  16.918  0.4273  0.4007 -0.2821
11511TIP3    H156024   2.233   2.466  16.986  1.8557  0.7402 -1.0618
11511TIP3    H256025   2.108   2.547  16.963 -0.6708 -2.6062  0.3855
11512TIP3   OH256026   0.068   5.619   5.820 -0.3412  0.8242  0.4037
11512TIP3    H156027   0.078   5.639   5.912  0.8368 -0.5025  0.5841
11512TIP3    H256028  -0.009   5.563   5.816  1.9378 -2.4979  1.1442
11513TIP3   OH256029   1.000   3.368  14.893  0.0027  0.4127 -0.0769
11513TIP3    H156030   0.947   3.288  14.883 -0.5968  0.8905 -0.7849
11513TIP3    H256031   1.060   3.348  14.965 -1.1131 -0.1536  0.7185
11514TIP3   OH256032   1.218   6.516   3.858 -0.1224 -0.5272  0.1094
11514TIP3    H156033   1.161   6.465   3.915 -0.9200  0.0446 -0.1767
11514TIP3    H256034   1.233   6.459   3.783  1.0222 -1.3276  0.9245
11515TIP3   OH256035   4.151   0.893  11.290 -0.6952 -0.0114  0.2236
11515TIP3    H156036   4.137   0.987  11.300  0.1145  0.3128 -1.6199
11515TIP3    H256037   4.203   0.868  11.367 -0.9609  1.0260  0.7420
11516TIP3   OH256038   2.910   6.641   3.088 -0.5448  0.2258 -0.2605
11516TIP3    H156039   2.937   6.733   3.084  3.2587 -0.7958 -0.2864
11516TIP3    H256040   2.849   6.637   3.162 -0.4590  2.6699 -0.0074
11517TIP3   OH256041   1.380   4.126  12.908 -0.3750 -0.6608  0.3286
11517TIP3    H156042   1.409   4.158  12.823 -2.7676  0.4296 -0.1309
11517TIP3    H256043   1.446   4.157  12.970 -0.5769  1.8438 -0.6381
11518TIP3   OH256044   5.318   0.727   2.695 -0.0346  0.2835  0.1458
11518TIP3    H156045   5.342   0.793   2.759 -0.3620 -0.1562  0.7233
11518TIP3    H256046   5.225   0.742   2.677  0.1365  0.6182 -0.4781
11519TIP3   OH256047   4.405   2.925   1.839  0.2587 -0.2939 -0.2869
11519TIP3    H156048   4.450   2.962   1.915 -0.7977 -1.9228  1.1629
11519TIP3    H256049   4.370   3.001   1.793 -1.1372  0.6027  2.1674
11520TIP3   OH256050   1.616   6.582  15.498 -0.9339  0.0598  0.1554
11520TIP3    H156051   1.561   6.590  15.420 -1.0256  0.9775  0.3153
11520TIP3    H256052   1.577   6.510  15.548 -1.6947  0.3911  0.0327
11521TIP3   OH256053   5.537   3.573  16.664 -0.4498  0.0975 -0.7616
11521TIP3    H156054   5.487   3.538  16.737 -1.2689  0.0265 -1.3616
11521TIP3    H256055   5.472   3.615  16.607  0.0246 -0.9168 -2.0759
11522TIP3   OH256056   4.947   0.543   1.138  0.5179 -0.0475 -0.0946
11522TIP3    H156057   4.887   0.540   1.213  0.3417  1.9217 -0.1256
11522TIP3    H256058   4.933   0.630   1.100  1.3362 -0.6525 -1.8128
11523TIP3   OH256059   1.706   1.801  13.783 -0.5382  1.0715  0.1248
11523TIP3    H156060   1.633   1.807  13.844  0.3845 -2.5264  1.7507
11523TIP3    H256061   1.784   1.813  13.838  0.2588 -1.1048 -0.4675
11524TIP3   OH256062   5.869   5.295   2.602  0.4556 -0.0054 -0.0627
11524TIP3    H156063   5.860   5.274   2.509  0.3867  2.0786 -0.5524
11524TIP3    H256064   5.783   5.330   2.626  0.5277 -0.3829  0.7407
11525TIP3   OH256065   6.476   0.895   0.433 -0.6352 -0.6715 -0.6291
11525TIP3    H156066   6.416   0.915   0.505 -1.3220 -0.5675 -1.2249
11525TIP3    H256067   6.491   0.801   0.439 -2.4032 -1.0200 -1.6685
11526TIP3   OH256068   3.889   4.830  11.407  0.0990  0.3294 -0.8084
11526TIP3    H156069   3.830   4.781  11.464  0.6940  0.6737  0.1286
11526TIP3    H256070   3.832   4.869  11.340 -0.2620 -2.4201 -2.1652
11527TIP3   OH256071   1.832   0.518   3.175  0.6493 -0.5490  0.2046
11527TIP3    H156072   1.923   0.488   3.175  0.4956 -1.0604 -1.7828
11527TIP3    H256073   1.835   0.603   3.133  0.1460 -0.7818 -0.3058
11528TIP3   OH256074   5.549   2.328   6.188  0.7296 -0.5340  0.0864
11528TIP3    H156075   5.566   2.336   6.281 -2.5738  2.5325  0.5011
11528TIP3    H256076   5.624   2.370   6.146  1.2956 -0.2208  1.3868
11529TIP3   OH256077   6.108   1.234   1.153 -0.2004  0.2122  0.1576
11529TIP3    H156078   6.061   1.152   1.136  2.2502 -1.3861  0.8027
11529TIP3    H256079   6.145   1.222   1.240  0.2873  1.9645  0.1987
11530TIP3   OH256080   5.547   6.615  11.625 -0.1001  0.3339  0.7565
11530TIP3    H156081   5.630   6.585  11.588 -0.2945 -0.3074  0.8393
11530TIP3    H256082   5.529   6.697  11.580  0.2313  0.1221  0.2391
11531TIP3   OH256083   3.769   2.143   5.029 -0.1264  0.4906  0.3608
11531TIP3    H156084   3.788   2.135   5.123  1.8043 -1.4343 -0.1439
11531TIP3    H256085   3.765   2.053   4.998 -0.1243  1.1258 -1.5231
11532TIP3   OH256086   4.313   3.784   5.942  0.1047  0.1225 -0.2523
11532TIP3    H156087   4.396   3.791   5.894  0.6466  0.0221  0.6683
11532TIP3    H256088   4.322   3.705   5.995 -0.4331  0.3231  0.1463
11533TIP3   OH256089   1.318   2.445   4.252  0.1552 -0.1224  0.7027
11533TIP3    H156090   1.338   2.532   4.287  0.6677  0.3969 -0.8576
11533TIP3    H256091   1.229   2.426   4.282 -0.0633  1.0662  0.7971
11534TIP3   OH256092   3.243   1.056   5.786 -0.1672  0.1625 -0.2705
11534TIP3    H156093   3.305   1.029   5.853 -1.3749  0.4914  1.0028
11534TIP3    H256094   3.199   0.976   5.759 -0.9966  0.2919  0.6855
11535TIP3   OH256095   6.441   1.925   1.740 -0.6043 -0.0585 -0.2098
11535TIP3    H156096   6.524   1.915   1.787 -0.6532 -0.3691 -0.1907
11535TIP3    H256097   6.379   1.869   1.787 -0.7260 -0.1442 -0.4718
11536TIP3   OH256098   1.601   1.126   3.231 -0.5325 -0.2549 -0.7074
11536TIP3    H156099   1.535   1.070   3.189 -0.6284 -0.0395 -0.8490
11536TIP3    H256100   1.610   1.200   3.171 -2.1061  1.0304  0.5918
11537TIP3   OH256101   0.943   4.966   6.236 -0.1406 -0.0951  0.3257
11537TIP3    H156102   0.894   5.046   6.256  0.1174 -0.0850  0.9211
11537TIP3    H256103   0.881   4.896   6.254 -0.5811 -0.0131 -0.8157
11538TIP3   OH256104   5.291   4.443  14.572 -0.1564 -0.1697  0.1260
11538TIP3    H156105   5.229   4.510  14.604  0.7893  0.3160  0.9576
11538TIP3    H256106   5.377   4.480  14.589  0.3752 -1.3471  0.0148
11539TIP3   OH256107   5.786   0.703  11.951 -0.5142 -0.2033 -0.2876
11539TIP3    H156108   5.764   0.646  11.878  0.5218  0.8169 -1.4133
11539TIP3    H256109   5.870   0.670  11.983  0.0688  0.6741 -0.9172
11540TIP3   OH256110   2.027   4.619  13.674  0.6564  0.0222 -0.0335
11540TIP3    H156111   2.067   4.586  13.754  0.0757  0.9476  0.6448
11540TIP3    H256112   2.025   4.714  13.686  0.6492  0.1721 -1.1804
11541TIP3   OH256113   6.530   4.701  17.271  0.3893  0.0045 -0.1232
11541TIP3    H156114   6.498   4.683  17.182 -0.4423  1.0815 -0.0423
11541TIP3    H256115   6.537   4.615  17.312 -0.0152 -0.4298 -0.9562
11542TIP3   OH256116   3.425   3.833   0.809  0.0292 -0.2324  0.2217
11542TIP3    H156117   3.337   3.817   0.774  0.6560 -0.2042 -1.4374
11542TIP3    H256118   3.481   3.773   0.759  1.0303  0.1863  0.8323
11543TIP3   OH256119   6.287   5.087  14.836 -0.2915  0.1376 -0.5930
11543TIP3    H156120   6.332   5.171  14.837  1.8028 -0.9429 -0.5010
11543TIP3    H256121   6.202   5.105  14.795  1.1464  1.7833 -2.9560
11544TIP3   OH256122   0.645   3.510   3.473 -0.2302 -0.0598  0.4536
11544TIP3    H156123   0.703   3.553   3.410 -0.1828 -1.3165 -0.3860
11544TIP3    H256124   0.700   3.442   3.514 -0.4503  0.3057  1.3695
11545TIP3   OH256125   4.232   3.565  16.580  0.3725  0.0598 -0.1832
11545TIP3    H156126   4.178   3.594  16.507 -0.7050  0.1124  0.6283
11545TIP3    H256127   4.233   3.640  16.640  1.0000 -0.0919 -0.0005
11546TIP3   OH256128   5.292   1.045   6.522 -0.0140 -0.3358 -0.2993
11546TIP3    H156129   5.381   1.064   6.552 -0.1080 -1.4142  0.6960
11546TIP3    H256130   5.236   1.078   6.592 -0.3074 -1.4231 -0.0218
11547TIP3   OH256131   6.382   1.118  14.699 -0.3328  0.2479  0.0519
11547TIP3    H156132   6.299   1.071  14.700 -0.5061  0.5491 -0.0393
11547TIP3    H256133   6.357   1.211  14.706  0.0081  0.3204  0.3268
11548TIP3   OH256134   2.664   2.991   3.638  0.2724 -0.1881 -0.4340
11548TIP3    H156135   2.751   2.969   3.671  0.0818 -1.5246 -0.8213
11548TIP3    H256136   2.637   3.066   3.692  0.8177 -1.0538  1.0715
11549TIP3   OH256137   0.067   2.365   1.538  0.0321  0.0810  0.2506
11549TIP3    H156138   0.003   2.339   1.605 -0.3350  0.9222  0.2331
11549TIP3    H256139   0.042   2.454   1.514  1.0800  0.3309  0.0681
11550TIP3   OH256140   4.385   4.603   0.195 -0.4537 -0.1653 -0.0270
11550TIP3    H156141   4.437   4.575   0.270 -0.1055 -1.6290 -0.7982
11550TIP3    H256142   4.353   4.522   0.156  1.1554  0.4047 -2.7071
11551TIP3   OH256143   0.013   4.997  17.047  0.2507  0.2015 -0.2336
11551TIP3    H156144  -0.031   4.976  16.965  1.7183 -2.1117 -0.4736
11551TIP3    H256145   0.098   5.033  17.021  0.3760  0.2690  0.2523
11552TIP3   OH256146   5.562   1.721   2.337 -0.1688  0.3135  0.1695
11552TIP3    H156147   5.631   1.757   2.392 -0.3816  1.5026 -0.3262
11552TIP3    H256148   5.597   1.724   2.248  0.7718 -3.0285  0.3614
11553TIP3   OH256149   3.843   5.828  11.353 -0.3861  0.1751 -0.4118
11553TIP3    H156150   3.837   5.784  11.268 -2.6779 -3.1264  1.3615
11553TIP3    H256151   3.764   5.803  11.399  0.6269  2.2385  2.5954
11554TIP3   OH256152   0.775   5.844   0.592  0.0718 -0.2279  0.7708
11554TIP3    H156153   0.804   5.761   0.553 -0.1428 -1.3552  2.9320
11554TIP3    H256154   0.756   5.900   0.517 -0.2052 -2.2776 -0.7418
11555TIP3   OH256155   2.338   6.221  13.436  0.3326 -0.3748 -0.0796
11555TIP3    H156156   2.299   6.307  13.450 -2.1935 -1.1430 -1.9634
11555TIP3    H256157   2.426   6.228  13.473  0.2348  3.0332 -0.3227
11556TIP3   OH256158   0.127   5.847   4.715  0.3009 -0.5327 -0.7643
11556TIP3    H156159   0.034   5.856   4.697  0.0287 -1.0779  0.2857
11556TIP3    H256160   0.137   5.757   4.747  1.2827 -0.6736 -1.4300
11557TIP3   OH256161   5.224   6.439  14.985  0.2079 -0.2495 -0.0654
11557TIP3    H156162   5.269   6.482  14.913 -1.0338 -0.3288 -0.9157
11557TIP3    H256163   5.195   6.355  14.948  0.8575 -0.9414  0.9766
11558TIP3   OH256164   4.880   1.581  16.552  0.1124 -0.5943  0.1892
11558TIP3    H156165   4.887   1.596  16.646 -3.0046  0.6770  0.2736
11558TIP3    H256166   4.808   1.517  16.543  0.3091 -0.6204 -1.3360
11559TIP3   OH256167   6.150   6.365   2.881  0.0198 -0.0260  0.5379
11559TIP3    H156168   6.240   6.395   2.890 -0.1539  0.2052  1.5477
11559TIP3    H256169   6.154   6.273   2.907 -0.0579  0.0125  0.6833
11560TIP3   OH256170   1.180   1.957   4.031 -0.5528  0.5305 -0.5969
11560TIP3    H156171   1.229   2.026   4.075  1.1179 -1.9072  1.5524
11560TIP3    H256172   1.089   1.970   4.058 -0.2684  1.9431 -0.3287
11561TIP3   OH256173   2.360   4.860   0.126  0.2132 -0.0639  0.1185
11561TIP3    H156174   2.348   4.902   0.041 -0.8044 -0.3766  0.1104
11561TIP3    H256175   2.455   4.864   0.141  0.2387  1.2988 -0.3532
11562TIP3   OH256176   6.756   4.064  14.443  0.1497  0.5361 -0.5257
11562TIP3    H156177   6.828   4.125  14.429  3.0963 -2.6090  0.2545
11562TIP3    H256178   6.786   3.982  14.403 -0.7405 -2.3220  4.2902
11563TIP3   OH256179   2.207   6.373  11.345  0.5779 -0.4809  0.6489
11563TIP3    H156180   2.280   6.310  11.343  1.1445  0.1883 -1.2460
11563TIP3    H256181   2.245   6.452  11.384  0.4597 -0.6025  1.0123
11564TIP3   OH256182   3.609   6.748  14.665  0.2352 -0.3973  0.2713
11564TIP3    H156183   3.639   6.751  14.575 -1.7929  0.4683 -0.4080
11564TIP3    H256184   3.595   6.655  14.683  0.2091 -0.5331 -0.4514
11565TIP3   OH256185   0.558   2.645   5.314 -0.2262  0.6482  0.1974
11565TIP3    H156186   0.536   2.734   5.289  0.4926  1.0227  0.8749
11565TIP3    H256187   0.479   2.594   5.295  0.0179  1.0672 -1.9860
11566TIP3   OH256188   5.755   6.061   1.935  0.1981  0.0748 -0.5983
11566TIP3    H156189   5.729   6.114   1.860  0.1539 -1.0992 -1.4142
11566TIP3    H256190   5.694   6.087   2.005  0.9183  1.9387 -0.6377
11567TIP3   OH256191   2.823   0.098  14.568  0.3081  0.5549  0.3295
11567TIP3    H156192   2.866   0.020  14.602  0.7695  1.3420  1.6114
11567TIP3    H256193   2.826   0.160  14.641 -0.5001  1.5909 -0.5032
11568TIP3   OH256194   2.399   5.405   0.983 -0.6262  0.1780  0.5300
11568TIP3    H156195   2.394   5.363   1.069 -0.2915  0.8230  0.8747
11568TIP3    H256196   2.468   5.358   0.937  0.2630  0.8294  1.1880
11569TIP3   OH256197   3.013   2.657  11.238  0.4799  0.3173  0.3680
11569TIP3    H156198   3.025   2.713  11.161  2.1511  0.0931  0.4382
11569TIP3    H256199   2.971   2.713  11.303 -0.3735  0.6900 -0.4969
11570TIP3   OH256200   4.394   2.561   0.836 -0.0829 -0.0572 -0.4018
11570TIP3    H156201   4.445   2.480   0.843  0.7137  0.5190  0.8050
11570TIP3    H256202   4.409   2.592   0.747  2.4404  0.5599  0.1905
11571TIP3   OH256203   3.056   3.811   3.997  0.2054  0.1199 -0.6430
11571TIP3    H156204   3.070   3.829   4.090 -0.6038 -1.5073 -0.1876
11571TIP3    H256205   3.016   3.890   3.962  1.5172  1.1577  0.1438
11572TIP3   OH256206   0.133   0.790   1.696  0.7411  0.1916 -0.0409
11572TIP3    H156207   0.064   0.803   1.761  0.3397  0.1768 -0.4589
11572TIP3    H256208   0.186   0.870   1.701 -0.8997  1.4282 -1.6090
11573TIP3   OH256209   1.867   6.231   0.355  0.1927  0.2331 -0.5614
11573TIP3    H156210   1.902   6.310   0.397  0.9442  0.0902 -0.9155
11573TIP3    H256211   1.862   6.254   0.262  1.1770 -0.4190 -0.7725
11574TIP3   OH256212   3.166   4.149  16.774  0.0898  0.1285  0.2438
11574TIP3    H156213   3.156   4.184  16.686  2.0048  0.3532  0.0870
11574TIP3    H256214   3.124   4.063  16.770  0.2649  0.0827 -0.9307
11575TIP3   OH256215   4.425   5.558   0.333  0.1098 -0.6883 -0.6330
11575TIP3    H156216   4.369   5.630   0.360  1.0142 -0.0698 -0.3799
11575TIP3    H256217   4.373   5.510   0.268 -0.7172 -0.1494 -0.3743
11576TIP3   OH256218   6.043   1.437   1.932 -0.1234 -0.2200 -0.5320
11576TIP3    H156219   6.088   1.516   1.960 -1.3788  0.3398 -0.0272
11576TIP3    H256220   6.030   1.450   1.837  0.5860 -0.2903 -0.6383
11577TIP3   OH256221   1.868   0.117   1.658 -0.0041 -0.2607 -0.0559
11577TIP3    H156222   1.947   0.071   1.629  0.1919  0.0262  0.0190
11577TIP3    H256223   1.799   0.086   1.599  0.2716 -0.1265 -0.4525
11578TIP3   OH256224   5.527   2.983  15.668  0.4619  0.2788 -0.3136
11578TIP3    H156225   5.559   3.033  15.743  0.0566  0.1005 -0.0226
11578TIP3    H256226   5.584   2.906  15.664  1.5684  1.1220 -1.2089
11579TIP3   OH256227   3.810   4.796   0.764 -0.0934 -0.9798 -0.4709
11579TIP3    H156228   3.864   4.788   0.686 -0.7551 -0.0305 -1.0425
11579TIP3    H256229   3.868   4.839   0.828 -0.5199  1.2114 -1.4849
11580TIP3   OH256230   0.222   0.516  14.480 -0.5024  0.4820 -0.2492
11580TIP3    H156231   0.191   0.522  14.390  1.8517  0.4454 -1.0706
11580TIP3    H256232   0.205   0.603  14.517  1.9374  1.6904 -1.8598
11581TIP3   OH256233   5.429   2.612  16.661  0.2631 -0.4058  0.1142
11581TIP3    H156234   5.404   2.636  16.750  1.4633  0.6983  0.1752
11581TIP3    H256235   5.524   2.621  16.660  0.1710  0.6490 -1.5617
11582TIP3   OH256236   3.918   5.230   3.697 -0.0217  0.5092 -0.0714
11582TIP3    H156237   3.984   5.259   3.634 -1.5455  0.7632 -1.5919
11582TIP3    H256238   3.937   5.279   3.777  0.0055  2.5494 -1.3078
11583TIP3   OH256239   5.903   6.530  14.608 -0.1205  0.0421  0.4784
11583TIP3    H156240   5.832   6.477  14.645 -1.4430  0.5091 -1.2934
11583TIP3    H256241   5.859   6.608  14.573  0.7995 -1.0116 -3.3427
11584TIP3   OH256242   3.818   4.730  15.271  0.2336 -0.6142  0.4690
11584TIP3    H156243   3.857   4.816  15.257 -0.2706 -0.3193  0.8694
11584TIP3    H256244   3.885   4.668  15.242  1.8735 -0.1824  3.1780
11585TIP3   OH256245   5.239   0.214  14.470 -0.5239  0.0441  0.5598
11585TIP3    H156246   5.159   0.267  14.477 -0.9373 -0.6741  1.5837
11585TIP3    H256247   5.215   0.131  14.513  0.3812 -0.6352 -0.2476
11586TIP3   OH256248   3.931   0.371   5.600 -0.0595  0.1993  0.2918
11586TIP3    H156249   3.869   0.347   5.532  0.0360 -0.6644  0.5044
11586TIP3    H256250   4.008   0.402   5.553 -0.6863  1.4023  0.0263
11587TIP3   OH256251   5.458   3.206   1.439 -0.1277  0.5380  0.1859
11587TIP3    H156252   5.416   3.224   1.523  0.9751  0.4448  0.7685
11587TIP3    H256253   5.492   3.291   1.410 -0.6024  0.5924 -0.2312
11588TIP3   OH256254   4.023   3.430  16.038  0.2492  0.0299  0.1887
11588TIP3    H156255   4.068   3.389  15.963  0.8894  0.8364  0.1227
11588TIP3    H256256   4.014   3.522  16.013  1.3528  0.5136  1.5125
11589TIP3   OH256257   3.181   4.197  12.417 -0.5656 -0.3408 -0.0822
11589TIP3    H156258   3.227   4.115  12.403 -2.0025 -1.1499 -0.1517
11589TIP3    H256259   3.250   4.260  12.439  0.5313 -1.5734  0.0501
11590TIP3   OH256260   3.733   4.952   3.466  0.0968 -0.0345  0.3293
11590TIP3    H156261   3.815   4.944   3.514 -1.3000 -1.0612  2.6061
11590TIP3    H256262   3.698   5.037   3.491 -1.0078 -0.8958  1.7801
11591TIP3   OH256263   5.513   1.390  13.759 -0.0625  0.3713  0.1026
11591TIP3    H156264   5.445   1.420  13.698 -0.0649 -2.5159 -1.4097
11591TIP3    H256265   5.464   1.355  13.834 -0.1720  0.7142  0.1907
11592TIP3   OH256266   5.554   0.771  17.068  0.1859  0.0044  0.1322
11592TIP3    H156267   5.491   0.742  17.134 -0.2821  1.0818  0.1845
11592TIP3    H256268   5.531   0.863  17.052  2.1674  0.6333  0.6639
11593TIP3   OH256269   3.004   5.243  16.379  0.1091  0.0665 -0.3353
11593TIP3    H156270   3.092   5.274  16.400  0.7317 -1.9905  0.1227
11593TIP3    H256271   2.956   5.250  16.462 -0.7487  2.9330 -0.9832
11594TIP3   OH256272   3.828   4.214  13.342  0.0002  0.0099 -0.1834
11594TIP3    H156273   3.909   4.209  13.392  0.3770  2.5971 -0.4633
11594TIP3    H256274   3.788   4.297  13.368 -1.2515  0.0196 -1.9763
11595TIP3   OH256275   3.638   2.073  10.725  0.2375 -0.2127  0.0583
11595TIP3    H156276   3.676   1.989  10.701 -0.5754 -0.8476  0.9645
11595TIP3    H256277   3.547   2.068  10.694 -0.1073 -0.0839  1.0415
11596TIP3   OH256278   2.119   0.992  14.915 -0.4353 -0.2415 -0.4641
11596TIP3    H156279   2.116   1.079  14.954  0.9803 -0.1331 -0.5592
11596TIP3    H256280   2.038   0.985  14.865  0.2309  1.7369 -1.9049
11597TIP3   OH256281   1.371   2.529  15.647  0.4258 -0.6335 -0.4625
11597TIP3    H156282   1.405   2.499  15.731 -0.9161 -2.1243 -0.4150
11597TIP3    H256283   1.316   2.456  15.616 -1.3166  0.9867 -1.3178
11598TIP3   OH256284   3.447   2.661   2.999  0.2770 -1.1789  0.4791
11598TIP3    H156285   3.511   2.732   2.997 -1.8848  0.8512 -2.1351
11598TIP3    H256286   3.362   2.705   2.990 -1.2685 -3.9792  0.6402
11599TIP3   OH256287   6.105   1.536  14.791  0.0767 -0.4670 -0.0321
11599TIP3    H156288   6.180   1.530  14.850  0.7536  0.7454 -0.7622
11599TIP3    H256289   6.052   1.459  14.812  2.8799 -2.8754 -1.3690
11600TIP3   OH256290   4.927   5.418  12.835 -0.2843  0.2183 -0.5132
11600TIP3    H156291   4.862   5.458  12.778 -0.0048 -0.0054 -0.9871
11600TIP3    H256292   4.886   5.337  12.866  0.8272 -1.3664 -3.0406
11601TIP3   OH256293   1.829   0.949  16.201 -0.0606 -0.8936  1.0452
11601TIP3    H156294   1.884   1.003  16.259 -0.9221 -0.2880  1.3083
11601TIP3    H256295   1.884   0.932  16.125  0.4811 -0.2642  1.2907
11602TIP3   OH256296   3.844   6.332  15.146 -0.0429 -0.5274  0.4936
11602TIP3    H156297   3.881   6.297  15.227 -0.6985 -0.2666  0.9032
11602TIP3    H256298   3.750   6.316  15.153 -0.1705  0.0100  0.0379
11603TIP3   OH256299   6.716   4.884   4.996  0.4923  0.6245 -0.8280
11603TIP3    H156300   6.688   4.918   5.080  3.8566 -2.4126  1.6712
11603TIP3    H256301   6.660   4.809   4.980  1.4300 -0.2655 -0.0411
11604TIP3   OH256302   2.228   4.743  16.165  0.2874  0.2221  0.3181
11604TIP3    H156303   2.244   4.830  16.127  0.5321 -0.2143 -0.6124
11604TIP3    H256304   2.173   4.698  16.100  0.5780 -0.4922  0.5550
11605TIP3   OH256305   4.790   6.406   4.258 -0.4372  0.3373 -0.1237
11605TIP3    H156306   4.707   6.453   4.270 -0.9341 -1.2377  2.8233
11605TIP3    H256307   4.838   6.420   4.339  1.1273 -0.9165 -0.8062
11606TIP3   OH256308   5.034   1.124   0.776 -0.0606  0.0426  0.1548
11606TIP3    H156309   4.964   1.137   0.712  1.0263 -0.8108 -1.2302
11606TIP3    H256310   5.115   1.144   0.728  0.7144  0.0648  1.4512
11607TIP3   OH256311   3.622   6.609  11.960 -0.9200  0.4967  0.0646
11607TIP3    H156312   3.604   6.694  12.000 -0.5402 -0.2274  1.8512
11607TIP3    H256313   3.542   6.558  11.976 -0.5988  0.0620  0.3030
11608TIP3   OH256314   1.541   5.656   5.237 -0.4192 -0.3685  0.2030
11608TIP3    H156315   1.551   5.567   5.271 -0.0101 -0.6105 -0.5626
11608TIP3    H256316   1.620   5.672   5.186  0.4495  1.1794  1.9833
11609TIP3   OH256317   1.234   0.056   1.160  0.1748 -0.2093 -0.0567
11609TIP3    H156318   1.278   0.134   1.127  2.2318 -1.4502 -0.3129
11609TIP3    H256319   1.169   0.089   1.222  1.6679  1.6400  0.5462
11610TIP3   OH256320   1.629   1.042   6.018 -0.2747 -0.1576 -0.0403
11610TIP3    H156321   1.716   1.071   6.047 -0.1071  0.5083 -1.1830
11610TIP3    H256322   1.572   1.116   6.036 -0.4419 -0.2745 -0.0923
11611TIP3   OH256323   6.314   6.224   0.272  0.6118  0.5014 -0.2515
11611TIP3    H156324   6.342   6.222   0.180 -0.7080  0.7988 -0.6592
11611TIP3    H256325   6.248   6.155   0.279  0.0968  1.0479  0.2853
11612TIP3   OH256326   5.926   3.275  15.695  0.8142 -0.2583  0.3170
11612TIP3    H156327   5.913   3.250  15.786  1.2555  0.0526  0.4669
11612TIP3    H256328   5.938   3.192  15.648  0.4748 -0.4231  0.5249
11613TIP3   OH256329   1.706   0.597   4.909 -0.1481 -0.4659 -0.0166
11613TIP3    H156330   1.722   0.604   4.815 -0.6160 -0.5973 -0.1058
11613TIP3    H256331   1.775   0.539   4.941  0.8677  0.7004 -0.0417
11614TIP3   OH256332   1.388   0.242  14.546  0.0364  0.3231  0.5881
11614TIP3    H156333   1.299   0.262  14.574  0.8501  2.1674  2.0032
11614TIP3    H256334   1.383   0.152  14.512 -1.8805 -0.4644  2.8102
11615TIP3   OH256335   3.030   5.239   5.678 -0.7128  0.3789 -0.2390
11615TIP3    H156336   2.944   5.202   5.657 -0.8622  0.5821  0.0080
11615TIP3    H256337   3.054   5.198   5.762  0.3395 -1.2017 -1.2821
11616TIP3   OH256338   4.962   0.856  11.336 -0.0555 -0.3627  0.0588
11616TIP3    H156339   4.867   0.864  11.328 -0.3641 -3.6088 -0.0027
11616TIP3    H256340   4.994   0.860  11.246  0.0825  2.3802  0.1708
11617TIP3   OH256341   4.615   2.696  13.678 -0.2683 -0.2629 -0.5531
11617TIP3    H156342   4.671   2.665  13.608  0.1927 -1.5326  0.3564
11617TIP3    H256343   4.608   2.622  13.738 -0.9195  0.6914  0.5806
11618TIP3   OH256344   1.072   3.129   3.230 -0.0793  0.4473 -0.1818
11618TIP3    H156345   0.988   3.131   3.183 -0.3724  0.4879  0.3372
11618TIP3    H256346   1.136   3.156   3.165 -0.6593  1.8169 -0.2029
11619TIP3   OH256347   0.724   4.554   3.106  0.3479 -0.0965  0.0999
11619TIP3    H156348   0.678   4.533   3.024  1.0678 -1.9813  0.1526
11619TIP3    H256349   0.705   4.481   3.163  1.8174  0.0558  0.7987
11620TIP3   OH256350   3.579   6.635   2.990 -0.0929  0.8510  0.2797
11620TIP3    H156351   3.555   6.542   2.995 -1.8073  1.3031  0.8937
11620TIP3    H256352   3.561   6.660   2.899  0.4537  0.5608  0.0920
11621TIP3   OH256353   2.016   2.898  16.132 -0.1579  0.1098  0.1254
11621TIP3    H156354   1.986   2.968  16.074  0.0775  0.8402  0.8871
11621TIP3    H256355   1.962   2.907  16.211 -2.0798 -2.3009 -0.8301
11622TIP3   OH256356   2.420   2.934  11.525 -0.5515 -0.5809 -0.2303
11622TIP3    H156357   2.512   2.908  11.527 -0.2363  0.5535  0.6324
11622TIP3    H256358   2.422   3.026  11.498 -1.4656 -0.6732 -0.6280
11623TIP3   OH256359   5.199   6.395  12.139 -0.5287  0.3251  0.5451
11623TIP3    H156360   5.252   6.315  12.140  1.2566  1.4753  0.1556
11623TIP3    H256361   5.142   6.387  12.215  0.3226 -0.8650  1.0809
11624TIP3   OH256362   2.426   3.303  13.982  0.3133  0.1363 -0.2658
11624TIP3    H156363   2.331   3.288  13.978  0.4031 -0.0554 -1.7730
11624TIP3    H256364   2.434   3.383  14.034 -0.6451 -0.1159  0.2946
11625TIP3   OH256365   3.952   3.231   3.189 -0.1080  0.3061 -0.2757
11625TIP3    H156366   4.036   3.211   3.229  2.2199  1.2257 -4.4648
11625TIP3    H256367   3.946   3.326   3.190 -1.2324  0.2476  0.1914
11626TIP3   OH256368   1.854   4.887  16.867  0.2509  0.5762 -0.6817
11626TIP3    H156369   1.765   4.897  16.833 -0.0100 -1.9520 -0.8327
11626TIP3    H256370   1.849   4.915  16.958 -1.3476 -1.9741  0.0826
11627TIP3   OH256371   5.537   3.829  10.856 -0.6711  0.2493 -0.5259
11627TIP3    H156372   5.573   3.873  10.778  1.8138 -0.7887  0.0037
11627TIP3    H256373   5.476   3.764  10.821 -1.3410  1.3763 -1.4863
11628TIP3   OH256374   4.313   2.079   5.137 -0.5460  0.4426 -0.3740
11628TIP3    H156375   4.371   2.143   5.096 -0.2969  0.2895 -0.2598
11628TIP3    H256376   4.329   2.089   5.231 -0.5300  0.2319 -0.3560
11629TIP3   OH256377   4.525   3.109  14.799 -0.3619  0.5007 -0.1878
11629TIP3    H156378   4.522   3.169  14.725  0.5591  4.4831  2.8366
11629TIP3    H256379   4.439   3.119  14.842 -0.2889 -0.5546  0.2289
11630TIP3   OH256380   5.952   0.687   6.197 -0.0857  0.0974  0.7878
11630TIP3    H156381   6.002   0.609   6.222 -0.2926  0.3785  2.1110
11630TIP3    H256382   6.007   0.760   6.226 -0.4627  0.4259  0.6704
11631TIP3   OH256383   0.955   5.482  11.239 -0.5741 -0.7310 -0.3505
11631TIP3    H156384   1.049   5.464  11.245 -0.0692  1.6612 -0.6422
11631TIP3    H256385   0.922   5.463  11.326  0.9491  2.4139  0.9815
11632TIP3   OH256386   4.235   5.056  15.545  0.5334 -0.1186  0.0444
11632TIP3    H156387   4.199   5.126  15.491 -1.4800  0.0904  1.6201
11632TIP3    H256388   4.249   5.096  15.631 -1.7801 -1.8990  1.3195
11633TIP3   OH256389   3.731   3.088   3.135  0.6244  0.1372 -0.2449
11633TIP3    H156390   3.705   3.040   3.213  0.8205 -1.3483 -1.0659
11633TIP3    H256391   3.796   3.151   3.165 -0.9435  1.1158  1.1481
11634TIP3   OH256392   1.438   0.109   6.130  0.6607  0.0616  0.0801
11634TIP3    H156393   1.493   0.107   6.208  1.6986 -1.1897 -0.6623
11634TIP3    H256394   1.406   0.199   6.126  3.2115  1.0157  0.1526
11635TIP3   OH256395   2.039   2.212   2.644 -0.0896 -0.8050 -0.5596
11635TIP3    H156396   2.000   2.190   2.559 -1.9781 -0.7677  0.2749
11635TIP3    H256397   2.006   2.145   2.704 -0.6453  0.4878  0.6202
11636TIP3   OH256398   2.334   4.735   6.093  0.1895  0.0910  0.5226
11636TIP3    H156399   2.380   4.748   6.011 -0.2878  0.7617  0.3556
11636TIP3    H256400   2.394   4.767   6.160 -0.0488  1.0155  0.3018
11637TIP3   OH256401   5.661   5.677  15.612  0.3293  0.1690  0.0379
11637TIP3    H156402   5.574   5.649  15.640  0.3880 -0.4924 -0.4228
11637TIP3    H256403   5.714   5.597  15.617  0.9906  0.6461  0.6444
11638TIP3   OH256404   0.981   4.498  16.912 -0.7463 -0.4549  0.3044
11638TIP3    H156405   0.910   4.503  16.848 -0.1273 -0.6739 -0.4177
11638TIP3    H256406   1.047   4.443  16.870  1.1073  2.1200 -0.2944
11639TIP3   OH256407   0.496   6.073   3.500 -0.3475  0.1153  0.5021
11639TIP3    H156408   0.503   6.115   3.586 -0.4564  0.8311  0.1592
11639TIP3    H256409   0.407   6.092   3.471  0.4367  1.9505 -0.8337
11640TIP3   OH256410   6.037   5.101   0.451 -0.4969 -0.1619 -0.0461
11640TIP3    H156411   6.058   5.009   0.468  0.2109 -0.1577 -0.8564
11640TIP3    H256412   6.120   5.140   0.423 -1.2256  0.2370 -1.7135
11641TIP3   OH256413   3.224   5.894   5.216  1.2440  0.2733  0.0626
11641TIP3    H156414   3.266   5.938   5.143  1.3691 -0.5392 -0.3577
11641TIP3    H256415   3.199   5.965   5.276  0.2429  1.0308 -1.2261
11642TIP3   OH256416   5.113   3.321  16.355 -0.2760 -0.2859 -0.5796
11642TIP3    H156417   5.126   3.279  16.440 -0.7569 -0.8600 -0.7878
11642TIP3    H256418   5.196   3.365  16.338 -0.6679  1.0360  0.8445
11643TIP3   OH256419   2.485   2.623  14.540  0.2525 -0.1639  0.2330
11643TIP3    H156420   2.513   2.687  14.475 -0.3546 -0.3828 -0.2493
11643TIP3    H256421   2.428   2.671  14.600  1.1853  0.1455  0.8739
11644TIP3   OH256422   2.189   3.556   0.873  0.1119  0.0678 -0.0461
11644TIP3    H156423   2.109   3.540   0.822  1.0413  0.5236 -1.6913
11644TIP3    H256424   2.230   3.470   0.880 -0.3772 -0.1244  0.5896
11645TIP3   OH256425   6.485   2.769   3.721  0.2748 -0.1023  0.5065
11645TIP3    H156426   6.426   2.743   3.792  1.0202 -1.2306  0.7299
11645TIP3    H256427   6.565   2.797   3.765  0.6283 -0.5078  0.1352
11646TIP3   OH256428   4.264   3.355   3.612  0.2113  0.7857 -0.3741
11646TIP3    H156429   4.213   3.419   3.561 -0.9222 -0.2926 -0.6231
11646TIP3    H256430   4.296   3.405   3.687 -1.0063  1.5629 -0.3407
11647TIP3   OH256431   2.729   3.285   0.144  0.2807 -1.0486 -0.6486
11647TIP3    H156432   2.741   3.191   0.129 -3.9770 -2.0308  1.3235
11647TIP3    H256433   2.788   3.306   0.217  0.6220 -2.3681 -0.5379
11648TIP3   OH256434   1.184   4.728  14.976  0.0476  0.1862 -0.5120
11648TIP3    H156435   1.257   4.749  15.035  0.8116  0.6036 -1.5896
11648TIP3    H256436   1.212   4.648  14.931 -1.0957 -0.8681  0.6155
11649TIP3   OH256437   1.997   5.041  12.866 -0.1733 -0.2465  0.0605
11649TIP3    H156438   2.008   5.103  12.794 -0.3874 -0.6968 -0.3652
11649TIP3    H256439   1.973   4.958  12.823 -1.6620 -0.1761  0.7187
11650TIP3   OH256440   0.818   5.601  14.640 -0.2312  0.7003 -0.2883
11650TIP3    H156441   0.856   5.679  14.681 -0.5201  1.1885 -0.9583
11650TIP3    H256442   0.890   5.538  14.639 -0.7332 -0.0100  2.7498
11651TIP3   OH256443   5.819   4.363   4.657  0.1227  0.0865 -0.6449
11651TIP3    H156444   5.908   4.394   4.674 -0.3296  1.7228 -1.1972
11651TIP3    H256445   5.766   4.407   4.723 -0.6191  0.9649 -1.8251
11652TIP3   OH256446   4.829   2.891  15.178  0.5468 -0.3508  0.1507
11652TIP3    H156447   4.784   2.819  15.136 -3.2273  0.4170  2.6520
11652TIP3    H256448   4.860   2.946  15.105 -1.0084 -1.8478 -1.6897
11653TIP3   OH256449   5.196   6.163   5.630 -0.3652 -0.1465 -0.0734
11653TIP3    H156450   5.282   6.204   5.632  0.1663 -1.2689  0.1202
11653TIP3    H256451   5.137   6.229   5.667  0.4637  0.5019  0.0858
11654TIP3   OH256452   4.247   1.450   6.322 -0.1610  0.5307 -0.2132
11654TIP3    H156453   4.177   1.396   6.286  0.6247 -2.4033  2.4856
11654TIP3    H256454   4.202   1.513   6.379 -0.7779  0.3412 -0.4899
11655TIP3   OH256455   0.567   2.459   4.141  0.2465  0.1968 -0.7852
11655TIP3    H156456   0.592   2.531   4.083  0.1284  0.3090 -0.6973
11655TIP3    H256457   0.549   2.501   4.225 -0.4514  0.1454 -0.9075
11656TIP3   OH256458   5.180   3.295   2.789 -0.2243  0.0527 -0.0387
11656TIP3    H156459   5.182   3.207   2.825 -0.6857  0.2013  0.3621
11656TIP3    H256460   5.271   3.318   2.774 -0.0982 -0.4375 -0.0131
11657TIP3   OH256461   3.886   2.916   2.812 -0.0402  0.4458 -0.3204
11657TIP3    H156462   3.944   2.886   2.742  0.2656 -0.7791  0.4363
11657TIP3    H256463   3.945   2.949   2.880 -0.2756  0.3693 -0.0757
11658TIP3   OH256464   2.297   6.247  16.849 -0.2542 -0.6673  0.3764
11658TIP3    H156465   2.202   6.243  16.845 -0.2703  0.8400 -1.7369
11658TIP3    H256466   2.325   6.236  16.758  1.6435 -1.9239  1.0717
11659TIP3   OH256467   4.895   4.538  16.918  0.2574  0.4147 -0.0246
11659TIP3    H156468   4.913   4.593  16.994 -1.6657  0.4588  0.4315
11659TIP3    H256469   4.937   4.454  16.939  0.7322  0.7950  0.5654
11660TIP3   OH256470   0.607   0.358   4.031  0.1174 -0.1255 -1.0345
11660TIP3    H156471   0.582   0.267   4.051  0.9819 -0.3342 -0.8628
11660TIP3    H256472   0.702   0.359   4.044 -0.0273  1.0752  0.0160
11661TIP3   OH256473   5.431   4.660   2.650  0.0132 -0.0113 -0.0413
11661TIP3    H156474   5.347   4.618   2.669 -1.4345  2.9769  0.5075
11661TIP3    H256475   5.407   4.746   2.617  2.8518  0.0985 -1.9806
11662TIP3   OH256476   2.834   4.179   3.392  0.0213  0.0760  0.0829
11662TIP3    H156477   2.798   4.139   3.312  1.2054  0.2109 -0.5269
11662TIP3    H256478   2.799   4.268   3.391 -1.0359 -0.3197  0.4218
11663TIP3   OH256479   3.806   2.514   2.821 -0.3762 -0.8018  0.2506
11663TIP3    H156480   3.745   2.578   2.785 -0.6129 -0.0730  1.9187
11663TIP3    H256481   3.887   2.528   2.772 -0.4778  0.6462  0.4901
11664TIP3   OH256482   1.969   0.093  11.212 -0.2947  0.0751 -0.0374
11664TIP3    H156483   2.007   0.180  11.202  0.7657 -0.4140 -0.3379
11664TIP3    H256484   1.980   0.072  11.304 -1.1938  0.5510  0.1789
11665TIP3   OH256485   3.080   5.506   6.897 -0.0574 -0.1597  0.1619
11665TIP3    H156486   3.163   5.538   6.861 -0.6529  1.8399  0.4977
11665TIP3    H256487   3.018   5.576   6.880 -1.0495 -0.4766  2.3627
11666TIP3   OH256488   3.667   3.521   3.332 -0.1232 -0.2794  0.5144
11666TIP3    H156489   3.704   3.483   3.411 -0.5837  0.3570  1.0502
11666TIP3    H256490   3.713   3.604   3.321  0.3669 -0.6454 -0.2307
11667TIP3   OH256491   0.119   5.234  12.553 -0.1479  0.4812 -0.0896
11667TIP3    H156492   0.035   5.275  12.572  1.1430  2.6173  1.1429
11667TIP3    H256493   0.154   5.284  12.479  1.2551  1.3859  1.1628
11668TIP3   OH256494   2.359   3.887   3.703 -0.4303  0.7016  0.4361
11668TIP3    H156495   2.454   3.882   3.697 -0.3980  0.5646  1.0542
11668TIP3    H256496   2.336   3.969   3.658 -0.0536  0.5579 -0.0199
11669TIP3   OH256497   3.676   1.174   5.861  0.5138 -0.0953  0.1094
11669TIP3    H156498   3.597   1.204   5.906 -0.5052 -1.7662 -0.4937
11669TIP3    H256499   3.723   1.122   5.926  0.1660 -0.6377 -0.0614
11670TIP3   OH256500   2.034   3.448  14.903 -0.1122 -0.6581  0.5689
11670TIP3    H156501   2.034   3.537  14.938  1.0261 -0.4242 -0.0015
11670TIP3    H256502   1.954   3.442  14.850 -0.3021 -0.0540  0.7910
11671TIP3   OH256503   2.798   2.237   5.011 -0.0787  0.5604  0.3619
11671TIP3    H156504   2.720   2.183   5.021 -0.8185  1.0643 -2.2485
11671TIP3    H256505   2.788   2.306   5.076 -1.8296  0.6389  0.0208
11672TIP3   OH256506   2.097   0.914  12.806 -0.0143  0.1389  0.1618
11672TIP3    H156507   2.024   0.969  12.834  1.6047  1.3160  2.2457
11672TIP3    H256508   2.071   0.826  12.833 -0.9330  0.4402  0.3046
11673TIP3   OH256509   2.812   4.118   1.637  0.1091 -0.0265  0.0693
11673TIP3    H156510   2.738   4.094   1.582  0.8776 -1.0444 -0.5286
11673TIP3    H256511   2.826   4.211   1.618 -0.3289 -0.0930 -0.6182
11674TIP3   OH256512   2.369   2.153   4.090  0.1607 -0.8643 -0.3674
11674TIP3    H156513   2.409   2.068   4.108 -1.0052 -0.8467  2.5363
11674TIP3    H256514   2.368   2.198   4.174 -0.7580  1.3870 -1.5279
11675TIP3   OH256515   5.140   3.851  11.194  0.3996 -0.1687  0.0458
11675TIP3    H156516   5.110   3.924  11.247  1.7284  0.0479  0.5272
11675TIP3    H256517   5.224   3.881  11.158  0.9773 -1.4653  0.2853
11676TIP3   OH256518   4.741   3.975   0.829  0.1284 -0.1953  0.5597
11676TIP3    H156519   4.681   3.972   0.755  0.9770  1.9519 -0.2459
11676TIP3    H256520   4.695   3.929   0.899 -0.8707 -1.8667 -1.1333
11677TIP3   OH256521   5.534   1.922   3.867  0.2357 -0.6059 -0.0044
11677TIP3    H156522   5.469   1.985   3.899 -1.4862 -3.0678  1.4784
11677TIP3    H256523   5.608   1.932   3.928 -0.4724 -0.7873  0.8977
11678TIP3   OH256524   5.874   3.558   5.511  0.2820 -0.2950 -0.4585
11678TIP3    H156525   5.834   3.518   5.588 -1.6374 -0.3952 -1.4824
11678TIP3    H256526   5.827   3.520   5.437  2.7141 -0.8879 -1.7429
11679TIP3   OH256527   1.061   1.764  16.898  0.4901  0.9013  0.6289
11679TIP3    H156528   1.113   1.844  16.886  1.2206  0.3814  0.3157
11679TIP3    H256529   1.099   1.701  16.837 -0.7645  0.6276  0.1039
11680TIP3   OH256530   3.975   5.998  11.879  0.0990 -0.6407  0.3033
11680TIP3    H156531   3.912   6.053  11.926  0.1672  0.6416 -1.0622
11680TIP3    H256532   3.924   5.957  11.810  0.5946 -0.2242 -0.3106
11681TIP3   OH256533   4.313   2.793   1.130 -0.8453 -0.0128  0.2111
11681TIP3    H156534   4.382   2.845   1.088 -1.2253 -0.7264 -1.3132
11681TIP3    H256535   4.297   2.839   1.212  1.2352  0.3401  0.4692
11682TIP3   OH256536   3.514   1.411   4.395 -0.0544 -0.0918 -0.0498
11682TIP3    H156537   3.506   1.323   4.358  1.5640 -0.8229  1.2663
11682TIP3    H256538   3.429   1.452   4.378 -0.4313 -1.4877 -1.7240
11683TIP3   OH256539   0.332   5.360   3.062 -0.3461  0.0785  0.8025
11683TIP3    H156540   0.245   5.331   3.087 -0.7563  1.3092  0.8126
11683TIP3    H256541   0.318   5.428   2.997  0.6446 -0.7118 -0.2637
11684TIP3   OH256542   1.988   2.975  12.689 -0.3121 -0.3629 -0.4072
11684TIP3    H156543   1.982   2.921  12.610 -0.2318  0.0456 -0.6921
11684TIP3    H256544   1.900   3.013  12.699  0.2169  1.1857 -1.4363
11685TIP3   OH256545   2.967   4.247  13.430 -0.2472  0.1316 -0.0297
11685TIP3    H156546   3.003   4.334  13.450  0.8171 -0.0639 -1.0305
11685TIP3    H256547   2.954   4.206  13.515  0.6531  0.7151  0.3908
11686TIP3   OH256548   6.761   6.066  16.913  0.3384  0.2288 -0.4430
11686TIP3    H156549   6.672   6.033  16.926  0.8767  0.0442  3.3289
11686TIP3    H256550   6.789   6.026  16.831 -3.3338  0.9849 -2.1675
11687TIP3   OH256551   5.940   3.454  13.854 -0.0160 -0.2096 -0.0560
11687TIP3    H156552   5.948   3.486  13.764  1.1346 -0.6314 -0.1143
11687TIP3    H256553   5.974   3.525  13.908 -1.8002  0.5164  0.1363
11688TIP3   OH256554   2.711   2.977   2.741 -0.7738  0.0568  0.0934
11688TIP3    H156555   2.644   2.976   2.672 -0.3079 -0.4614 -0.3632
11688TIP3    H256556   2.731   2.884   2.756  0.3947  0.2304 -0.3332
11689TIP3   OH256557   2.783   1.270  14.330  0.3420  0.0650  0.5589
11689TIP3    H156558   2.692   1.287  14.308  0.7811  1.4146 -0.2426
11689TIP3    H256559   2.833   1.308  14.258  1.5331 -0.8087  0.9065
11690TIP3   OH256560   3.801   3.015   1.715  0.2238  0.0666  0.1385
11690TIP3    H156561   3.776   3.041   1.804  1.0665 -1.3786  0.8122
11690TIP3    H256562   3.894   3.037   1.710  0.0261  0.7283 -0.6056
11691TIP3   OH256563   3.814   2.767   0.828  0.3846 -0.5852 -0.3035
11691TIP3    H156564   3.878   2.696   0.832 -0.0652 -0.9289  1.3900
11691TIP3    H256565   3.735   2.725   0.794  0.3189 -0.7524  0.0477
11692TIP3   OH256566   5.156   4.056  10.949  0.2808  0.3247 -0.4227
11692TIP3    H156567   5.152   3.980  10.892  0.1841 -1.2845  1.6655
11692TIP3    H256568   5.066   4.089  10.952  0.2564  0.3127 -1.0534
11693TIP3   OH256569   6.622   3.856   1.316  0.2479  0.2668  0.3146
11693TIP3    H156570   6.659   3.782   1.365 -0.7823 -0.5154 -0.0608
11693TIP3    H256571   6.687   3.876   1.249 -0.5618 -1.9834 -1.2173
11694TIP3   OH256572   5.733   2.918  13.908  0.1627  0.1198 -0.2899
11694TIP3    H156573   5.810   2.916  13.964  3.0587  1.4737 -3.9962
11694TIP3    H256574   5.681   2.991  13.941  1.5588  0.5746  0.9453
11695TIP3   OH256575   4.926   5.641  10.768 -0.0332 -0.6913  0.5402
11695TIP3    H156576   4.862   5.703  10.731  0.4281 -0.6132 -0.1366
11695TIP3    H256577   4.872   5.575  10.812 -0.6725 -1.4082 -1.2299
11696TIP3   OH256578   4.443   0.327  14.465  0.1795  0.3094 -0.2749
11696TIP3    H156579   4.457   0.342  14.558  0.7930 -0.1933 -0.2761
11696TIP3    H256580   4.360   0.280  14.460 -0.1649  0.8916 -0.0323
11697TIP3   OH256581   1.681   3.811   6.668  0.0454 -0.1620 -0.1230
11697TIP3    H156582   1.654   3.899   6.692 -2.2810 -1.1524  1.0961
11697TIP3    H256583   1.771   3.804   6.701  0.2408  1.7193 -0.1959
11698TIP3   OH256584   5.142   4.517  16.249 -0.1468 -0.1844 -0.2944
11698TIP3    H156585   5.077   4.468  16.199  0.4489 -0.2757 -0.9909
11698TIP3    H256586   5.225   4.475  16.228  0.2294  0.4081 -0.0075
11699TIP3   OH256587   1.908   4.105   1.810  0.8076 -0.2252  0.1426
11699TIP3    H156588   1.915   4.010   1.813  3.1310 -0.1878 -2.2281
11699TIP3    H256589   1.862   4.123   1.729  1.1135  0.6891  0.1644
11700TIP3   OH256590   2.131   2.590   3.370  0.2173  0.3388  0.0060
11700TIP3    H156591   2.175   2.560   3.449  1.7438 -0.2709 -1.0472
11700TIP3    H256592   2.197   2.643   3.324 -0.1813 -0.4481 -1.5107
11701TIP3   OH256593   2.471   0.688  11.496 -0.5267 -0.6941 -0.1509
11701TIP3    H156594   2.475   0.594  11.511 -0.1134 -0.4720  1.1392
11701TIP3    H256595   2.563   0.717  11.498 -0.7106 -0.1359  0.2918
11702TIP3   OH256596   4.768   1.851  13.179 -0.3327 -0.4008  0.2932
11702TIP3    H156597   4.701   1.847  13.110  1.0355  1.3867 -1.1861
11702TIP3    H256598   4.835   1.790  13.151  0.3513  0.5276 -0.1192
11703TIP3   OH256599   5.743   3.287  15.340  0.0257  0.3039  0.7011
11703TIP3    H156600   5.696   3.205  15.355 -1.8780  1.2114 -0.2652
11703TIP3    H256601   5.704   3.349  15.402 -0.4051  1.1873 -0.4445
11704TIP3   OH256602   5.983   0.965   5.299  0.0371 -0.1409  0.3692
11704TIP3    H156603   6.023   0.970   5.385 -1.8964  3.4572  1.1637
11704TIP3    H256604   5.901   0.916   5.313  0.0807 -0.2003  0.4143
11705TIP3   OH256605   0.224   1.704   1.887  0.4230 -0.1386 -0.2234
11705TIP3    H156606   0.274   1.785   1.878  0.1356  0.1341  0.6339
11705TIP3    H256607   0.230   1.682   1.980 -2.6335  0.9343  0.2788
11706TIP3   OH256608   1.577   3.528  12.671  0.0389  0.6249 -0.5757
11706TIP3    H156609   1.518   3.602  12.682 -0.1299  0.2674  1.0756
11706TIP3    H256610   1.654   3.551  12.724 -0.0707 -0.4226  0.0489
11707TIP3   OH256611   5.726   4.878  11.048  0.1399  0.2964  0.1968
11707TIP3    H156612   5.741   4.825  10.969 -2.1366 -0.9001  0.5162
11707TIP3    H256613   5.736   4.816  11.120 -0.0264  0.8732  0.7191
11708TIP3   OH256614   1.719   4.429  11.317  0.4009 -0.0716 -0.0381
11708TIP3    H156615   1.777   4.365  11.275  0.9281  0.3247  0.0744
11708TIP3    H256616   1.633   4.387  11.318  0.7374 -0.7641  0.0153
11709TIP3   OH256617   3.016   4.275   0.100 -0.1993  0.7029  0.3248
11709TIP3    H156618   3.044   4.353   0.148 -0.6464 -0.9098  3.3428
11709TIP3    H256619   2.929   4.255   0.136 -0.4502 -0.7121 -1.0082
11710TIP3   OH256620   0.391   0.544   2.652 -0.0757 -0.2823 -0.2173
11710TIP3    H156621   0.406   0.502   2.736  0.6970 -1.2235 -0.8141
11710TIP3    H256622   0.429   0.631   2.661  0.9558 -0.7504  0.0714
11711TIP3   OH256623   2.004   4.985   0.875 -0.5972 -0.3194 -0.0066
11711TIP3    H156624   1.934   4.958   0.934 -0.6168  3.4549  1.8632
11711TIP3    H256625   2.074   5.014   0.933  0.7403  0.2715 -1.8696
11712TIP3   OH256626   0.217   2.714   4.266 -0.7392  0.2408  0.6841
11712TIP3    H156627   0.124   2.700   4.250 -0.6339 -0.4331  0.6478
11712TIP3    H256628   0.240   2.788   4.209 -1.5388  1.2597  1.6755
11713TIP3   OH256629   5.156   5.007   3.271 -0.0375 -0.0945  0.4228
11713TIP3    H156630   5.212   5.084   3.263 -1.0714  0.7959  1.6180
11713TIP3    H256631   5.208   4.945   3.323  0.7732 -0.2058 -0.4963
11714TIP3   OH256632   4.694   4.892  14.056  0.6557 -0.0237 -0.2935
11714TIP3    H156633   4.659   4.829  14.120 -0.3059  0.8993  0.1003
11714TIP3    H256634   4.755   4.946  14.106  0.9096 -0.1536 -0.4618
11715TIP3   OH256635   4.327   2.819  15.959 -0.2397 -0.1010  0.0593
11715TIP3    H156636   4.333   2.803  15.865  1.4096 -0.1514  0.1665
11715TIP3    H256637   4.281   2.742  15.993  1.0141 -1.0891 -0.4381
11716TIP3   OH256638   0.359   2.295   4.287  0.0110 -0.3909  0.5132
11716TIP3    H156639   0.412   2.353   4.232  0.0653  0.3927  1.3794
11716TIP3    H256640   0.339   2.347   4.365 -0.1943 -1.4360  1.1713
11717TIP3   OH256641   3.074   0.383  16.573  0.3456 -0.7020  0.3549
11717TIP3    H156642   3.162   0.349  16.561  0.3908 -0.9144  1.2443
11717TIP3    H256643   3.017   0.307  16.561  0.4336 -1.0688  2.1247
11718TIP3   OH256644   5.584   4.933  16.080 -0.0596 -0.2464  0.3092
11718TIP3    H156645   5.589   4.855  16.025 -0.1722 -0.2716  0.3358
11718TIP3    H256646   5.490   4.948  16.093 -0.0961  0.8317 -1.0337
11719TIP3   OH256647   6.202   0.413   5.241  0.0835 -0.2142 -0.2616
11719TIP3    H156648   6.203   0.509   5.230  0.1835 -0.1815  0.0311
11719TIP3    H256649   6.165   0.400   5.328 -1.9094 -0.5190 -1.1270
11720TIP3   OH256650   6.336   3.790  11.529  0.3509  0.0771 -0.5021
11720TIP3    H156651   6.350   3.879  11.498  0.3416  0.2640  0.0322
11720TIP3    H256652   6.422   3.762  11.562  0.3392 -0.0869 -0.6088
11721TIP3   OH256653   2.786   6.321  12.409  0.6437  0.3396 -0.3690
11721TIP3    H156654   2.712   6.273  12.372 -0.8214  1.2420  1.3405
11721TIP3    H256655   2.858   6.258  12.408 -0.8770 -1.4365  0.5429
11722TIP3   OH256656   0.532   2.932  11.050 -0.3769 -0.4558  0.4776
11722TIP3    H156657   0.599   2.938  11.118 -0.2012 -0.3393  0.2992
11722TIP3    H256658   0.549   3.007  10.993 -1.8882  0.6941  1.5076
11723TIP3   OH256659   5.453   3.412  14.863 -0.8956 -0.0456 -0.1590
11723TIP3    H156660   5.478   3.390  14.953  1.3662 -0.4693 -0.8825
11723TIP3    H256661   5.502   3.352  14.808 -1.8698  0.5599 -1.7269
11724TIP3   OH256662   0.411   5.010  12.469  0.3210 -0.0689  0.3026
11724TIP3    H156663   0.425   5.103  12.454  1.4294 -0.2032  0.4930
11724TIP3    H256664   0.318   4.996  12.448  0.0873  1.1182  0.5252
11725TIP3   OH256665   6.679   3.958   2.321 -0.1516  0.0665  0.8836
11725TIP3    H156666   6.684   3.872   2.279 -0.6678  0.9955 -1.1122
11725TIP3    H256667   6.750   4.008   2.281  0.6574  0.3541  2.6148
11726TIP3   OH256668   0.700   3.845   2.163 -0.2746  0.2052  0.4593
11726TIP3    H156669   0.692   3.939   2.183  1.6690  0.7837 -1.2677
11726TIP3    H256670   0.652   3.834   2.081  1.4461  0.1819 -0.5708
11727TIP3   OH256671   4.884   5.693   4.028  0.1483  0.1486 -0.4811
11727TIP3    H156672   4.847   5.742   4.102  0.8020 -0.6404  0.3837
11727TIP3    H256673   4.972   5.728   4.017  0.3069 -0.2228 -0.4200
11728TIP3   OH256674   2.505   1.952  11.561  0.0895 -0.1203 -0.0148
11728TIP3    H156675   2.553   1.913  11.488 -0.3433 -1.0347  0.1777
11728TIP3    H256676   2.539   1.907  11.639 -0.2690  0.0265  0.2289
11729TIP3   OH256677   5.665   3.379   4.825  0.4226  0.2484 -0.6455
11729TIP3    H156678   5.667   3.386   4.730  0.7903 -1.9972 -0.8446
11729TIP3    H256679   5.756   3.391   4.852  0.3382  0.7603 -0.5894
11730TIP3   OH256680   0.734   0.058  14.376  0.4452  0.3113 -0.4541
11730TIP3    H156681   0.669   0.126  14.393 -0.7527 -0.5960 -1.3045
11730TIP3    H256682   0.685  -0.024  14.385  2.0019 -0.4819  1.1973
11731TIP3   OH256683   0.107   0.219   4.681 -0.6304 -0.4476  0.5548
11731TIP3    H156684   0.140   0.133   4.706 -0.0838 -0.2208  0.6226
11731TIP3    H256685   0.094   0.265   4.764 -1.6650 -0.7379  0.5521
11732TIP3   OH256686   1.253   1.363  13.638  0.7304 -0.0711  0.3902
11732TIP3    H156687   1.289   1.452  13.631 -0.4145  0.4180  0.5270
11732TIP3    H256688   1.185   1.370  13.704 -0.3785 -0.7189 -0.6663
11733TIP3   OH256689   2.824   5.909  12.568  0.1173  0.9365  0.4295
11733TIP3    H156690   2.760   5.839  12.581  1.0826  0.0194  0.3062
11733TIP3    H256691   2.792   5.982  12.622 -1.3621  0.7137 -0.1312
11734TIP3   OH256692   1.086   4.098  14.848 -0.0574 -0.4785  1.1283
11734TIP3    H156693   1.111   4.055  14.766 -0.4453 -0.2759  0.9027
11734TIP3    H256694   0.996   4.126  14.834  0.4167  1.0340  1.0095
11735TIP3   OH256695   6.647   5.484  12.006 -0.0794 -0.1003 -0.6777
11735TIP3    H156696   6.564   5.528  11.988 -0.3424 -0.0852  0.5353
11735TIP3    H256697   6.714   5.552  11.993 -0.2582 -0.0990 -1.6053
11736TIP3   OH256698   6.402   5.950   1.408  0.3173 -0.5107 -0.3361
11736TIP3    H156699   6.307   5.960   1.407  0.1649 -1.6273  1.3051
11736TIP3    H256700   6.425   5.931   1.317 -0.7499  2.0190 -1.1887
11737TIP3   OH256701   1.549   1.091   4.234  0.2667 -0.0647  0.3895
11737TIP3    H156702   1.487   1.160   4.258 -1.7019 -1.7921  0.4311
11737TIP3    H256703   1.540   1.084   4.139  0.0340 -0.6563  0.4561
11738TIP3   OH256704   4.312   4.702   3.756 -0.0763  0.1281 -0.0573
11738TIP3    H156705   4.282   4.687   3.846  0.9967 -1.4491  0.0686
11738TIP3    H256706   4.241   4.750   3.714 -1.1098 -0.1843  1.2984
11739TIP3   OH256707   2.689   5.051  16.751  0.1752  0.3133 -0.2055
11739TIP3    H156708   2.768   4.997  16.761  0.3908  0.4818 -0.9260
11739TIP3    H256709   2.665   5.039  16.659 -2.0852 -1.7378  0.5815
11740TIP3   OH256710   0.463   0.491   1.502 -0.0072 -0.6460 -0.1560
11740TIP3    H156711   0.429   0.564   1.553  2.1939 -0.6132  1.3003
11740TIP3    H256712   0.388   0.432   1.492 -1.3028  0.9029  0.2796
11741TIP3   OH256713   0.658   5.555   0.225  0.4346 -0.2099  0.0458
11741TIP3    H156714   0.693   5.489   0.285  0.3762  0.0425  0.3556
11741TIP3    H256715   0.583   5.512   0.184  0.2536 -0.2515  0.4226
11742TIP3   OH256716   1.773   5.926   5.008 -0.5970  0.0219  0.3243
11742TIP3    H156717   1.849   5.937   4.952 -0.3357 -0.8563  0.4967
11742TIP3    H256718   1.743   6.015   5.026  0.8024  0.4020  0.8192
11743TIP3   OH256719   4.550   6.257   4.582  0.4573  0.1210 -0.1186
11743TIP3    H156720   4.611   6.305   4.637 -0.4719 -0.9301  1.8720
11743TIP3    H256721   4.464   6.295   4.601  0.1850  0.1039 -1.2426
11744TIP3   OH256722   2.124   4.211  11.618  0.2534 -0.0002  0.4289
11744TIP3    H156723   2.074   4.138  11.654 -0.6019  0.0818 -0.5657
11744TIP3    H256724   2.211   4.176  11.600 -0.3638 -0.9581 -0.7029
11745TIP3   OH256725   1.358   6.044   0.366 -0.1599  0.1661  0.1254
11745TIP3    H156726   1.423   6.109   0.338  1.0973 -0.9024  0.5545
11745TIP3    H256727   1.403   5.991   0.431 -0.7226 -2.0817 -1.2846
11746TIP3   OH256728   2.997   1.436  15.318 -0.5512 -0.2058  0.2048
11746TIP3    H156729   2.905   1.455  15.336 -0.2447 -1.2602  3.1042
11746TIP3    H256730   3.029   1.514  15.272 -2.4329  0.9100  0.7362
11747TIP3   OH256731   0.388   6.221  12.930  0.2990  0.1808  0.3526
11747TIP3    H156732   0.405   6.263  13.014  0.0811  0.8311  0.0694
11747TIP3    H256733   0.294   6.205  12.929  0.2842  0.2728  0.1862
11748TIP3   OH256734   2.417   0.035  11.114  0.1209 -0.1710 -0.2320
11748TIP3    H156735   2.454  -0.026  11.050  0.1943 -1.0647  0.6548
11748TIP3    H256736   2.440   0.122  11.080  0.0260 -0.6304 -1.4947
11749TIP3   OH256737   1.254   1.069  11.230 -0.5439 -0.2579  0.2879
11749TIP3    H156738   1.166   1.084  11.266  0.1609  1.6870  1.2625
11749TIP3    H256739   1.311   1.066  11.307  0.4876  0.3737 -0.4418
11750TIP3   OH256740   0.036   0.486  13.391 -0.0605 -0.2920  0.3608
11750TIP3    H156741   0.063   0.414  13.449  1.3402 -0.8110 -0.9002
11750TIP3    H256742  -0.059   0.489  13.399  0.2013  0.7652  4.0060
11751TIP3   OH256743   5.497   3.013   0.619  0.0830 -0.0016 -0.4790
11751TIP3    H156744   5.477   3.085   0.559 -0.8963  0.5220  0.4441
11751TIP3    H256745   5.580   3.038   0.660  0.2599  0.1053 -0.8991
11752TIP3   OH256746   2.378   2.627   1.023  0.0523 -0.2415 -0.3623
11752TIP3    H156747   2.336   2.686   0.961  2.3486  1.5962 -0.2366
11752TIP3    H256748   2.311   2.609   1.089 -0.6463  2.4003 -0.3063
11753TIP3   OH256749   3.966   1.596  14.137  0.4664  0.0439  0.0637
11753TIP3    H156750   3.967   1.538  14.061 -0.6146 -0.1293  0.1687
11753TIP3    H256751   4.045   1.649  14.128 -0.3934  1.0571 -2.0093
11754TIP3   OH256752   3.624   5.024   0.495  0.3027  0.5685  0.3291
11754TIP3    H156753   3.685   5.096   0.511  1.4459 -0.2435 -0.2857
11754TIP3    H256754   3.639   4.964   0.569 -0.2114  0.6743  0.5188
11755TIP3   OH256755   1.992   5.049   4.637 -0.2562  0.2771  0.2227
11755TIP3    H156756   1.949   5.027   4.555  1.2789  1.1475 -0.8444
11755TIP3    H256757   2.032   4.967   4.666  0.7620  0.3572 -0.8815
11756TIP3   OH256758   6.553   0.390   1.792 -0.0524  0.2034  0.7762
11756TIP3    H156759   6.494   0.465   1.785 -2.3255 -1.5658  0.2538
11756TIP3    H256760   6.523   0.344   1.871 -0.7840 -1.8788 -0.6969
11757TIP3   OH256761   0.871   0.544   1.505  0.1646 -0.4555 -0.6585
11757TIP3    H156762   0.835   0.616   1.558  2.2165 -0.0602  0.2697
11757TIP3    H256763   0.957   0.527   1.544  0.6465 -1.8935 -2.3031
11758TIP3   OH256764   5.083   1.510  14.482 -0.5776 -0.4634  0.0515
11758TIP3    H156765   5.002   1.557  14.504 -1.4878 -1.8695 -0.2574
11758TIP3    H256766   5.097   1.529  14.389 -0.6545 -0.3863  0.0561
11759TIP3   OH256767   4.836   0.700   3.428 -0.0763  0.3194  0.8881
11759TIP3    H156768   4.787   0.669   3.352 -0.6948 -1.7069  2.0754
11759TIP3    H256769   4.845   0.794   3.414 -1.2452  0.1610 -1.0798
11760TIP3   OH256770   5.340   6.340  11.056  0.2753 -0.1137 -0.2612
11760TIP3    H156771   5.271   6.347  11.122 -0.1375 -0.5251 -0.6474
11760TIP3    H256772   5.421   6.338  11.107  0.0122  0.4258  0.1926
11761TIP3   OH256773   0.949   0.999  16.534  0.5295 -0.5771  0.1765
11761TIP3    H156774   1.002   1.035  16.605  0.3434 -1.5120  0.7910
11761TIP3    H256775   0.992   0.917  16.511 -0.6789 -1.3743  0.7166
11762TIP3   OH256776   5.866   3.477  16.908  0.4963  0.2998 -0.1774
11762TIP3    H156777   5.834   3.514  16.990  0.4142 -1.9836  0.8717
11762TIP3    H256778   5.936   3.418  16.934  1.0078  0.1455 -1.8343
11763TIP3   OH256779   6.338   3.514   1.554  0.0228  0.3977  0.5612
11763TIP3    H156780   6.361   3.574   1.625  0.5749 -0.1599  0.8508
11763TIP3    H256781   6.421   3.489   1.515 -0.2973  1.0306 -0.5728
11764TIP3   OH256782   3.323   5.036  15.735  0.2540 -0.0517 -0.5093
11764TIP3    H156783   3.400   5.070  15.781 -0.5596  0.4377  0.5258
11764TIP3    H256784   3.327   4.942  15.749  1.2322 -0.1470 -1.3628
11765TIP3   OH256785   2.103   6.333  14.235  0.0353  0.2785 -0.5917
11765TIP3    H156786   2.132   6.346  14.325 -0.6648  1.0396 -0.4736
11765TIP3    H256787   2.089   6.239  14.227  0.5573  0.1530 -0.0495
11766TIP3   OH256788   1.819   2.499  14.340 -0.0136 -0.0864 -0.3508
11766TIP3    H156789   1.774   2.574  14.381 -0.2889 -0.1782 -0.4838
11766TIP3    H256790   1.865   2.458  14.413 -1.9334 -1.2880  0.2381
11767TIP3   OH256791   3.133   3.522   1.575 -0.3546  0.3535 -0.4589
11767TIP3    H156792   3.198   3.453   1.559 -1.9066 -1.3240  0.3526
11767TIP3    H256793   3.123   3.523   1.670  1.1563  3.1534 -0.2570
11768TIP3   OH256794   5.445   6.482  10.585 -0.9462  0.1402 -0.2246
11768TIP3    H156795   5.409   6.400  10.621  0.6024 -1.7859 -2.8403
11768TIP3    H256796   5.378   6.512  10.523 -0.2210 -0.7787 -1.4633
11769TIP3   OH256797   6.064   2.409   1.989  0.6692  0.4303 -0.4277
11769TIP3    H156798   6.028   2.341   1.932  0.6093 -0.2760  0.4391
11769TIP3    H256799   6.151   2.377   2.012  1.0455  1.1429 -0.8403
11770TIP3   OH256800   6.384   2.445  12.180 -0.0088  0.1447 -0.0528
11770TIP3    H156801   6.455   2.457  12.244 -0.9309  0.8590  0.8449
11770TIP3    H256802   6.429   2.440  12.095  1.2749 -1.2500  0.6724
11771TIP3   OH256803   5.893   3.308   1.476 -0.2564  0.4421 -0.0581
11771TIP3    H156804   5.835   3.315   1.552  1.5940 -0.5188  1.4640
11771TIP3    H256805   5.863   3.228   1.432  0.5411 -0.6432  1.3090
11772TIP3   OH256806   2.000   3.968  13.723  0.0683  0.2077 -0.0354
11772TIP3    H156807   2.026   4.002  13.637  0.3877 -1.9258 -0.8187
11772TIP3    H256808   2.083   3.945  13.765 -0.1939 -0.7842 -0.0453
11773TIP3   OH256809   0.906   2.652   5.458  0.4131  0.6417 -0.4377
11773TIP3    H156810   0.860   2.651   5.542 -1.1575  1.8823 -1.2481
11773TIP3    H256811   0.841   2.623   5.394  1.8464 -1.1669 -1.1326
11774TIP3   OH256812   2.534   3.860  13.471 -0.1374 -0.3000 -0.3673
11774TIP3    H156813   2.500   3.947  13.493  2.2694  0.5061  0.3172
11774TIP3    H256814   2.561   3.867  13.380  0.7823 -0.0705 -0.0834
11775TIP3   OH256815   2.626   3.133   0.867  0.0402 -0.1596 -0.1729
11775TIP3    H156816   2.640   3.213   0.918 -1.5597 -0.5555  0.9192
11775TIP3    H256817   2.650   3.157   0.778 -1.6431  1.9387 -0.0962
11776TIP3   OH256818   4.171   1.012   2.173  0.1491 -0.0782 -0.1348
11776TIP3    H156819   4.145   1.099   2.203  0.5393  0.4243 -1.2102
11776TIP3    H256820   4.167   1.018   2.077 -0.9423 -1.5964 -0.2007
11777TIP3   OH256821   4.401   3.327   1.237 -0.1475 -0.1356 -0.9151
11777TIP3    H156822   4.323   3.317   1.181 -0.6269  0.7655 -0.4282
11777TIP3    H256823   4.369   3.311   1.326  0.0993  0.8013 -0.6512
11778TIP3   OH256824   0.851   3.019   0.481 -0.6252  0.2669  0.0168
11778TIP3    H156825   0.870   3.101   0.436 -1.8356  0.5408  0.0058
11778TIP3    H256826   0.760   2.999   0.459  0.0518 -1.7952 -1.1249
11779TIP3   OH256827   3.360   1.997  14.368 -1.0060 -0.6120 -0.1654
11779TIP3    H156828   3.370   1.973  14.276 -1.2318  1.9187 -0.8828
11779TIP3    H256829   3.335   1.915  14.411  0.5291 -2.1630 -2.0853
11780TIP3   OH256830   4.073   2.618  15.388  0.3007 -0.4687  0.2282
11780TIP3    H156831   4.084   2.551  15.456  0.2249 -0.4172  0.2889
11780TIP3    H256832   4.029   2.573  15.317  1.1971 -0.7664 -0.1539
11781TIP3   OH256833   6.468   5.319  14.261  0.1466 -0.5156  0.0942
11781TIP3    H156834   6.542   5.373  14.290 -1.0780  0.2298  1.9148
11781TIP3    H256835   6.431   5.367  14.187 -0.5594  0.8853  1.3115
11782TIP3   OH256836   5.654   0.457   4.865 -0.7254  0.0434 -0.5798
11782TIP3    H156837   5.573   0.487   4.822 -1.4892 -0.8269  0.2472
11782TIP3    H256838   5.634   0.368   4.894 -0.0865  0.4981  1.2704
11783TIP3   OH256839   6.610   5.269  10.864  0.0073 -0.8049  0.0433
11783TIP3    H156840   6.704   5.255  10.876  0.2695  1.4546  0.9252
11783TIP3    H256841   6.600   5.282  10.769  0.7673 -0.0026  0.0600
11784TIP3   OH256842   1.289   6.632  15.494 -0.7135  0.3105  0.2828
11784TIP3    H156843   1.239   6.707  15.527  2.0981  2.1468  0.5588
11784TIP3    H256844   1.333   6.664  15.416  0.2200 -1.1579  0.1784
11785TIP3   OH256845   4.151   2.237  13.697 -0.0110  0.0134  0.4850
11785TIP3    H156846   4.167   2.331  13.703 -1.9844  0.4337 -0.4444
11785TIP3    H256847   4.216   2.206  13.634  0.5154  0.7739  0.6440
11786TIP3   OH256848   3.452   2.523  10.524 -0.8038  0.0473  0.4705
11786TIP3    H156849   3.500   2.476  10.592  0.4018 -1.2060 -1.2024
11786TIP3    H256850   3.510   2.520  10.447 -3.1035 -0.5395 -1.2911
11787TIP3   OH256851   1.890   2.135   6.202  0.0372 -0.2887  0.2012
11787TIP3    H156852   1.918   2.060   6.255  0.5140  0.0336  0.4014
11787TIP3    H256853   1.826   2.180   6.256 -0.0258 -0.3808  0.2030
11788TIP3   OH256854   0.031   1.942  14.828 -1.1845  0.4296 -0.4711
11788TIP3    H156855   0.046   1.878  14.898 -1.8677 -1.1956 -1.7782
11788TIP3    H256856  -0.012   2.016  14.872  1.5144  0.9553  1.4621
11789TIP3   OH256857   4.105   4.637   1.656 -0.1811 -0.3320  0.2968
11789TIP3    H156858   4.032   4.682   1.615 -0.8109 -2.4388 -0.9526
11789TIP3    H256859   4.087   4.642   1.750 -1.1311  0.4699  0.0764
11790TIP3   OH256860   5.964   5.343  16.364  0.3839  0.1926  0.4216
11790TIP3    H156861   5.896   5.387  16.414 -0.0061 -1.3362  1.2878
11790TIP3    H256862   5.946   5.366  16.273 -0.3011  1.1194  0.7874
11791TIP3   OH256863   3.365   2.220   1.402  0.7682 -0.2356  0.4759
11791TIP3    H156864   3.346   2.131   1.431  1.1060  0.1629  1.9373
11791TIP3    H256865   3.308   2.275   1.455  0.9362  0.4589 -0.0619
11792TIP3   OH256866   0.983   1.654  11.790 -0.9241  0.3363 -0.1485
11792TIP3    H156867   1.069   1.658  11.749 -1.1793 -1.8219 -0.9671
11792TIP3    H256868   0.973   1.563  11.817 -3.3001  0.3237 -0.8930
11793TIP3   OH256869   6.046   3.138   1.720 -0.1036 -0.0181 -0.0633
11793TIP3    H156870   6.087   3.144   1.634 -1.7982 -2.6172 -1.1157
11793TIP3    H256871   6.032   3.229   1.747  0.5680  0.8195 -2.4407
11794TIP3   OH256872   3.623   2.958   0.696  0.4030 -0.6457 -0.1372
11794TIP3    H156873   3.610   2.866   0.669 -1.0594 -0.8197  1.0800
11794TIP3    H256874   3.668   2.952   0.780  0.3817 -0.2509 -0.0981
11795TIP3   OH256875   3.576   0.482   1.288 -0.6388 -0.8187  0.4089
11795TIP3    H156876   3.489   0.467   1.251 -0.4906 -0.5590 -0.0459
11795TIP3    H256877   3.637   0.454   1.219 -0.3388  2.5602 -0.7531
11796TIP3   OH256878   3.888   0.752   1.972  0.2663 -0.7036  0.4992
11796TIP3    H156879   3.955   0.730   2.037  0.8418 -0.0294  0.1430
11796TIP3    H256880   3.892   0.847   1.965 -1.6881 -0.5400  1.4715
11797TIP3   OH256881   1.191   5.535   3.647 -0.4701  0.0099  0.2293
11797TIP3    H156882   1.187   5.444   3.678  0.6798 -0.1668 -0.1075
11797TIP3    H256883   1.103   5.570   3.663 -1.4579 -1.7026 -1.3004
11798TIP3   OH256884   5.970   6.403  11.655 -0.0585  0.1259  0.0947
11798TIP3    H156885   5.888   6.356  11.665  0.2985 -0.5575 -0.1102
11798TIP3    H256886   5.997   6.385  11.564  0.0015  0.8602 -0.0359
11799TIP3   OH256887   2.535   6.140  10.686 -0.2159  0.2672 -0.4290
11799TIP3    H156888   2.631   6.146  10.688 -0.1200 -1.4227  0.7079
11799TIP3    H256889   2.515   6.116  10.596  0.5087 -0.4772 -0.3978
11800TIP3   OH256890   6.398   6.186  13.230 -0.3403 -0.3864 -0.3434
11800TIP3    H156891   6.311   6.224  13.234 -0.8832 -1.7753  1.4978
11800TIP3    H256892   6.455   6.258  13.201 -1.9817  0.6656 -0.9902
11801TIP3   OH256893   4.484   0.196   0.691 -0.2881  0.0921 -0.3944
11801TIP3    H156894   4.481   0.100   0.689  1.1987  0.0160 -0.0380
11801TIP3    H256895   4.470   0.222   0.600  4.3422 -0.7076 -1.4565
11802TIP3   OH256896   3.706   1.453   6.122  0.1096 -0.2037 -0.2030
11802TIP3    H156897   3.621   1.465   6.080  0.8995  2.1210 -1.2380
11802TIP3    H256898   3.685   1.440   6.214 -1.3546  1.4789 -0.2594
11803TIP3   OH256899   2.155   6.403  14.772 -0.0146  0.2192  0.3487
11803TIP3    H156900   2.215   6.329  14.767  0.1623  0.5375 -3.1927
11803TIP3    H256901   2.196   6.464  14.833  1.7134 -0.9310  0.3544
11804TIP3   OH256902   1.689   3.402  12.437  0.9512  0.4432 -0.5897
11804TIP3    H156903   1.676   3.308  12.452  2.5148  0.1854 -0.8323
11804TIP3    H256904   1.648   3.444  12.513 -2.8098 -0.2370 -2.1006
11805TIP3   OH256905   4.347   6.657  11.626 -0.2758  0.1197 -0.0093
11805TIP3    H156906   4.360   6.752  11.623  1.6180 -0.1314 -0.3728
11805TIP3    H256907   4.253   6.646  11.610 -1.3860  2.1329  4.2116
11806TIP3   OH256908   0.163   3.609  14.116  0.0417  0.3372 -0.7356
11806TIP3    H156909   0.140   3.520  14.144 -1.2099  0.6401 -0.7471
11806TIP3    H256910   0.230   3.637  14.178 -0.4756 -0.1521  0.0584
11807TIP3   OH256911   6.592   0.458  11.601  0.1732 -0.2219 -1.0638
11807TIP3    H156912   6.507   0.492  11.572 -0.6638 -0.2231  1.2580
11807TIP3    H256913   6.570   0.391  11.665  1.9252 -0.8085 -1.0660
11808TIP3   OH256914   3.028   5.988   6.325 -0.0162 -0.5149  0.7574
11808TIP3    H156915   3.085   5.930   6.274  2.0730  0.0551  2.3947
11808TIP3    H256916   3.045   5.964   6.416 -2.6015 -0.4908  1.2774
11809TIP3   OH256917   4.840   4.008   4.969  0.2837 -0.0061 -0.6328
11809TIP3    H156918   4.791   4.068   5.024  2.4549 -0.1123  1.4959
11809TIP3    H256919   4.896   4.064   4.916  0.4047 -0.0455 -0.5456
11810TIP3   OH256920   0.872   5.122   0.636  0.4551 -0.6767  0.0349
11810TIP3    H156921   0.961   5.095   0.657 -0.0123 -0.9381  1.7470
11810TIP3    H256922   0.849   5.185   0.704 -1.6419 -2.6596  1.2361
11811TIP3   OH256923   0.568   1.835  13.700  0.5974  0.4187 -0.6289
11811TIP3    H156924   0.541   1.853  13.790  2.3053 -0.2962  0.0337
11811TIP3    H256925   0.596   1.744  13.701  1.4538  0.6609 -1.6798
11812TIP3   OH256926   6.029   3.888   4.381  0.0174 -0.7608 -0.0386
11812TIP3    H156927   6.107   3.881   4.327 -1.8337  0.6704 -3.0029
11812TIP3    H256928   5.957   3.901   4.319 -2.2329  0.7878  2.7539
11813TIP3   OH256929   4.150   1.456  12.590  1.3751 -0.1035 -0.2687
11813TIP3    H156930   4.068   1.502  12.606 -0.8878 -3.4062 -1.6285
11813TIP3    H256931   4.172   1.416  12.674  1.5963  0.7746  0.0945
11814TIP3   OH256932   6.561   0.510  16.279  0.0965 -0.1953  0.0687
11814TIP3    H156933   6.518   0.522  16.364 -1.1984 -1.3494 -0.4052
11814TIP3    H256934   6.520   0.574  16.222 -1.2599 -1.5279 -0.4706
11815TIP3   OH256935   5.169   1.401   5.333  0.1206  0.0137  0.2484
11815TIP3    H156936   5.126   1.478   5.372 -0.5973 -0.3021  0.0909
11815TIP3    H256937   5.175   1.421   5.240 -0.0617 -0.1174  0.2076
11816TIP3   OH256938   3.256   4.825   2.360 -0.0251  0.2299  0.1502
11816TIP3    H156939   3.171   4.782   2.372 -0.2883  0.4737 -0.7478
11816TIP3    H256940   3.312   4.757   2.323 -0.2942  0.4971 -0.7768
11817TIP3   OH256941   2.347   0.322  14.742 -0.0500 -0.1399 -0.2234
11817TIP3    H156942   2.286   0.395  14.734  1.2873  0.9433 -0.6750
11817TIP3    H256943   2.420   0.344  14.684  1.0486 -1.1190  0.7481
11818TIP3   OH256944   2.035   2.392   2.346 -0.0575 -0.4321  0.0884
11818TIP3    H156945   2.125   2.387   2.312 -0.3854  0.3825 -0.9442
11818TIP3    H256946   2.044   2.433   2.432  0.4306  0.9943 -0.6208
11819TIP3   OH256947   2.465   4.221  16.218 -0.4723 -0.2119  0.0092
11819TIP3    H156948   2.398   4.173  16.168 -0.8501  1.0898 -0.7428
11819TIP3    H256949   2.475   4.304  16.171  2.3485 -0.7533 -0.4336
11820TIP3   OH256950   4.623   2.872   5.567  0.4718 -0.3923  0.5004
11820TIP3    H156951   4.683   2.947   5.564  0.2763 -0.2337  0.5728
11820TIP3    H256952   4.642   2.830   5.651 -1.4021  1.2179  1.7688
11821TIP3   OH256953   4.230   5.033  12.078 -0.0663 -0.5475  0.3596
11821TIP3    H156954   4.300   4.982  12.036  0.5037  0.5235 -0.0240
11821TIP3    H256955   4.260   5.123  12.071 -2.1468  0.0711 -1.0969
11822TIP3   OH256956   5.674   2.258  16.936  0.5431  0.3968  0.0576
11822TIP3    H156957   5.607   2.201  16.975 -0.0658  0.0306 -1.4990
11822TIP3    H256958   5.679   2.333  16.996 -0.1507 -0.2931  1.0056
11823TIP3   OH256959   6.116   0.059  12.405  0.7383 -1.0178 -0.3576
11823TIP3    H156960   6.077  -0.019  12.446  1.9081 -0.4449  1.9176
11823TIP3    H256961   6.104   0.128  12.470 -0.0553  0.6659 -2.2545
11824TIP3   OH256962   6.389   6.411   4.975 -0.2088  0.2929 -0.2274
11824TIP3    H156963   6.396   6.315   4.976 -1.0010  0.2441  0.8169
11824TIP3    H256964   6.449   6.438   4.904 -1.1785 -1.0635 -1.6054
11825TIP3   OH256965   4.909   1.221   4.261 -0.2684  0.4718  0.3746
11825TIP3    H156966   4.989   1.220   4.314 -1.2566 -0.6494  1.8595
11825TIP3    H256967   4.902   1.312   4.231  0.5668  1.0041  1.7611
11826TIP3   OH256968   4.326   4.500   6.082  1.0038  0.2643  0.0782
11826TIP3    H156969   4.246   4.552   6.090  0.9522  0.3297 -0.8595
11826TIP3    H256970   4.364   4.501   6.170  0.5929  1.2364  0.2480
11827TIP3   OH256971   3.337   2.176  11.468 -0.7048 -0.3472 -0.4505
11827TIP3    H156972   3.343   2.120  11.546 -2.2863 -0.7166 -0.5844
11827TIP3    H256973   3.353   2.116  11.395 -1.3292 -0.4272 -0.5278
11828TIP3   OH256974   5.898   0.420  11.937 -0.5384  0.2786  0.7635
11828TIP3    H156975   5.899   0.335  11.894  1.7547  0.7580 -0.1659
11828TIP3    H256976   5.958   0.410  12.011 -0.5277  0.9750  0.8503
11829TIP3   OH256977   2.371   0.661  13.459  0.6342 -0.5999 -0.1227
11829TIP3    H156978   2.452   0.633  13.501  0.9988 -0.3251 -0.6383
11829TIP3    H256979   2.311   0.587  13.471  0.3179 -0.0330  1.9875
11830TIP3   OH256980   2.696   5.298  17.243 -0.4115  0.2175 -0.0303
11830TIP3    H156981   2.704   5.213  17.200 -0.2857  0.0876  0.2489
11830TIP3    H256982   2.634   5.282  17.315 -0.7720  0.4781 -0.2774
11831TIP3   OH256983   5.125   6.601  15.559  0.0368 -0.0673  0.1454
11831TIP3    H156984   5.126   6.559  15.473 -1.8818 -2.1955  1.1165
11831TIP3    H256985   5.064   6.674  15.549 -0.4546 -0.5225 -0.2078
11832TIP3   OH256986   1.667   2.883   6.600  0.4895  0.3027 -0.3265
11832TIP3    H156987   1.636   2.816   6.661  1.1416 -0.8701 -1.2610
11832TIP3    H256988   1.591   2.904   6.546  0.0833  0.8715  0.4581
11833TIP3   OH256989   1.517   6.311  13.963  0.1118 -0.3845 -0.0235
11833TIP3    H156990   1.542   6.275  14.048 -1.6806 -0.5265  0.4560
11833TIP3    H256991   1.490   6.235  13.912  0.2056 -0.1785 -0.3798
11834TIP3   OH256992   0.876   0.053   1.924 -0.5309 -0.7256 -0.9327
11834TIP3    H156993   0.915   0.139   1.912  0.1254 -0.7831  0.6633
11834TIP3    H256994   0.937   0.007   1.982 -1.6487 -1.7294 -0.5346
11835TIP3   OH256995   4.048   6.374  12.235 -0.3713  0.0435  0.1836
11835TIP3    H156996   4.084   6.296  12.192 -0.8219 -0.3811  0.5765
11835TIP3    H256997   4.110   6.444  12.213 -0.8322 -0.0726 -1.5207
11836TIP3   OH256998   2.722   6.324   5.309 -0.3768 -0.1395  0.1264
11836TIP3    H156999   2.741   6.241   5.265 -0.8792  0.2390 -0.8189
11836TIP3    H257000   2.794   6.335   5.371 -0.7576 -1.6985  0.8613
11837TIP3   OH257001   3.065   0.573  15.484 -0.4741 -0.4305 -0.0291
11837TIP3    H157002   3.027   0.619  15.409  0.4373  1.4345  0.6005
11837TIP3    H257003   3.158   0.594  15.480  0.0391 -2.5952  0.0592
11838TIP3   OH257004   5.027   3.651   5.438  0.2067  0.4786  0.5061
11838TIP3    H157005   5.067   3.668   5.523  0.4755  0.3817  0.3979
11838TIP3    H257006   4.968   3.725   5.424  1.4291  1.3668  0.0064
11839TIP3   OH257007   2.645   0.294   5.493 -0.6033 -0.4160 -0.4200
11839TIP3    H157008   2.613   0.272   5.405  3.5647 -0.6981 -1.9659
11839TIP3    H257009   2.669   0.387   5.488 -0.2201 -0.4627  0.3928
11840TIP3   OH257010   0.401   0.119   6.071 -0.5234 -0.6041 -0.2969
11840TIP3    H157011   0.426   0.118   5.979 -1.8482 -0.8840 -0.6648
11840TIP3    H257012   0.371   0.208   6.087 -2.0376 -1.0363 -0.6328
11841TIP3   OH257013   5.632   0.275  11.257  0.0053 -0.0454  0.4439
11841TIP3    H157014   5.683   0.307  11.182 -0.7201  1.2460  0.4965
11841TIP3    H257015   5.541   0.276  11.227 -0.1831 -0.5556  0.9843
11842TIP3   OH257016   3.818   3.895   2.898  0.5326 -0.1759 -0.2884
11842TIP3    H157017   3.877   3.968   2.920  2.0383 -1.3386 -0.3471
11842TIP3    H257018   3.736   3.918   2.941  1.5030  0.7276  1.1789
11843TIP3   OH257019   1.565   2.429   2.473 -0.1215  0.1230  0.4406
11843TIP3    H157020   1.596   2.348   2.513  1.2800  0.7244  0.6012
11843TIP3    H257021   1.631   2.450   2.406 -1.4175  0.1708 -0.8551
11844TIP3   OH257022   1.807   2.759   4.524 -0.0622  0.4057  0.3518
11844TIP3    H157023   1.750   2.827   4.560 -0.8730  1.3066 -2.5110
11844TIP3    H257024   1.854   2.803   4.453  2.4079 -0.9842  1.0344
11845TIP3   OH257025   5.662   0.666   1.157  0.2499 -0.1938 -0.1677
11845TIP3    H157026   5.656   0.580   1.200  0.2100 -0.5024 -0.7759
11845TIP3    H257027   5.754   0.690   1.164 -0.0186  0.4398  1.3787
11846TIP3   OH257028   0.431   1.318   1.099 -0.2506 -0.2410 -0.3788
11846TIP3    H157029   0.493   1.303   1.027  0.9039  0.1700  0.5140
11846TIP3    H257030   0.379   1.238   1.102 -0.5728 -0.0996 -1.9285
11847TIP3   OH257031   3.087   5.463   2.379  0.1141  0.2813 -0.4489
11847TIP3    H157032   3.155   5.409   2.420 -1.3821 -1.1158  0.2220
11847TIP3    H257033   3.038   5.500   2.453 -1.5986 -0.9728 -0.9238
11848TIP3   OH257034   3.051   5.531   4.690  0.6478  0.6169  0.3329
11848TIP3    H157035   3.112   5.593   4.730 -1.3523  1.4355  2.2129
11848TIP3    H257036   3.020   5.478   4.763  1.0380 -1.5138 -0.9990
11849TIP3   OH257037   1.970   2.045   2.838 -0.8862  0.4174 -0.1080
11849TIP3    H157038   2.034   1.976   2.853 -0.0609  1.4318  1.0471
11849TIP3    H257039   1.909   2.038   2.912  0.1062  1.9403  0.8632
11850TIP3   OH257040   5.659   6.286   5.360 -0.8652  0.3307 -0.0120
11850TIP3    H157041   5.697   6.198   5.367  2.4561  1.7779  0.9250
11850TIP3    H257042   5.612   6.285   5.276 -0.4614 -2.1660 -0.2505
11851TIP3   OH257043   5.388   6.351   0.043  0.0073 -1.0640  0.3116
11851TIP3    H157044   5.352   6.440   0.033  1.5504 -0.6541 -1.9072
11851TIP3    H257045   5.453   6.344  -0.026  0.0392 -3.8919  0.5964
11852TIP3   OH257046   0.544   5.442   2.768  0.7551 -0.2590  0.1852
11852TIP3    H157047   0.513   5.352   2.777 -0.9676  0.2932  0.1371
11852TIP3    H257048   0.624   5.446   2.820  0.8871 -1.8225  0.1319
11853TIP3   OH257049   3.528   3.961   2.554  0.6256 -0.7290  0.1956
11853TIP3    H157050   3.526   3.917   2.639  0.1353  0.2519  0.7025
11853TIP3    H257051   3.557   4.050   2.574  1.5561 -0.8024 -0.8114
11854TIP3   OH257052   2.729   2.690   4.278 -0.6175 -0.6668 -0.2818
11854TIP3    H157053   2.675   2.768   4.266  0.4356  0.1702  0.2553
11854TIP3    H257054   2.692   2.646   4.355  0.3913  0.7300  1.0383
11855TIP3   OH257055   0.008   1.080  15.116 -0.3850 -0.1914 -0.3689
11855TIP3    H157056   0.092   1.108  15.153  0.4982 -1.7216 -1.2070
11855TIP3    H257057   0.001   1.129  15.034  0.1742 -0.8436 -0.8060
11856TIP3   OH257058   3.500   4.915   1.743  0.4456  0.0284  0.9115
11856TIP3    H157059   3.450   4.834   1.747 -1.3478  1.0560 -0.3750
11856TIP3    H257060   3.447   4.979   1.791  0.8751  0.9453  0.1772
11857TIP3   OH257061   3.632   2.662   4.326 -0.4913 -0.5725  1.0502
11857TIP3    H157062   3.619   2.747   4.369  1.4039  0.6566 -0.7051
11857TIP3    H257063   3.709   2.625   4.370 -1.0957 -1.2310  1.5640
11858TIP3   OH257064   2.337   5.820  14.434  0.2006 -0.6961 -0.4845
11858TIP3    H157065   2.282   5.747  14.462  0.3957 -1.4751 -2.0516
11858TIP3    H257066   2.422   5.805  14.477  0.3723 -1.6329 -1.1505
11859TIP3   OH257067   1.546   4.765  15.533 -0.5591  0.3970  0.0335
11859TIP3    H157068   1.544   4.854  15.499 -1.7830  0.5382  0.4610
11859TIP3    H257069   1.455   4.745  15.554 -0.0801 -0.3771  1.4163
11860TIP3   OH257070   4.605   0.132  11.215  0.2243 -0.5084  0.3230
11860TIP3    H157071   4.556   0.197  11.164  1.2471  1.2441  1.5447
11860TIP3    H257072   4.636   0.069  11.150 -1.3435 -0.1756 -0.7896
11861TIP3   OH257073   4.162   6.621   1.022 -0.3465  0.5142 -0.1533
11861TIP3    H157074   4.190   6.529   1.018  2.0841  1.3031 -2.7663
11861TIP3    H257075   4.069   6.616   1.043  0.0392 -2.4966  1.1391
11862TIP3   OH257076   0.172   6.538   5.552 -0.2281 -0.8439 -0.3337
11862TIP3    H157077   0.135   6.537   5.641 -1.8084  1.3995 -0.9185
11862TIP3    H257078   0.110   6.486   5.500 -0.2830 -0.6221 -0.4880
11863TIP3   OH257079   3.034   5.725  12.703  0.3813  0.2257 -0.4600
11863TIP3    H157080   2.948   5.751  12.669  0.7676  1.8678 -0.2478
11863TIP3    H257081   3.092   5.797  12.678  1.7024 -0.8597 -0.5863
11864TIP3   OH257082   3.062   0.864   0.385 -0.4584 -0.6645  0.1925
11864TIP3    H157083   3.004   0.883   0.311 -1.4906 -0.0583  1.1373
11864TIP3    H257084   3.003   0.831   0.453  0.2935  0.0693  1.2123
11865TIP3   OH257085   5.541   2.938   0.061 -0.3873 -0.8605 -0.2809
11865TIP3    H157086   5.507   2.925  -0.027 -0.2904 -0.4329 -0.3813
11865TIP3    H257087   5.468   2.913   0.118 -1.4701  1.5862 -0.5022
11866TIP3   OH257088   6.686   4.745  13.073  0.0907  0.7085  0.3796
11866TIP3    H157089   6.758   4.789  13.117  0.4522  0.0242  0.4847
11866TIP3    H257090   6.684   4.658  13.113  1.9148 -0.7543 -2.5665
11867TIP3   OH257091   2.607   6.041   4.791 -0.3106  0.1940 -0.1983
11867TIP3    H157092   2.642   6.011   4.875  0.9975 -0.3321 -0.9138
11867TIP3    H257093   2.529   5.988   4.777 -1.0581  0.9102  1.0970
11868TIP3   OH257094   3.894   0.974  11.978  0.5222 -0.3686 -0.5198
11868TIP3    H157095   3.932   1.041  12.035 -1.5108 -0.9884  1.6156
11868TIP3    H257096   3.969   0.923  11.948  1.5264 -0.8636  2.6934
11869TIP3   OH257097   4.803   2.472   4.502 -0.4218 -0.0418  0.1201
11869TIP3    H157098   4.759   2.395   4.538  0.1482  0.4982  2.0313
11869TIP3    H257099   4.882   2.438   4.460  0.7251 -0.3679  2.4543
11870TIP3   OH257100   1.586   1.111  13.145  0.2104  0.3605  0.0245
11870TIP3    H157101   1.611   1.019  13.132 -0.6383 -0.0768  1.4276
11870TIP3    H257102   1.577   1.120  13.240 -2.8222  1.0560 -0.2708
11871TIP3   OH257103   1.183   4.937  11.633 -0.2577  0.4544  0.0662
11871TIP3    H157104   1.190   4.880  11.710  1.4855  0.0477 -0.3766
11871TIP3    H257105   1.190   4.877  11.559  1.0667  1.1936 -0.4057
11872TIP3   OH257106   2.004   5.417   3.951  0.0548  0.2970 -0.1844
11872TIP3    H157107   1.922   5.466   3.954 -0.7044 -0.9963  1.7812
11872TIP3    H257108   2.038   5.430   3.863 -3.4299 -0.9718 -1.7999
11873TIP3   OH257109   6.703   1.115  11.571  0.3867 -0.0586  0.3073
11873TIP3    H157110   6.792   1.098  11.602 -0.1325  2.4957  3.4937
11873TIP3    H257111   6.646   1.092  11.644 -1.5741 -1.1881 -1.5050
11874TIP3   OH257112   4.567   2.840  13.248 -0.0182 -0.0866 -0.0818
11874TIP3    H157113   4.616   2.758  13.245  0.6885  0.3381 -0.1765
11874TIP3    H257114   4.505   2.833  13.175 -0.9540 -1.1432  0.7792
11875TIP3   OH257115   4.784   0.814   5.676  0.0506 -0.5826  0.1439
11875TIP3    H157116   4.748   0.726   5.665  0.2645 -0.7970  1.0662
11875TIP3    H257117   4.835   0.809   5.757 -0.0669  0.4356  0.2916
11876TIP3   OH257118   3.516   4.409  16.431  0.0531 -0.0337  0.0011
11876TIP3    H157119   3.610   4.407  16.411 -0.1811  0.3001 -1.1569
11876TIP3    H257120   3.477   4.345  16.372 -0.4119 -0.3936  0.6962
11877TIP3   OH257121   0.913   4.381   4.654  0.3282  0.7939  0.5961
11877TIP3    H157122   1.004   4.396   4.681  0.2422  0.7043  0.9426
11877TIP3    H257123   0.861   4.416   4.727  0.0989  0.0796  0.7744
11878TIP3   OH257124   0.140   6.133  15.855  0.4146  0.2432 -0.0107
11878TIP3    H157125   0.139   6.037  15.860  2.9518  0.1239 -0.9595
11878TIP3    H257126   0.207   6.153  15.790 -0.1812  2.6744  0.0682
11879TIP3   OH257127   0.196   3.764   0.969 -0.4353  0.6122  0.1903
11879TIP3    H157128   0.196   3.857   0.990  0.4607  0.8247 -0.7084
11879TIP3    H257129   0.231   3.760   0.880  0.1985 -0.6472  0.4918
11880TIP3   OH257130   6.385   3.102  17.091 -0.0227 -0.5207 -0.2972
11880TIP3    H157131   6.339   3.041  17.034 -0.4167  0.1343 -0.6803
11880TIP3    H257132   6.414   3.173  17.033  1.4224 -0.8936 -0.0603
11881TIP3   OH257133   3.387   4.848   1.122  0.4976  0.1887 -0.0308
11881TIP3    H157134   3.368   4.924   1.177 -2.1514 -0.8361  0.5586
11881TIP3    H257135   3.347   4.869   1.038  0.5852 -0.1359 -0.1533
11882TIP3   OH257136   2.743   4.368   0.863  0.3187 -0.3593  0.1978
11882TIP3    H157137   2.679   4.312   0.820 -1.9872  1.0395  1.7054
11882TIP3    H257138   2.783   4.312   0.930 -0.7963 -0.6831  0.6058
11883TIP3   OH257139   0.784   0.296  13.869  0.2160  0.4525  0.5452
11883TIP3    H157140   0.821   0.333  13.788 -0.6898 -2.1131 -1.0956
11883TIP3    H257141   0.698   0.336  13.877 -0.3557 -0.5151 -0.6741
11884TIP3   OH257142   6.115   2.479   3.221  1.0179  0.3378 -0.3387
11884TIP3    H157143   6.112   2.385   3.238  2.2850  0.4006  0.3161
11884TIP3    H257144   6.145   2.517   3.304 -2.3602  1.6204  0.3572
11885TIP3   OH257145   5.987   1.370  13.433  0.1317 -0.0712  0.2281
11885TIP3    H157146   5.941   1.351  13.514  0.6513 -0.0078  0.5425
11885TIP3    H257147   5.960   1.301  13.373  0.0693 -0.3576  0.5836
11886TIP3   OH257148   6.683   2.066  12.836  0.2671  0.4268 -0.3860
11886TIP3    H157149   6.667   2.155  12.867 -2.0700 -0.4347  0.9644
11886TIP3    H257150   6.640   2.010  12.900  1.9291 -1.7048 -1.0837
11887TIP3   OH257151   2.152   3.676   1.313  0.2477  0.4534  0.7185
11887TIP3    H157152   2.168   3.769   1.295  0.0530  0.8336  2.4093
11887TIP3    H257153   2.238   3.634   1.304  0.3036  0.7599 -0.2275
11888TIP3   OH257154   5.597   5.418   2.397 -0.1813  0.0666  0.2957
11888TIP3    H157155   5.650   5.497   2.410 -1.0362  0.4793  1.2495
11888TIP3    H257156   5.514   5.450   2.362 -1.0118 -0.2919  1.9294
11889TIP3   OH257157   0.009   5.653   1.758 -0.2678 -0.3759  0.6522
11889TIP3    H157158   0.097   5.665   1.723 -0.0145 -2.7848  0.3586
11889TIP3    H257159  -0.048   5.661   1.682 -0.3204  1.1344  0.8332
11890TIP3   OH257160   2.588   4.451  11.950  0.1803 -0.4204 -0.1132
11890TIP3    H157161   2.496   4.441  11.925  0.3734  3.0189 -2.6333
11890TIP3    H257162   2.586   4.496  12.034 -0.4609  0.5420 -0.6345
11891TIP3   OH257163   4.001   0.314   0.258  0.3520 -0.3004  0.0310
11891TIP3    H157164   3.913   0.350   0.267  0.7218  0.1702  1.9145
11891TIP3    H257165   4.009   0.296   0.164 -1.1032  1.2933 -0.4410
11892TIP3   OH257166   3.038   1.313   4.891  0.8074 -0.2274 -0.5368
11892TIP3    H157167   3.035   1.292   4.798 -1.8650  0.9049 -0.7475
11892TIP3    H257168   3.006   1.234   4.935 -1.6623  0.5477 -0.8552
11893TIP3   OH257169   5.938   3.530  11.010 -0.1572 -0.1486  0.0718
11893TIP3    H157170   5.899   3.597  10.953 -1.1084 -0.7952 -0.0544
11893TIP3    H257171   5.946   3.572  11.095 -1.0981  0.0276  0.0860
11894TIP3   OH257172   4.861   4.363   3.138  0.5162 -0.1212  0.4296
11894TIP3    H157173   4.774   4.343   3.173  0.4739  0.8213  0.8802
11894TIP3    H257174   4.921   4.337   3.208  0.4488  1.4898  1.1086
11895TIP3   OH257175   1.240   0.936   3.247 -0.1364  0.1856  0.2447
11895TIP3    H157176   1.303   0.941   3.174  0.7275  0.1135  0.9714
11895TIP3    H257177   1.249   0.847   3.280 -0.2134  0.3454  0.7054
11896TIP3   OH257178   2.374   4.866   1.258  0.5491 -0.4247  0.5419
11896TIP3    H157179   2.414   4.791   1.302  1.0669 -0.3998  0.1161
11896TIP3    H257180   2.444   4.902   1.204  0.4170  0.6143  1.0689
11897TIP3   OH257181   1.556   1.854  12.370 -0.1380  1.0092 -0.2645
11897TIP3    H157182   1.484   1.828  12.426  0.7804  0.6160  0.7586
11897TIP3    H257183   1.573   1.945  12.394  0.1736  0.8791  0.0148
11898TIP3   OH257184   0.988   3.913   3.347 -0.3545 -1.1130  0.0897
11898TIP3    H157185   0.926   3.979   3.378  1.5001  0.0174  1.5359
11898TIP3    H257186   1.001   3.855   3.422  0.0353 -1.5590 -0.3200
11899TIP3   OH257187   6.311   4.694  14.493 -0.2941  0.1027  0.2521
11899TIP3    H157188   6.397   4.660  14.515  0.1651 -0.1136 -1.7291
11899TIP3    H257189   6.249   4.636  14.537  0.5384 -1.1988 -0.2813
11900TIP3   OH257190   3.635   4.476  10.692  0.4012 -0.3955  0.0679
11900TIP3    H157191   3.661   4.417  10.763 -1.2995  0.8596  1.7971
11900TIP3    H257192   3.667   4.562  10.719 -1.5852  0.3643  0.1237
11901TIP3   OH257193   5.937   2.907   5.765  0.0962 -0.2700 -0.1145
11901TIP3    H157194   5.886   2.901   5.685 -0.9108 -2.0572  0.6135
11901TIP3    H257195   5.871   2.910   5.835  0.9669  0.0198  0.7088
11902TIP3   OH257196   3.432   3.039   2.939 -0.5697  0.6265 -0.3677
11902TIP3    H157197   3.444   3.098   2.865  0.4285 -0.4106 -1.0497
11902TIP3    H257198   3.516   2.994   2.947 -0.6280  0.8220  1.4776
11903TIP3   OH257199   0.068   0.564  14.887  0.6971 -0.0384 -0.0822
11903TIP3    H157200   0.064   0.556  14.982  0.3261  1.2341  0.0238
11903TIP3    H257201   0.004   0.632  14.866  2.9961  1.9510 -0.9277
11904TIP3   OH257202   1.109   0.131   5.911  0.3413  0.4594 -0.1173
11904TIP3    H157203   1.029   0.149   5.862 -0.6292 -0.6383  1.0435
11904TIP3    H257204   1.082   0.129   6.002  1.3507 -1.6550  0.1572
11905TIP3   OH257205   5.236   0.810   3.697 -0.6706 -0.1943  0.0163
11905TIP3    H157206   5.309   0.826   3.638 -0.9875 -0.8732 -0.5691
11905TIP3    H257207   5.239   0.882   3.760 -1.1287  1.2923 -1.6213
11906TIP3   OH257208   1.090   0.046  14.851  0.1507  0.4232  0.6513
11906TIP3    H157209   1.102   0.137  14.825 -0.5155 -0.1550 -1.8326
11906TIP3    H257210   0.998   0.040  14.877 -0.5981 -0.1355 -1.9621
11907TIP3   OH257211   1.407   2.120  14.227  0.2400 -0.0342 -0.7434
11907TIP3    H157212   1.484   2.127  14.283 -0.5259 -0.0283  0.3251
11907TIP3    H257213   1.442   2.112  14.139  1.4654 -0.2017 -0.2509
11908TIP3   OH257214   0.418   2.591   3.380 -0.0257 -0.7754 -0.5978
11908TIP3    H157215   0.347   2.587   3.444  0.9179 -2.2185  0.4011
11908TIP3    H257216   0.374   2.612   3.297 -0.9798  3.5570  0.8787
11909TIP3   OH257217   5.646   2.633   0.878 -0.6334 -0.2315 -0.0685
11909TIP3    H157218   5.678   2.658   0.791  0.7958 -0.8560  0.2573
11909TIP3    H257219   5.604   2.712   0.912 -0.4762  0.2590 -1.0144
11910TIP3   OH257220   6.111   2.046   3.816 -0.0213 -0.3330  0.0448
11910TIP3    H157221   6.167   1.976   3.782  0.2674 -0.5755  1.0091
11910TIP3    H257222   6.028   2.003   3.834 -0.2616 -0.1455 -0.6166
11911TIP3   OH257223   4.461   0.474  15.936  0.2101 -0.3094  0.1863
11911TIP3    H157224   4.415   0.404  15.983  0.7002 -0.2659  0.7310
11911TIP3    H257225   4.427   0.555  15.975 -0.3456 -0.2386 -0.4336
11912TIP3   OH257226   0.222   5.952   3.675  0.0335  0.4472  0.1584
11912TIP3    H157227   0.307   5.913   3.695 -0.5852 -1.8736 -1.4921
11912TIP3    H257228   0.225   6.039   3.715  2.3592 -0.4095  1.9426
11913TIP3   OH257229   5.707   6.499  16.771 -0.0834 -0.3652  0.4393
11913TIP3    H157230   5.698   6.507  16.866 -2.4244 -1.1689  0.3057
11913TIP3    H257231   5.677   6.411  16.751  1.4024 -0.5856 -0.9461
11914TIP3   OH257232   2.384   5.261   1.222 -0.3353  0.1919  0.0376
11914TIP3    H157233   2.361   5.323   1.291 -1.2669 -0.3237  0.1932
11914TIP3    H257234   2.460   5.215   1.256 -0.2188  0.5884  0.3197
11915TIP3   OH257235   3.171   0.776  10.686  0.6019 -0.6968 -0.8806
11915TIP3    H157236   3.161   0.867  10.713  0.1340 -1.3669  1.2651
11915TIP3    H257237   3.084   0.738  10.697  1.0246 -1.6552 -0.8202
11916TIP3   OH257238   6.255   6.149  14.077  0.1921 -0.4615  0.1751
11916TIP3    H157239   6.306   6.198  14.013 -3.0928  1.0295 -1.4323
11916TIP3    H257240   6.259   6.201  14.157 -1.5905  1.4174 -0.9329
11917TIP3   OH257241   0.938   3.917  15.683 -0.1589  0.2123 -0.1078
11917TIP3    H157242   0.867   3.854  15.672  0.8975 -1.1907  0.9790
11917TIP3    H257243   1.016   3.870  15.655  0.6313  1.0727  0.6125
11918TIP3   OH257244   5.659   6.619   2.452  0.0287 -0.0094 -0.4371
11918TIP3    H157245   5.608   6.545   2.484 -0.3820  0.3660 -0.2050
11918TIP3    H257246   5.594   6.687   2.436  0.6080  1.0942  1.6063
11919TIP3   OH257247   0.800   2.566  11.422  0.6113 -0.1822 -0.4501
11919TIP3    H157248   0.775   2.606  11.505  1.7499 -0.4976  0.0570
11919TIP3    H257249   0.859   2.630  11.382 -0.6843  0.3930 -1.4546
11920TIP3   OH257250   6.562   4.034   3.645 -0.4971 -0.1202 -0.2823
11920TIP3    H157251   6.580   4.085   3.566 -2.7152 -0.4288 -1.0079
11920TIP3    H257252   6.546   3.945   3.613  0.2070 -0.6040  0.6798
11921TIP3   OH257253   0.125   5.279  13.323 -0.3211 -0.0014 -0.1017
11921TIP3    H157254   0.112   5.278  13.228 -0.2461  0.1215 -0.1139
11921TIP3    H257255   0.201   5.336  13.336 -0.9340  0.7907  0.1046
11922TIP3   OH257256   0.029   6.391  14.445 -0.2993  0.3165 -0.0891
11922TIP3    H157257  -0.059   6.410  14.479 -0.1650 -1.4497  1.3366
11922TIP3    H257258   0.015   6.324  14.378 -0.1696  0.9881 -0.7889
11923TIP3   OH257259   6.152   4.048  13.936 -0.4060  0.1132 -0.1192
11923TIP3    H157260   6.182   4.098  13.859 -1.7233  1.2827  0.1076
11923TIP3    H257261   6.132   4.115  14.001  0.6948 -0.8825  1.2454
11924TIP3   OH257262   0.364   5.549   5.434  0.5470 -0.0344 -0.1785
11924TIP3    H157263   0.276   5.538   5.469 -0.4990  1.4712 -2.2393
11924TIP3    H257264   0.422   5.525   5.507 -1.5421  0.0431  1.5565
11925TIP3   OH257265   4.115   2.219  14.254 -0.0499 -0.2372  0.3301
11925TIP3    H157266   4.165   2.139  14.243  0.6972  0.1559  0.8192
11925TIP3    H257267   4.066   2.228  14.172  0.7875 -0.5469 -0.2106
11926TIP3   OH257268   2.782   3.671   2.549  0.2406 -0.6980 -0.1525
11926TIP3    H157269   2.788   3.653   2.643 -0.9990 -0.3585  0.0008
11926TIP3    H257270   2.710   3.733   2.541  0.7222 -0.2726 -1.2774
11927TIP3   OH257271   3.321   3.781  15.848 -0.2865 -0.2732  0.5238
11927TIP3    H157272   3.383   3.708  15.861 -0.0709 -0.5414 -1.8359
11927TIP3    H257273   3.319   3.794  15.753 -2.4919  0.9416  0.7104
11928TIP3   OH257274   6.117   4.835  12.971 -0.7425  0.1581  0.3748
11928TIP3    H157275   6.022   4.842  12.961 -0.9485  0.0350  2.1778
11928TIP3    H257276   6.130   4.798  13.059  0.9376 -1.0535 -0.3399
11929TIP3   OH257277   1.514   6.535  11.810  0.5389 -0.0970  0.4586
11929TIP3    H157278   1.498   6.520  11.904 -0.8282 -1.3727  0.0400
11929TIP3    H257279   1.437   6.584  11.780  1.5627  1.4228  0.2445
11930TIP3   OH257280   0.823   3.900  15.222 -0.5110 -0.2490  0.1784
11930TIP3    H157281   0.729   3.913  15.236 -0.5325 -1.0903  0.8822
11930TIP3    H257282   0.865   3.963  15.280 -0.6444  0.6308 -0.6762
11931TIP3   OH257283   1.074   4.196  12.306  0.1354 -0.3007  0.0979
11931TIP3    H157284   1.054   4.271  12.362 -0.9639 -2.0656  2.1734
11931TIP3    H257285   1.088   4.233  12.219 -1.9368  2.1484  0.7548
11932TIP3   OH257286   1.507   3.317   6.189  0.4749 -0.0423  0.4257
11932TIP3    H157287   1.426   3.368   6.188  0.6635  0.2547  0.1541
11932TIP3    H257288   1.505   3.271   6.273  0.5915  0.8751  0.9431
11933TIP3   OH257289   6.719   5.460   3.598  0.1311 -0.1213  0.0964
11933TIP3    H157290   6.671   5.541   3.578  0.7607  0.0058 -0.9029
11933TIP3    H257291   6.686   5.434   3.684  0.2133  1.4075  0.6003
11934TIP3   OH257292   3.499   6.124  16.553  0.1950 -0.2390  0.0273
11934TIP3    H157293   3.524   6.037  16.524 -1.5352 -0.7098 -0.1086
11934TIP3    H257294   3.443   6.158  16.483 -1.8125 -0.3387  1.5362
11935TIP3   OH257295   2.291   4.447  15.870  0.8667 -0.9692 -0.1039
11935TIP3    H157296   2.233   4.502  15.922  1.3576 -1.3319  0.8290
11935TIP3    H257297   2.252   4.360  15.874 -0.5043 -0.5293 -2.4597
11936TIP3   OH257298   2.227   4.610  17.260  0.3280 -0.1192  0.4800
11936TIP3    H157299   2.235   4.605  17.355 -0.6891 -2.3185  0.4774
11936TIP3    H257300   2.162   4.679  17.245  0.1075 -0.1286  1.3974
11937TIP3   OH257301   2.825   5.632  12.353  0.1039 -0.3384 -0.7473
11937TIP3    H157302   2.813   5.541  12.327 -0.0587 -0.8527  1.0377
11937TIP3    H257303   2.889   5.667  12.290  0.9650 -1.9859 -0.8145
11938TIP3   OH257304   1.234   5.879   0.087 -0.3836  0.0193  0.6766
11938TIP3    H157305   1.242   5.970   0.115 -1.8927  0.5918 -0.6785
11938TIP3    H257306   1.264   5.828   0.162  1.1295  1.6379  1.2102
11939TIP3   OH257307   1.560   4.483   0.069  0.4210  0.3892  0.2379
11939TIP3    H157308   1.497   4.472   0.140 -0.2609  0.9434 -0.2760
11939TIP3    H257309   1.557   4.576   0.049  0.7273  0.2592 -0.4189
11940TIP3   OH257310   6.100   0.763  17.144  0.5877 -0.4305 -0.6698
11940TIP3    H157311   6.174   0.712  17.175  1.3848  0.8572 -0.4216
11940TIP3    H257312   6.026   0.703  17.148  1.1654 -1.0449  1.3049
11941TIP3   OH257313   3.093   2.108  15.029  0.3971  0.2720  0.4987
11941TIP3    H157314   3.051   2.116  15.115  2.1240  0.9134  1.3073
11941TIP3    H257315   3.075   2.018  15.002 -3.7778  1.2647 -0.4348
11942TIP3   OH257316   4.520   5.352   4.319  0.4372  0.4789  0.2558
11942TIP3    H157317   4.455   5.284   4.300  0.1554  0.9341 -0.4252
11942TIP3    H257318   4.482   5.401   4.391  0.1942  0.5177  0.1023
11943TIP3   OH257319   2.069   5.976   4.865  0.6803 -0.0915  0.0981
11943TIP3    H157320   2.080   6.071   4.869  1.6854 -0.1806 -0.3679
11943TIP3    H257321   2.109   5.944   4.947  0.1431 -0.0997  0.3595
11944TIP3   OH257322   4.797   1.973   4.659 -0.4692  0.7851  0.0551
11944TIP3    H157323   4.776   1.890   4.702  2.4747 -0.5596 -0.9888
11944TIP3    H257324   4.853   2.019   4.722  1.3468  0.1410 -1.0765
11945TIP3   OH257325   6.215   2.581   1.780  0.1749 -0.1840 -0.2817
11945TIP3    H157326   6.177   2.524   1.847  0.9655  0.1175  0.4384
11945TIP3    H257327   6.179   2.549   1.697 -1.6665  0.1214  0.3877
11946TIP3   OH257328   2.386   3.045   2.827 -0.3648 -0.2453 -0.3954
11946TIP3    H157329   2.416   2.970   2.776 -1.2721  0.2657 -1.6907
11946TIP3    H257330   2.452   3.113   2.809  1.0321 -1.0261  1.5954
11947TIP3   OH257331   3.692   0.122  17.229  0.4263 -0.3053  0.3284
11947TIP3    H157332   3.717   0.208  17.195  1.9315 -1.1222 -0.6944
11947TIP3    H257333   3.597   0.125  17.234  0.2004  0.2377 -2.9476
11948TIP3   OH257334   1.499   2.368  13.608  0.0146 -0.4485  0.4399
11948TIP3    H157335   1.407   2.345  13.597  0.0086 -1.3149  2.1518
11948TIP3    H257336   1.499   2.456  13.644 -0.0936  0.1078 -0.8846
11949TIP3   OH257337   5.336   1.594   0.288 -0.4948 -0.1939 -0.1233
11949TIP3    H157338   5.326   1.528   0.219 -0.8582  0.0430 -0.3008
11949TIP3    H257339   5.402   1.558   0.347 -1.8754 -1.4668  0.6697
11950TIP3   OH257340   0.004   0.362  14.583 -0.2582 -0.1352 -0.9416
11950TIP3    H157341   0.091   0.397  14.562  2.0097 -4.5181  0.5854
11950TIP3    H257342  -0.000   0.362  14.678 -1.7810 -0.3457 -0.9945
11951TIP3   OH257343   2.608   2.448  13.553 -0.3951  0.6261 -0.4350
11951TIP3    H157344   2.627   2.525  13.607  2.4755 -1.2060  1.2982
11951TIP3    H257345   2.678   2.447  13.487 -1.7434  0.7608 -1.8932
11952TIP3   OH257346   2.812   4.896  11.921  0.2046  0.6946  0.2606
11952TIP3    H157347   2.850   4.822  11.969 -1.0224  0.0456  0.2508
11952TIP3    H257348   2.885   4.957  11.909  1.2971 -0.6283  0.0518
11953TIP3   OH257349   3.057   6.069   4.573 -0.2965  0.3085  0.9658
11953TIP3    H157350   2.989   6.009   4.604 -1.7211  0.8789 -0.9570
11953TIP3    H257351   3.112   6.084   4.649 -1.7317 -0.9755  2.2988
11954TIP3   OH257352   3.187   1.050   6.461 -0.5824 -0.4037 -0.0717
11954TIP3    H157353   3.215   0.997   6.536  0.2524  0.0781 -0.0311
11954TIP3    H257354   3.093   1.036   6.456 -0.2923 -2.3720 -0.4353
11955TIP3   OH257355   5.496   3.707  16.330  0.0918 -0.2419  0.4534
11955TIP3    H157356   5.448   3.769  16.276  0.4685 -1.0741 -0.8470
11955TIP3    H257357   5.441   3.696  16.408  0.2781  2.1062  0.9652
11956TIP3   OH257358   2.499   6.390  10.811 -0.3570  0.0885  0.4362
11956TIP3    H157359   2.477   6.311  10.760  0.3693 -0.0212  0.2910
11956TIP3    H257360   2.592   6.381  10.831 -0.3112  0.8276  0.5717
11957TIP3   OH257361   3.280   1.737   2.563  0.1516 -0.1195  0.4764
11957TIP3    H157362   3.259   1.665   2.503  1.0558  0.7565 -0.9079
11957TIP3    H257363   3.305   1.809   2.506  0.4582  0.9127  1.9020
11958TIP3   OH257364   6.290   5.492  14.524 -0.4116 -0.3889 -0.4313
11958TIP3    H157365   6.246   5.527  14.602 -0.3945 -0.2124 -0.5020
11958TIP3    H257366   6.322   5.406  14.552 -1.5681 -0.8918 -0.6527
11959TIP3   OH257367   2.224   0.227   5.450 -0.4412 -0.1947  0.5257
11959TIP3    H157368   2.143   0.279   5.446 -1.2564 -1.5807 -1.6394
11959TIP3    H257369   2.210   0.165   5.522 -1.0335 -0.0035  0.5748
11960TIP3   OH257370   3.656   0.114   4.684  0.1442 -0.5798  0.1378
11960TIP3    H157371   3.750   0.110   4.697  0.1118 -0.6879  0.3340
11960TIP3    H257372   3.643   0.079   4.596  0.4716  1.2548 -0.6776
11961TIP3   OH257373   5.127   4.059  15.382 -0.0809  0.2466 -0.8054
11961TIP3    H157374   5.072   3.989  15.418 -2.4119  2.4322  0.0850
11961TIP3    H257375   5.216   4.035  15.406 -0.8858 -2.1292 -0.0477
11962TIP3   OH257376   0.433   2.075  15.858  0.1216  0.3758 -0.2169
11962TIP3    H157377   0.376   2.111  15.927 -1.6135  0.1041 -1.4869
11962TIP3    H257378   0.379   2.008  15.815  1.8162 -0.6892 -0.7062
11963TIP3   OH257379   3.017   4.584  13.333 -0.1085 -0.7738  0.3638
11963TIP3    H157380   3.053   4.569  13.420  1.3484  1.5450  0.2124
11963TIP3    H257381   2.922   4.586  13.345  0.0666 -0.9833  1.8050
11964TIP3   OH257382   6.325   6.711  11.233  0.1756  0.1690  0.1705
11964TIP3    H157383   6.241   6.745  11.266 -0.4608  0.0917 -1.3425
11964TIP3    H257384   6.391   6.760  11.282 -0.7430 -0.2258  1.8649
11965TIP3   OH257385   5.510   4.303   3.946 -0.6696  0.0892  0.4294
11965TIP3    H157386   5.473   4.236   4.004  0.3006  0.7808  1.8684
11965TIP3    H257387   5.597   4.271   3.924  0.5001  1.6784  2.5610
11966TIP3   OH257388   5.546   0.120   0.409 -0.0870  0.1642  0.2793
11966TIP3    H157389   5.608   0.132   0.481 -2.3727  0.7001  2.2125
11966TIP3    H257390   5.559   0.030   0.380  2.0528  0.4760  0.1686
11967TIP3   OH257391   5.866   4.772   3.245  0.4316 -0.4775  0.2621
11967TIP3    H157392   5.847   4.800   3.155 -2.4419 -1.0118  0.6714
11967TIP3    H257393   5.916   4.691   3.235 -1.2147 -1.3797 -0.8614
11968TIP3   OH257394   2.708   1.507   3.824 -0.0361 -0.0180 -0.4344
11968TIP3    H157395   2.690   1.467   3.909  0.9391  0.7849  0.1583
11968TIP3    H257396   2.648   1.462   3.763 -0.2977 -1.0275  0.5533
11969TIP3   OH257397   3.995   6.339  12.977  0.2407 -0.5888  0.0082
11969TIP3    H157398   3.939   6.380  13.042 -0.1668 -0.4569 -0.4191
11969TIP3    H257399   4.042   6.412  12.936  0.4209 -0.6614  0.0856
11970TIP3   OH257400   2.923   4.201  11.037 -0.4252 -0.1068  0.5490
11970TIP3    H157401   3.007   4.217  10.994  0.4298 -1.6141  1.6272
11970TIP3    H257402   2.864   4.176  10.965  0.3625 -0.2484 -0.0542
11971TIP3   OH257403   3.270   1.397  11.854 -0.3834 -0.2462  0.2737
11971TIP3    H157404   3.188   1.349  11.865 -0.5247 -0.3262 -1.0350
11971TIP3    H257405   3.249   1.486  11.880 -0.7441 -0.3902  0.4818
11972TIP3   OH257406   5.438   2.812  16.433 -0.4189 -0.2101 -0.4865
11972TIP3    H157407   5.348   2.791  16.409 -0.7264  0.2276  0.2406
11972TIP3    H257408   5.466   2.739  16.488 -0.1214 -0.6370 -1.1986
11973TIP3   OH257409   4.410   3.517   5.806 -0.3655  0.0526 -0.2251
11973TIP3    H157410   4.391   3.498   5.898 -0.3792 -0.3341 -0.3097
11973TIP3    H257411   4.505   3.533   5.804 -0.4797  0.7925 -0.0168
11974TIP3   OH257412   4.451   5.208   4.703 -0.0342 -0.0065 -0.7154
11974TIP3    H157413   4.429   5.131   4.756  1.1134  0.8948  1.1130
11974TIP3    H257414   4.387   5.207   4.632  0.0025 -2.6709 -0.7526
11975TIP3   OH257415   1.209   6.556  17.094  0.2170  0.2826 -0.6940
11975TIP3    H157416   1.187   6.525  17.182 -2.3097  0.7873 -1.1198
11975TIP3    H257417   1.287   6.507  17.070 -0.0774 -1.1218  1.1531
11976TIP3   OH257418   0.416   5.872   2.181 -0.2571  0.3427 -0.1408
11976TIP3    H157419   0.501   5.869   2.226  0.3440  1.4262 -1.1463
11976TIP3    H257420   0.439   5.891   2.090 -1.5591  0.1710 -0.5099
11977TIP3   OH257421   3.871   5.236  15.124  0.2381  0.2299  0.1330
11977TIP3    H157422   3.789   5.256  15.078 -0.1664 -1.8952 -0.1316
11977TIP3    H257423   3.856   5.266  15.214 -0.5039  0.6112 -0.1094
11978TIP3   OH257424   5.047   6.283   2.044 -0.0736 -0.2185 -0.0837
11978TIP3    H157425   5.070   6.366   2.085  0.2926  0.2234 -1.1696
11978TIP3    H257426   5.091   6.285   1.959  0.0339 -1.5736 -0.0736
11979TIP3   OH257427   5.666   1.645  13.610 -0.4943  0.1518 -0.8409
11979TIP3    H157428   5.727   1.637  13.536  0.9712 -2.3322  0.5560
11979TIP3    H257429   5.594   1.585  13.588  1.3191 -2.8097  0.9706
11980TIP3   OH257430   5.527   3.637   5.035 -0.1491  0.1808  0.2449
11980TIP3    H157431   5.558   3.632   5.125  0.2464  1.4481  0.1871
11980TIP3    H257432   5.567   3.717   5.000  1.7238 -1.5557 -1.8104
11981TIP3   OH257433   3.563   1.156  16.754 -0.1354  0.8730 -0.1670
11981TIP3    H157434   3.474   1.124  16.742  0.6414 -2.5682  2.3328
11981TIP3    H257435   3.554   1.236  16.806 -1.7936  0.5342  0.0865
11982TIP3   OH257436   1.913   1.165  15.424  0.3039  0.4281  0.5763
11982TIP3    H157437   1.988   1.224  15.415  0.9926 -0.4980  0.1261
11982TIP3    H257438   1.944   1.096  15.482  0.1329 -0.4841 -0.4011
11983TIP3   OH257439   3.405   1.079   3.112  0.2920 -0.3368 -0.2280
11983TIP3    H157440   3.500   1.086   3.100  0.0981  0.7013 -1.2449
11983TIP3    H257441   3.376   1.022   3.040  0.1831 -0.9591  0.3007
11984TIP3   OH257442   1.767   4.234  11.922  0.1853 -0.4664  0.0098
11984TIP3    H157443   1.856   4.268  11.921 -0.7776  2.1045 -1.1572
11984TIP3    H257444   1.721   4.288  11.987 -1.1999  0.0345 -1.3655
11985TIP3   OH257445   0.772   5.726   4.525 -0.3309 -0.1510 -0.1206
11985TIP3    H157446   0.744   5.647   4.478  0.9532 -0.7622  0.1397
11985TIP3    H257447   0.754   5.706   4.617  2.3327 -1.1512  0.2152
11986TIP3   OH257448   0.798   4.638  14.805  0.2957  0.6617  0.6003
11986TIP3    H157449   0.711   4.610  14.778  0.7524  0.4725 -0.6826
11986TIP3    H257450   0.794   4.637  14.901 -0.6876 -0.6862  0.5597
11987TIP3   OH257451   0.515   0.770   4.385 -0.3598  0.1450 -0.0012
11987TIP3    H157452   0.533   0.831   4.456 -3.4798  0.8638  0.2500
11987TIP3    H257453   0.506   0.825   4.307  1.7206 -0.5084 -0.7367
11988TIP3   OH257454   5.196   4.257   5.842 -0.4245 -0.0711 -0.1139
11988TIP3    H157455   5.260   4.314   5.885 -0.3469 -0.4571  0.2889
11988TIP3    H257456   5.223   4.168   5.866  0.5704 -0.3963 -2.2570
11989TIP3   OH257457   5.131   0.990  12.644 -0.0373  0.3751  0.5736
11989TIP3    H157458   5.116   0.975  12.738 -0.3179 -0.2034  0.4440
11989TIP3    H257459   5.080   1.068  12.624  0.0766  0.5396  0.9214
11990TIP3   OH257460   6.165   0.398   4.965  0.7116  0.1431  0.1114
11990TIP3    H157461   6.083   0.438   4.937 -0.5334 -1.5126  1.3196
11990TIP3    H257462   6.160   0.399   5.061  0.4459 -3.2222  0.1926
11991TIP3   OH257463   4.766   6.566   0.948  0.7138  0.3066  0.2631
11991TIP3    H157464   4.776   6.536   1.038 -2.7466  1.6367  1.1838
11991TIP3    H257465   4.784   6.660   0.952 -1.1535  0.7062 -0.0412
11992TIP3   OH257466   5.409   4.986   0.022  0.2103 -0.2566 -0.6001
11992TIP3    H157467   5.354   5.065   0.020  1.2881  0.5344  0.3466
11992TIP3    H257468   5.347   4.914   0.009 -0.5191  0.8447 -3.6319
11993TIP3   OH257469   1.888   1.175   1.489 -0.4626 -0.0818 -0.1922
11993TIP3    H157470   1.909   1.102   1.548  1.2888  0.4746 -0.0802
11993TIP3    H257471   1.799   1.200   1.513 -0.8702 -1.8002  0.1633
11994TIP3   OH257472   6.641   2.212   3.022 -0.2989 -0.2968  0.8159
11994TIP3    H157473   6.631   2.175   2.934  0.4277 -1.6871  1.3069
11994TIP3    H257474   6.597   2.297   3.017  1.1094  0.3500 -1.3516
11995TIP3   OH257475   1.101   2.439   2.369  0.1398 -0.9012  0.1742
11995TIP3    H157476   1.127   2.530   2.358 -0.1812 -0.8346 -0.0351
11995TIP3    H257477   1.159   2.406   2.438 -1.4463  0.1908  2.0666
11996TIP3   OH257478   4.197   1.404  13.420 -0.2556  0.0216 -0.0822
11996TIP3    H157479   4.221   1.369  13.506  0.1331  4.2588  1.6208
11996TIP3    H257480   4.279   1.402  13.370  0.0940 -0.1005  0.4852
11997TIP3   OH257481   2.977   1.497   3.790  0.0194 -0.2849  0.0557
11997TIP3    H157482   2.887   1.529   3.783 -0.4890 -1.8682 -1.1655
11997TIP3    H257483   2.972   1.425   3.854 -0.0186 -1.7335 -1.5316
11998TIP3   OH257484   3.203   2.169  17.027  0.0462 -0.2583 -0.3179
11998TIP3    H157485   3.238   2.091  17.070 -2.2200  0.0501  2.1931
11998TIP3    H257486   3.267   2.237  17.046 -0.3845 -0.3916  1.6502
11999TIP3   OH257487   1.960   2.480  15.800 -0.2595 -0.3967 -0.3436
11999TIP3    H157488   2.050   2.474  15.768 -0.1740 -1.1036  0.0178
11999TIP3    H257489   1.933   2.569  15.778  0.2753 -0.4158 -1.1162
12000TIP3   OH257490   1.242   1.211  15.429 -0.5367  0.2360  0.1753
12000TIP3    H157491   1.205   1.246  15.348 -0.5651  0.7892  0.4214
12000TIP3    H257492   1.201   1.263  15.498  0.3387  0.5422  0.4805
12001TIP3   OH257493   6.464   5.669  15.362 -0.5580  0.6718  0.1670
12001TIP3    H157494   6.420   5.596  15.319  0.6489 -0.7782  1.3256
12001TIP3    H257495   6.500   5.722  15.289 -1.1954 -0.0368 -0.6669
12002TIP3   OH257496   4.335   0.587   1.525 -0.2304 -0.0226  0.3085
12002TIP3    H157497   4.398   0.608   1.594  1.6320 -0.5896 -1.1550
12002TIP3    H257498   4.341   0.492   1.515 -0.0928  0.1138 -0.9737
12003TIP3   OH257499   6.353   3.854  14.392  0.3585  0.0359  0.0599
12003TIP3    H157500   6.316   3.849  14.304 -1.2563  0.1876  0.7198
12003TIP3    H257501   6.279   3.873  14.448  1.2168 -1.0000  1.5801
12004TIP3   OH257502   2.679   3.609   0.054  0.2602 -0.0458  0.0605
12004TIP3    H157503   2.643   3.646  -0.026  0.5891  1.3280  0.5355
12004TIP3    H257504   2.603   3.591   0.109  0.1807  1.7140  0.5756
12005TIP3   OH257505   1.071   5.040   3.813  0.6815  0.3184 -0.3226
12005TIP3    H157506   1.160   5.008   3.804 -0.1486 -1.4498 -3.1094
12005TIP3    H257507   1.074   5.130   3.781  1.1641 -0.3371 -2.2101
12006TIP3   OH257508   6.539   0.703  13.223 -0.2734 -0.2716  0.3367
12006TIP3    H157509   6.519   0.767  13.291  0.4797  1.0286 -0.6154
12006TIP3    H257510   6.592   0.752  13.160 -0.7912 -1.4945 -1.0748
12007TIP3   OH257511   5.385   0.767  15.839 -0.3596 -0.2590  0.7204
12007TIP3    H157512   5.334   0.701  15.792  1.6838 -0.5799 -1.1762
12007TIP3    H257513   5.446   0.716  15.892 -0.5250  0.1122  1.2691
12008TIP3   OH257514   2.281   1.839   6.335  0.1625  0.8203 -0.2679
12008TIP3    H157515   2.369   1.801   6.329 -0.8193 -1.8334  1.0193
12008TIP3    H257516   2.250   1.810   6.421 -1.5003  2.7942 -0.1866
12009TIP3   OH257517   2.593   3.385  16.649 -0.7934  0.0563 -0.0938
12009TIP3    H157518   2.540   3.449  16.601 -1.5836 -0.4948  0.0272
12009TIP3    H257519   2.646   3.438  16.709 -2.4164  0.5324  0.9652
12010TIP3   OH257520   3.358   5.843  15.189  0.4919  0.0878  0.1398
12010TIP3    H157521   3.276   5.890  15.174  0.8615  0.6881  0.0047
12010TIP3    H257522   3.377   5.858  15.282  1.1389  1.0460 -0.1490
12011TIP3   OH257523   5.417   3.998   5.096  0.0808  0.1902  0.0824
12011TIP3    H157524   5.364   3.952   5.161 -0.4659  0.7914  0.0620
12011TIP3    H257525   5.368   4.077   5.076  1.1491  0.9170  0.3058
12012TIP3   OH257526   0.534   0.275   2.331  0.1147 -0.6221  0.6420
12012TIP3    H157527   0.523   0.363   2.296  0.3411 -1.0061 -0.4238
12012TIP3    H257528   0.538   0.287   2.425 -0.1398  0.4781  0.5215
12013TIP3   OH257529   1.256   3.402  16.305  0.4506  0.2718 -0.0925
12013TIP3    H157530   1.246   3.310  16.330  1.5629  0.6260  1.7627
12013TIP3    H257531   1.335   3.403  16.250  0.2227  0.0611 -0.4229
12014TIP3   OH257532   0.013   1.088   2.733  0.1951 -0.3426  0.0805
12014TIP3    H157533  -0.039   1.007   2.730 -1.6796  0.8718 -1.0176
12014TIP3    H257534  -0.017   1.138   2.658  2.1548  0.9081  0.1158
12015TIP3   OH257535   3.565   5.717  15.399 -0.0144  0.2175 -0.4690
12015TIP3    H157536   3.576   5.656  15.326  2.0050  1.2581 -1.0685
12015TIP3    H257537   3.645   5.769  15.399 -0.1852  0.5420  2.2193
12016TIP3   OH257538   2.511   1.902   0.201 -0.1771  0.4794 -0.1574
12016TIP3    H157539   2.587   1.859   0.240 -1.8577 -0.2365  2.4065
12016TIP3    H257540   2.521   1.887   0.107  2.2883 -0.4982  0.2241
12017TIP3   OH257541   0.240   5.151   5.531 -0.3492  0.6139  0.4683
12017TIP3    H157542   0.196   5.229   5.564 -1.0832  0.4207 -0.0424
12017TIP3    H257543   0.300   5.184   5.464 -0.6639  0.7395  0.2475
12018TIP3   OH257544   1.953   1.073  16.419  0.1220 -0.2601  0.0559
12018TIP3    H157545   2.020   1.138  16.400 -0.8694  0.8373  0.2037
12018TIP3    H257546   1.883   1.123  16.461 -0.7576 -1.3920 -0.0327
12019TIP3   OH257547   1.073   1.934  16.213 -0.2249 -0.4392  0.3205
12019TIP3    H157548   1.151   1.879  16.207  0.1466  0.0277  0.7646
12019TIP3    H257549   1.001   1.873  16.226  0.1306 -0.8480  0.3872
12020TIP3   OH257550   5.094   2.676  12.885  0.1405  0.3111  0.8987
12020TIP3    H157551   5.066   2.764  12.912  1.6713  0.5747  1.6879
12020TIP3    H257552   5.177   2.690  12.840 -0.7591 -0.4983 -1.0374
12021TIP3   OH257553   1.833   0.043  12.545  0.3061  0.0148  0.0724
12021TIP3    H157554   1.754  -0.005  12.568  0.4971 -0.7011 -0.7564
12021TIP3    H257555   1.851   0.098  12.622 -2.3439  2.0180 -0.6550
12022TIP3   OH257556   6.592   2.691  17.069  0.4341 -0.0944 -0.2908
12022TIP3    H157557   6.598   2.608  17.116  0.5137  0.3619  0.5212
12022TIP3    H257558   6.581   2.666  16.977  0.0999 -0.9984 -0.0116
12023TIP3   OH257559   4.178   4.712  14.296  0.4019  0.3625  0.1482
12023TIP3    H157560   4.235   4.756  14.233 -0.9404 -0.6420 -1.8466
12023TIP3    H257561   4.192   4.618  14.279 -1.6852  0.1006 -0.2752
12024TIP3   OH257562   1.564   4.046   4.561  0.2047  0.2152  0.4329
12024TIP3    H157563   1.528   4.056   4.649  2.1601  0.7232  1.1972
12024TIP3    H257564   1.490   4.014   4.509 -0.6838 -1.1742  2.4783
12025TIP3   OH257565   5.798   5.501   1.940 -0.2671 -0.6743  0.4685
12025TIP3    H157566   5.875   5.452   1.967 -0.3480 -0.0876  1.8035
12025TIP3    H257567   5.832   5.572   1.885 -0.0583 -1.5692 -0.5913
12026TIP3   OH257568   0.449   3.272   6.488  0.3790 -0.1678  0.1141
12026TIP3    H157569   0.464   3.226   6.571  1.4922 -0.2623 -0.1411
12026TIP3    H257570   0.434   3.203   6.424  0.5283 -0.1280  0.0354
12027TIP3   OH257571   1.644   5.766  12.411  0.5507 -0.1808 -0.4851
12027TIP3    H157572   1.637   5.777  12.316  1.1864  0.8089 -0.4273
12027TIP3    H257573   1.585   5.694  12.431 -3.4091  2.7933 -0.9914
12028TIP3   OH257574   1.216   6.394   2.117  0.2811  0.0424  0.3717
12028TIP3    H157575   1.234   6.486   2.137 -1.3407  0.4395  0.0384
12028TIP3    H257576   1.136   6.374   2.167 -0.0079 -0.8600 -0.4399
12029TIP3   OH257577   6.702   1.835   2.362 -0.5675  0.5293 -0.0519
12029TIP3    H157578   6.736   1.875   2.282  1.2262  1.0447  0.9496
12029TIP3    H257579   6.753   1.875   2.433  0.2985 -2.4706  1.0996
12030TIP3   OH257580   3.182   4.811  13.721 -0.0761 -0.0909  0.4185
12030TIP3    H157581   3.238   4.881  13.688 -0.6724  0.3021  0.2203
12030TIP3    H257582   3.198   4.737  13.661 -3.0475  1.4150 -2.4017
12031TIP3   OH257583   4.164   0.733  15.842  0.2106  0.1095  0.4774
12031TIP3    H157584   4.198   0.729  15.932 -0.3386  1.0459  0.7396
12031TIP3    H257585   4.226   0.790  15.796  0.3750 -0.1990  0.3196
12032TIP3   OH257586   1.348   5.182  11.557  0.0738  0.3123  0.1333
12032TIP3    H157587   1.425   5.163  11.610 -0.7462 -1.2746  0.7756
12032TIP3    H257588   1.283   5.116  11.583 -0.7386  0.2166 -1.9978
12033TIP3   OH257589   6.387   2.486   1.475  0.3341 -0.8082 -0.4025
12033TIP3    H157590   6.301   2.518   1.502  0.8552 -1.0611  1.6686
12033TIP3    H257591   6.425   2.557   1.425 -0.8584 -0.4796 -0.8610
12034TIP3   OH257592   0.156   2.486   0.409 -0.2523  0.1273 -0.1860
12034TIP3    H157593   0.082   2.435   0.441 -0.7712  1.2776  0.4683
12034TIP3    H257594   0.216   2.491   0.484 -1.0435  2.0328  0.3419
12035TIP3   OH257595   5.869   2.430   3.606  0.3193 -0.1902 -0.4325
12035TIP3    H157596   5.825   2.484   3.672  2.0790 -0.2540  0.8175
12035TIP3    H257597   5.808   2.359   3.589 -1.1805  1.1117 -0.6440
12036TIP3   OH257598   1.324   2.561   1.454 -0.2058  0.6357 -0.1067
12036TIP3    H157599   1.261   2.631   1.468  1.3172  1.8017  1.0375
12036TIP3    H257600   1.344   2.529   1.542 -0.1855 -0.6245 -0.5579
12037TIP3   OH257601   1.529   3.275  14.009  0.0783 -0.0751 -0.5752
12037TIP3    H157602   1.464   3.333  14.048  0.5428 -1.1379  1.8762
12037TIP3    H257603   1.481   3.226  13.943 -0.9815  1.0536 -0.6535
12038TIP3   OH257604   3.793   5.552  14.375  0.4504 -0.5067 -0.2151
12038TIP3    H157605   3.748   5.632  14.402 -1.6463 -2.0385  1.0129
12038TIP3    H257606   3.871   5.582  14.328 -1.3863  2.2671 -1.6209
12039TIP3   OH257607   3.841   4.157  14.874 -0.1807 -0.5950  0.5414
12039TIP3    H157608   3.831   4.142  14.968 -0.8531 -3.1624  0.0829
12039TIP3    H257609   3.832   4.070  14.835 -0.8111  0.5880 -1.9817
12040TIP3   OH257610   0.739   3.623   6.560 -0.1674 -0.1955 -0.2214
12040TIP3    H157611   0.672   3.603   6.495  0.3476  1.7739 -1.3924
12040TIP3    H257612   0.793   3.544   6.563 -0.1735 -0.3153 -2.2515
12041TIP3   OH257613   1.195   3.127   2.485 -0.2866 -0.4570 -0.8248
12041TIP3    H157614   1.210   3.220   2.469 -0.9667 -0.0158  0.9810
12041TIP3    H257615   1.247   3.083   2.418  0.1915  1.2071 -1.5946
12042TIP3   OH257616   4.941   4.814  14.601 -0.1396  0.1915 -0.0193
12042TIP3    H157617   4.945   4.783  14.691 -0.5413 -2.8022 -0.9543
12042TIP3    H257618   4.868   4.876  14.600 -0.7848 -0.5249  1.5181
12043TIP3   OH257619   3.068   3.986   5.908  0.0184  0.5374 -0.3310
12043TIP3    H157620   3.036   4.055   5.849 -0.8945  1.3108  1.0397
12043TIP3    H257621   3.050   4.019   5.996  0.8510 -0.8490  0.3832
12044TIP3   OH257622   5.299   3.499  17.134  0.0886 -0.1722  0.2825
12044TIP3    H157623   5.351   3.484  17.213 -1.9176 -1.5123  1.4031
12044TIP3    H257624   5.212   3.521  17.166 -0.8954 -1.2436 -1.5301
12045TIP3   OH257625   5.091   6.337  10.718 -0.0048  0.2735 -0.0062
12045TIP3    H157626   5.186   6.345  10.722 -0.0234  1.3523 -1.2724
12045TIP3    H257627   5.075   6.271  10.651 -0.1534  1.2276 -0.9382
12046TIP3   OH257628   0.532   4.127  15.713  0.3165  0.1178 -0.5255
12046TIP3    H157629   0.507   4.215  15.742 -0.6692 -0.2778 -0.1427
12046TIP3    H257630   0.613   4.108  15.761 -0.4904  0.0729  0.8372
12047TIP3   OH257631   0.546   3.038   0.372  0.4538 -0.0108  0.2256
12047TIP3    H157632   0.520   3.027   0.464 -0.6676 -2.1440 -0.3091
12047TIP3    H257633   0.493   3.112   0.342 -1.0477 -0.8724  0.6513
12048TIP3   OH257634   6.508   3.837   4.199  0.0832  0.1592 -0.1810
12048TIP3    H157635   6.542   3.886   4.274  4.0469  1.0734 -2.4206
12048TIP3    H257636   6.463   3.903   4.146 -0.2659  0.0722  0.0069
12049TIP3   OH257637   2.837   0.052   0.573 -0.4305  0.1869 -0.3032
12049TIP3    H157638   2.928   0.025   0.559 -0.1867  1.0149 -0.3127
12049TIP3    H257639   2.788   0.003   0.507 -0.2770 -1.8593  1.0262
12050TIP3   OH257640   5.339   4.036   1.583  0.2555 -0.0453 -0.3932
12050TIP3    H157641   5.315   4.092   1.657 -0.4647 -0.4359 -0.3355
12050TIP3    H257642   5.426   4.068   1.557  0.5192  0.0810  0.6229
12051TIP3   OH257643   2.120   6.197   3.941 -0.1180  0.5097  0.2651
12051TIP3    H157644   2.074   6.275   3.971 -0.2874 -0.0706  1.5337
12051TIP3    H257645   2.203   6.198   3.989 -1.5583 -1.9141  2.9496
12052TIP3   OH257646   1.572   5.324   3.099  0.0836  0.4430 -0.3140
12052TIP3    H157647   1.587   5.233   3.122 -0.1417  0.4750 -0.0348
12052TIP3    H257648   1.530   5.320   3.013  0.4420  0.3020 -0.4846
12053TIP3   OH257649   1.151   4.104   4.309  0.1028  0.2549  0.1099
12053TIP3    H157650   1.121   4.022   4.348 -0.7666 -0.0014 -1.0721
12053TIP3    H257651   1.078   4.164   4.318 -0.1262  0.1783 -1.1520
12054TIP3   OH257652   5.134   2.635   2.915  0.0829  0.2368 -0.7905
12054TIP3    H157653   5.041   2.642   2.936  0.1429 -0.5797 -0.2485
12054TIP3    H257654   5.143   2.682   2.832 -1.0517 -0.7494 -1.4984
12055TIP3   OH257655   5.674   6.342  10.746  0.2542  0.5513 -0.3469
12055TIP3    H157656   5.643   6.268  10.694  0.4446  1.1121 -1.2790
12055TIP3    H257657   5.768   6.348  10.726  0.4829  0.3437  0.6110
12056TIP3   OH257658   0.520   0.053   2.555  0.8122  0.7089  0.3205
12056TIP3    H157659   0.518  -0.006   2.481 -1.0054  1.4048 -0.2150
12056TIP3    H257660   0.612   0.078   2.564  1.3997 -1.1946 -0.2172
12057TIP3   OH257661   4.505   0.482   0.927  0.4361 -0.4814 -0.2631
12057TIP3    H157662   4.463   0.540   0.991  1.0755 -1.8760  1.4856
12057TIP3    H257663   4.575   0.535   0.889  0.3900  0.2054  0.5881
12058TIP3   OH257664   2.118   2.460  13.702 -0.0199  0.4793 -0.3126
12058TIP3    H157665   2.205   2.497  13.692  0.1210 -0.1344 -1.4123
12058TIP3    H257666   2.106   2.404  13.625 -1.4598  0.7279 -0.2955
12059TIP3   OH257667   6.383   3.407   4.733  0.1054 -0.0506 -0.3349
12059TIP3    H157668   6.379   3.334   4.671 -1.4681 -0.8915  0.7342
12059TIP3    H257669   6.296   3.447   4.729  0.6625  1.1869 -0.2181
12060TIP3   OH257670   0.090   1.165  16.446  0.4248  0.2145 -0.1581
12060TIP3    H157671   0.073   1.073  16.466  0.3641  0.2880  0.1217
12060TIP3    H257672   0.018   1.190  16.388  0.8845 -0.1408 -0.8853
12061TIP3   OH257673   4.082   3.507  10.868 -0.2404 -0.3534 -0.7958
12061TIP3    H157674   4.125   3.587  10.898 -0.9982  0.5285 -2.0087
12061TIP3    H257675   4.028   3.480  10.942 -1.2627  1.1897 -0.9387
12062TIP3   OH257676   4.328   2.188   1.888  0.0657 -0.4545 -0.1835
12062TIP3    H157677   4.301   2.273   1.923 -2.2566 -0.8496 -0.9225
12062TIP3    H257678   4.338   2.203   1.794  1.0324 -0.6622 -0.1155
12063TIP3   OH257679   1.791   4.980   1.448 -0.2460 -0.0195 -0.4307
12063TIP3    H157680   1.878   4.982   1.487 -1.0691 -1.2382  1.5130
12063TIP3    H257681   1.778   5.069   1.414  2.4580 -0.3112 -2.4135
12064TIP3   OH257682   4.948   1.325  16.701 -0.3147  0.1116  0.4590
12064TIP3    H157683   5.011   1.313  16.772  0.9068  2.8587 -0.1152
12064TIP3    H257684   4.998   1.309  16.622 -2.0058 -4.3594  0.1521
12065TIP3   OH257685   3.970   3.064  12.249  0.1121  0.0579  0.0011
12065TIP3    H157686   3.963   3.156  12.274 -0.7949  0.1097 -0.4342
12065TIP3    H257687   3.957   3.016  12.331 -0.6431  0.2832  0.0129
12066TIP3   OH257688   3.692   1.298   2.868 -0.6949  0.0897  0.1025
12066TIP3    H157689   3.773   1.262   2.904 -1.3629 -1.5833 -0.0474
12066TIP3    H257690   3.629   1.226   2.873 -1.2074  0.2292 -3.0825
12067TIP3   OH257691   3.746   5.427   5.823  0.3703  0.1416 -0.6322
12067TIP3    H157692   3.788   5.384   5.898 -0.5570 -1.5950 -1.0748
12067TIP3    H257693   3.779   5.379   5.747  1.1307  1.7447 -1.3237
12068TIP3   OH257694   0.786   3.532  16.598  0.2058  0.0960 -0.3304
12068TIP3    H157695   0.848   3.574  16.658 -1.0721 -0.4205  1.3938
12068TIP3    H257696   0.828   3.449  16.576  0.1812 -0.2267  0.7862
12069TIP3   OH257697   2.721   4.618   1.307 -0.4489  0.6576 -0.5065
12069TIP3    H157698   2.711   4.673   1.229  3.5190  1.7123 -0.3847
12069TIP3    H257699   2.754   4.535   1.273  0.8810  0.9796 -0.0587
12070TIP3   OH257700   0.226   2.436   1.981  0.0980  0.2763  0.8723
12070TIP3    H157701   0.163   2.489   2.030 -1.8902 -2.4551  1.3574
12070TIP3    H257702   0.221   2.469   1.891 -0.5296  1.4049  1.3166
12071TIP3   OH257703   4.769   0.451   4.905  0.3021 -0.9893 -0.1939
12071TIP3    H157704   4.711   0.426   4.977 -0.4124  2.0448  0.3547
12071TIP3    H257705   4.709   0.463   4.831  0.4589  0.3159 -0.1110
12072TIP3   OH257706   3.346   4.148   4.091  0.0311 -0.1853 -0.5410
12072TIP3    H157707   3.288   4.139   4.015  0.1096 -1.2244 -0.4876
12072TIP3    H257708   3.305   4.214   4.146  0.4040  1.2068 -1.8983
12073TIP3   OH257709   5.936   5.479  14.472  0.1626 -0.1828 -0.7714
12073TIP3    H157710   5.988   5.545  14.518 -1.0365  1.2129 -1.3464
12073TIP3    H257711   5.909   5.417  14.540  1.1192  0.0530 -0.1738
12074TIP3   OH257712   2.508   4.627  10.767 -0.3143 -0.5908 -0.5921
12074TIP3    H157713   2.487   4.536  10.785  1.6719 -0.7442  1.1910
12074TIP3    H257714   2.532   4.628  10.674  0.5912 -2.0767 -0.3882
12075TIP3   OH257715   0.699   4.617   0.016  0.1888 -0.4982  0.1902
12075TIP3    H157716   0.662   4.556   0.079 -2.3746  0.8717  0.0910
12075TIP3    H257717   0.729   4.691   0.069  0.0503 -0.3079  0.0031
12076TIP3   OH257718   1.992   6.683   4.635 -0.3595 -0.3424  0.7637
12076TIP3    H157719   1.963   6.772   4.618  0.6077  0.0941  1.3730
12076TIP3    H257720   2.037   6.687   4.720  0.6994 -1.1722  0.2647
12077TIP3   OH257721   1.708   1.639  12.283 -0.0187 -0.1024 -0.6996
12077TIP3    H157722   1.647   1.704  12.318  1.3952  0.7698  0.1812
12077TIP3    H257723   1.761   1.687  12.219  0.3137 -0.6420 -0.8374
12078TIP3   OH257724   4.117   2.027  16.237 -0.3410 -0.8190  0.1978
12078TIP3    H157725   4.080   2.048  16.323  1.5553  0.9423  0.6169
12078TIP3    H257726   4.134   1.932  16.241 -1.7734 -1.0576  1.1414
12079TIP3   OH257727   5.695   1.505  14.906 -0.1594  0.5882  0.8860
12079TIP3    H157728   5.696   1.601  14.911  0.7855  0.6721 -0.5593
12079TIP3    H257729   5.605   1.484  14.880 -0.9024  0.9516  3.0380
12080TIP3   OH257730   6.210   2.280  13.202  0.1145  0.4240 -0.0594
12080TIP3    H157731   6.190   2.248  13.114 -0.8631 -0.5191  0.5030
12080TIP3    H257732   6.289   2.332  13.191 -0.2654  0.6798 -1.5755
12081TIP3   OH257733   2.057   2.065  16.511  0.1753 -0.3102 -0.4501
12081TIP3    H157734   2.126   2.038  16.451  0.7016  0.7199 -0.3229
12081TIP3    H257735   2.103   2.088  16.592 -0.1497  1.8917 -0.8774
12082TIP3   OH257736   1.495   1.741  15.029  0.3479 -0.3061  0.1129
12082TIP3    H157737   1.455   1.693  15.102 -2.8230  0.8079 -0.7998
12082TIP3    H257738   1.510   1.675  14.962 -0.6125 -0.6514  0.2297
12083TIP3   OH257739   6.288   4.245  11.929 -0.4368  0.1329  0.5660
12083TIP3    H157740   6.213   4.200  11.968 -0.8359  0.4225  0.1165
12083TIP3    H257741   6.275   4.238  11.835 -0.4658  1.1412  0.4908
12084TIP3   OH257742   4.424   4.084   0.488 -0.9366 -0.2010  0.1572
12084TIP3    H157743   4.348   4.109   0.435 -0.7260  0.0635 -0.0231
12084TIP3    H257744   4.489   4.053   0.424 -1.2696 -1.4190  0.3941
12085TIP3   OH257745   5.965   0.607  16.056  0.4337  0.8210  0.6730
12085TIP3    H157746   5.905   0.667  16.012 -0.4981 -0.0474  0.7563
12085TIP3    H257747   5.925   0.521  16.046  2.7269 -0.0879 -1.1757
12086TIP3   OH257748   0.434   6.203   5.433  0.2174 -0.1426 -0.6528
12086TIP3    H157749   0.527   6.214   5.449 -0.2384  1.1532  1.3571
12086TIP3    H257750   0.395   6.198   5.521 -1.4385 -2.2627 -1.4457
12087TIP3   OH257751   3.190   5.712  14.703  0.2301  0.0049 -0.4599
12087TIP3    H157752   3.110   5.746  14.663  0.2073 -0.4466 -0.8062
12087TIP3    H257753   3.168   5.623  14.729  0.9637 -0.5208 -1.5982
12088TIP3   OH257754   0.461   6.429   2.314 -0.1528  0.8451 -0.2747
12088TIP3    H157755   0.525   6.501   2.309 -1.3621  1.8937 -1.1109
12088TIP3    H257756   0.397   6.450   2.246 -1.1296 -0.4536  0.2287
12089TIP3   OH257757   4.665   6.499   2.965  0.0598  0.5184  0.3073
12089TIP3    H157758   4.651   6.568   2.899  0.4675 -0.3730 -0.7379
12089TIP3    H257759   4.581   6.491   3.010  0.1699  2.0873  0.8278
12090TIP3   OH257760   1.453   0.000   5.875 -0.3157 -0.5590 -0.4762
12090TIP3    H157761   1.448   0.030   5.966  0.9969 -0.6264 -0.3778
12090TIP3    H257762   1.545  -0.023   5.862 -0.5322 -0.7293 -1.7683
12091TIP3   OH257763   1.414   4.180   3.761  0.3968  0.1049 -0.2711
12091TIP3    H157764   1.384   4.192   3.852 -0.8707  0.2645 -0.6927
12091TIP3    H257765   1.508   4.192   3.765  0.6485 -2.0968  1.4275
12092TIP3   OH257766   3.758   0.537  14.529  0.0489 -0.0497  0.5211
12092TIP3    H157767   3.772   0.615  14.475 -1.9671 -0.6951 -0.9924
12092TIP3    H257768   3.810   0.553  14.608  2.0232  1.5130 -1.0196
12093TIP3   OH257769   4.136   0.809  16.963  0.4274  0.2728  0.1681
12093TIP3    H157770   4.051   0.852  16.977  0.5781  0.6314 -0.0115
12093TIP3    H257771   4.139   0.793  16.869  0.6536  0.4593  0.1429
12094TIP3   OH257772   5.472   4.198  14.351 -0.6824  0.7300  0.1273
12094TIP3    H157773   5.462   4.112  14.312 -0.5573  1.8027 -2.3183
12094TIP3    H257774   5.383   4.234  14.353 -0.6824  0.7026  0.8109
12095TIP3   OH257775   4.815   2.459   0.996  0.3993 -0.0056  0.0926
12095TIP3    H157776   4.902   2.498   0.986  0.5458 -0.5214 -0.7176
12095TIP3    H257777   4.756   2.524   0.957  0.5055 -0.0047 -0.0700
12096TIP3   OH257778   4.572   1.926   4.362  0.0258  0.8082  0.4515
12096TIP3    H157779   4.493   1.978   4.373 -0.6068 -0.0392 -0.0798
12096TIP3    H257780   4.556   1.872   4.284  0.3836 -0.6896  1.3863
12097TIP3   OH257781   4.453   5.567  11.021  0.0668  0.2196 -0.1758
12097TIP3    H157782   4.466   5.588  10.929  0.3259 -0.9985 -0.4150
12097TIP3    H257783   4.357   5.565  11.032  0.0376  0.4788 -0.3892
12098TIP3   OH257784   2.146   4.546   2.284 -0.4429 -0.1764 -0.3456
12098TIP3    H157785   2.236   4.577   2.279 -0.9336  1.3194 -0.1301
12098TIP3    H257786   2.152   4.460   2.326  0.9019 -0.2447 -0.6592
12099TIP3   OH257787   2.261   2.154  13.671  0.2182  0.2119  0.0267
12099TIP3    H157788   2.349   2.182  13.696  1.0123 -2.8854  0.9969
12099TIP3    H257789   2.276   2.084  13.607 -1.5522  0.2811 -0.4802
12100TIP3   OH257790   2.352   3.660   2.552 -0.2355  0.8621 -0.0983
12100TIP3    H157791   2.388   3.619   2.474 -0.4187 -0.5221  0.5312
12100TIP3    H257792   2.308   3.739   2.519 -0.5911  0.1259 -1.4197
12101TIP3   OH257793   3.889   1.571   2.030  0.3055 -0.0704  0.4914
12101TIP3    H157794   3.983   1.555   2.019  0.2831  0.0503  0.0988
12101TIP3    H257795   3.858   1.593   1.942 -0.5866 -2.6672  0.1090
12102TIP3   OH257796   2.960   5.435   5.998 -0.1908  0.2403  0.1689
12102TIP3    H157797   3.018   5.414   6.071 -1.2768 -2.7991  0.2145
12102TIP3    H257798   2.984   5.373   5.930 -1.3919  0.9338 -0.9018
12103TIP3   OH257799   6.753   3.277  12.154  0.0466 -0.0726  0.5564
12103TIP3    H157800   6.758   3.186  12.184 -0.5099  0.0170  0.9470
12103TIP3    H257801   6.793   3.276  12.068  2.1840 -0.2428  1.5267
12104TIP3   OH257802   0.737   1.457   0.062  0.3729 -0.2304  0.3153
12104TIP3    H157803   0.763   1.432  -0.027  0.7327  1.7436 -0.1451
12104TIP3    H257804   0.778   1.390   0.118 -2.1473 -3.1265 -1.1532
12105TIP3   OH257805   4.435   6.684   6.092  0.0033 -0.0841 -0.0753
12105TIP3    H157806   4.524   6.654   6.109 -0.2189 -0.5971  0.2038
12105TIP3    H257807   4.442   6.780   6.088  0.3342 -0.0457  1.3050
12106TIP3   OH257808   2.783   2.388  14.288  0.1358 -0.1700 -0.8941
12106TIP3    H157809   2.817   2.370  14.200 -0.7092  0.7962 -1.4404
12106TIP3    H257810   2.858   2.376  14.346  0.4406 -1.9085 -1.6171
12107TIP3   OH257811   0.064   4.182   3.130  0.6270  0.8282 -0.5793
12107TIP3    H157812   0.077   4.267   3.171  0.5233  1.0519 -1.0100
12107TIP3    H257813  -0.000   4.197   3.061 -1.0729 -0.0588  0.7805
12108TIP3   OH257814   6.534   5.418   3.788  0.0493 -0.2256  0.2120
12108TIP3    H157815   6.528   5.347   3.851  0.5982 -1.0887 -0.7004
12108TIP3    H257816   6.457   5.407   3.732  0.3541 -0.3389 -0.1809
12109TIP3   OH257817   2.138   3.638  13.077  0.2074  0.1136 -0.0797
12109TIP3    H157818   2.102   3.683  13.153 -2.7975 -0.0888 -1.3198
12109TIP3    H257819   2.230   3.665  13.074 -0.5324  2.9984  1.4958
12110TIP3   OH257820   4.894   5.747  11.152  0.1375 -0.0443  0.0099
12110TIP3    H157821   4.900   5.834  11.193  0.6023  0.5757 -1.3372
12110TIP3    H257822   4.979   5.706  11.172  1.1900  1.0438 -2.0112
12111TIP3   OH257823   1.893   0.922  11.631 -0.3999  0.5591 -0.6995
12111TIP3    H157824   1.933   0.970  11.559  3.6452 -2.2827 -0.5126
12111TIP3    H257825   1.837   0.857  11.588  0.3884  0.2359 -1.2608
12112TIP3   OH257826   0.260   2.054   2.199 -0.8718  0.2344  0.0143
12112TIP3    H157827   0.340   2.096   2.230 -1.3198  2.3205 -1.5832
12112TIP3    H257828   0.203   2.052   2.276 -0.9177  2.7877  0.0795
12113TIP3   OH257829   4.611   6.180   3.923 -0.2251  0.2285 -0.7470
12113TIP3    H157830   4.515   6.180   3.922 -0.2291 -0.5548 -0.2770
12113TIP3    H257831   4.633   6.265   3.962 -0.7262  0.3430 -0.6985
12114TIP3   OH257832   0.044   5.959  16.264  0.2930  0.0289  0.5453
12114TIP3    H157833   0.129   5.991  16.296  0.5462 -1.1767  1.1244
12114TIP3    H257834   0.057   5.865  16.254 -0.7677 -0.0528 -0.0585
12115TIP3   OH257835   6.387   1.303   3.651 -0.4788 -0.3268 -0.4922
12115TIP3    H157836   6.309   1.325   3.702  0.3515 -0.0739  0.7000
12115TIP3    H257837   6.437   1.244   3.709  1.2286  1.1973 -0.3712
12116TIP3   OH257838   6.046   0.564  15.614 -0.3126 -0.2833 -0.8906
12116TIP3    H157839   5.989   0.487  15.606  0.0497 -0.6726  0.1378
12116TIP3    H257840   5.987   0.636  15.635 -0.6657 -0.2662 -1.9543
12117TIP3   OH257841   0.410   0.167   3.460 -0.1124  0.0183 -0.6107
12117TIP3    H157842   0.434   0.082   3.497 -2.7810 -0.9316 -0.9317
12117TIP3    H257843   0.478   0.185   3.395  1.1025 -1.3211  0.2466
12118TIP3   OH257844   4.824   3.645   1.777  0.8139 -0.3211  0.8180
12118TIP3    H157845   4.872   3.615   1.854 -0.8130 -1.3189  1.4817
12118TIP3    H257846   4.735   3.662   1.810  0.1071 -0.7246 -0.8225
12119TIP3   OH257847   5.612   5.725  15.175 -0.1298  0.4461 -0.8254
12119TIP3    H157848   5.528   5.733  15.221 -0.0634 -0.6536 -0.5022
12119TIP3    H257849   5.588   5.722  15.082 -0.4420  0.2642 -0.7405
12120TIP3   OH257850   2.846   4.265  12.793 -0.2024 -0.0332  0.1689
12120TIP3    H157851   2.841   4.249  12.699 -0.4711  0.1270  0.1566
12120TIP3    H257852   2.893   4.189  12.827  1.5791  0.8073 -0.3416
12121TIP3   OH257853   1.603   0.651  14.402 -0.6188  0.3403  0.3088
12121TIP3    H157854   1.645   0.611  14.477 -0.0408  0.0987 -0.1399
12121TIP3    H257855   1.548   0.721  14.439 -1.0870 -0.4055  1.0272
12122TIP3   OH257856   1.342   2.692   2.205  0.1278 -0.5818 -0.6793
12122TIP3    H157857   1.413   2.735   2.252 -0.1542 -0.1357 -0.6571
12122TIP3    H257858   1.270   2.687   2.268 -0.3886  0.3798 -1.1751
12123TIP3   OH257859   1.386   3.126  11.850 -0.4261 -0.0245  0.1406
12123TIP3    H157860   1.371   3.120  11.756 -0.0894 -0.0953  0.0903
12123TIP3    H257861   1.481   3.127  11.859 -0.4576  0.1340  0.4702
12124TIP3   OH257862   1.005   6.663  14.159  0.5792 -0.3651  0.6028
12124TIP3    H157863   0.968   6.653  14.072  0.6394 -0.7494  0.6210
12124TIP3    H257864   1.047   6.579  14.177 -0.1801 -0.5876  1.3556
12125TIP3   OH257865   4.893   4.919   2.332 -0.1478 -0.1696  0.2923
12125TIP3    H157866   4.946   4.955   2.403 -0.1230  0.3212  0.0313
12125TIP3    H257867   4.897   4.986   2.263  1.1057 -1.3224 -0.7772
12126TIP3   OH257868   6.295   2.036  16.693 -0.1579  0.3316 -0.6121
12126TIP3    H157869   6.357   2.031  16.765 -0.9142  1.0002  0.1045
12126TIP3    H257870   6.217   1.991  16.726 -0.6943  1.1139 -0.7975
12127TIP3   OH257871   4.388   0.386  12.956 -0.6189 -0.2032 -0.6106
12127TIP3    H157872   4.428   0.317  13.009  1.0323  0.4311 -1.0123
12127TIP3    H257873   4.296   0.388  12.985  0.2676  0.2486  2.3681
12128TIP3   OH257874   4.792   4.326   2.019  0.7201 -0.0082  0.6425
12128TIP3    H157875   4.791   4.397   1.955  0.9222 -0.9083 -0.3637
12128TIP3    H257876   4.742   4.255   1.978  0.1933 -0.3266  1.7886
12129TIP3   OH257877   0.303   0.064  14.251  0.4264  0.2853 -0.3924
12129TIP3    H157878   0.257   0.133  14.297  0.0065  0.8138 -1.5887
12129TIP3    H257879   0.239  -0.006  14.241  0.8254 -0.2635  0.7377
12130TIP3   OH257880   1.279   2.152  11.777  0.3757 -0.2791  0.0110
12130TIP3    H157881   1.230   2.226  11.741  0.1936 -0.8595 -0.9627
12130TIP3    H257882   1.229   2.125  11.854  0.6182  0.8087  0.5553
12131TIP3   OH257883   4.887   5.044  12.736 -0.2997 -0.3659 -0.1989
12131TIP3    H157884   4.794   5.066  12.729 -0.0199 -0.0138 -3.8150
12131TIP3    H257885   4.889   4.948  12.736 -0.6844 -0.3886  1.0517
12132TIP3   OH257886   6.469   1.813   1.494  0.2623 -0.1900  0.3144
12132TIP3    H157887   6.481   1.880   1.562  2.2922  0.8496 -1.0185
12132TIP3    H257888   6.374   1.810   1.481  0.1281  2.8632  0.0413
12133TIP3   OH257889   4.737   5.894  14.215  0.4902  0.3206  0.1243
12133TIP3    H157890   4.777   5.945  14.145  0.1430  0.4987  0.0514
12133TIP3    H257891   4.713   5.959  14.281  1.3819  0.0837  0.6908
12134TIP3   OH257892   4.988   5.289   4.767 -0.2214 -0.0646 -0.1855
12134TIP3    H157893   4.909   5.342   4.754 -0.8189 -0.6168  1.0944
12134TIP3    H257894   5.003   5.248   4.682  0.1995  2.0713 -1.1710
12135TIP3   OH257895   3.134   0.501   2.666  0.1440 -0.1501  0.0188
12135TIP3    H157896   3.144   0.416   2.623 -2.5819  0.1811 -1.3647
12135TIP3    H257897   3.080   0.552   2.607 -0.2444  1.7611  1.9450
12136TIP3   OH257898   5.514   1.196   3.535 -0.1213 -0.0261  0.4014
12136TIP3    H157899   5.554   1.279   3.511  0.3070  0.0071  1.2421
12136TIP3    H257900   5.437   1.220   3.586 -0.4949 -0.1289 -0.1031
12137TIP3   OH257901   3.974   0.647   2.793 -0.2129  0.0254 -0.4494
12137TIP3    H157902   4.037   0.635   2.865 -0.9588 -0.9116  0.0536
12137TIP3    H257903   3.894   0.606   2.825 -1.0229  1.0461 -1.1727
12138TIP3   OH257904   4.951   4.063   3.229  0.3854  0.2270  0.2943
12138TIP3    H157905   4.874   4.051   3.174 -0.4813  0.9011  1.3428
12138TIP3    H257906   5.008   3.989   3.208 -0.2598  0.0897 -0.9595
12139TIP3   OH257907   4.286   0.151   1.999  0.0299  0.1959 -0.1992
12139TIP3    H157908   4.352   0.140   2.067  0.5642 -1.7966 -1.0211
12139TIP3    H257909   4.204   0.125   2.042  0.5211 -2.1073 -0.5980
12140TIP3   OH257910   2.538   6.140  14.968  0.0269  0.4605  0.4204
12140TIP3    H157911   2.518   6.221  15.015  1.6746  0.2713  1.4792
12140TIP3    H257912   2.620   6.159  14.922  0.9263 -0.9063  1.4236
12141TIP3   OH257913   2.261   2.505   5.228  0.3713  0.5502  0.6240
12141TIP3    H157914   2.320   2.580   5.240  1.4951  0.1287 -2.0439
12141TIP3    H257915   2.178   2.534   5.266  0.2513  3.8938 -1.9283
12142TIP3   OH257916   3.536   2.276  13.061  0.1250  0.3340  0.1237
12142TIP3    H157917   3.448   2.263  13.096 -0.3333 -0.1809 -1.1718
12142TIP3    H257918   3.590   2.293  13.137 -0.9276 -0.3172  1.0319
12143TIP3   OH257919   3.417   5.903   6.875 -0.7566 -0.6012  0.3422
12143TIP3    H157920   3.326   5.907   6.904 -0.4083 -0.3312  1.4392
12143TIP3    H257921   3.446   5.994   6.874 -0.6761 -0.6382 -0.5927
12144TIP3   OH257922   1.279   6.420   1.040 -0.2560 -0.8766 -0.3012
12144TIP3    H157923   1.316   6.508   1.048 -0.6182 -0.5973 -1.6002
12144TIP3    H257924   1.281   6.386   1.129  2.0255 -0.4319 -0.1376
12145TIP3   OH257925   6.244   2.898  13.624 -0.7163 -0.2192  0.1421
12145TIP3    H157926   6.230   2.831  13.557  0.4800 -0.7116  0.3672
12145TIP3    H257927   6.318   2.865  13.675 -1.1669  0.4925  1.2706
12146TIP3   OH257928   3.356   0.021  10.717  0.1070  0.0583  0.0157
12146TIP3    H157929   3.267   0.043  10.690 -0.8975  1.4105  4.1141
12146TIP3    H257930   3.410   0.088  10.676 -0.8963 -0.0614 -1.5313
12147TIP3   OH257931   3.053   6.196   1.792  0.7638 -0.6751  0.0456
12147TIP3    H157932   2.973   6.245   1.811  0.6114 -0.9225  0.0404
12147TIP3    H257933   3.109   6.258   1.745  0.4675 -0.5919 -0.1912
12148TIP3   OH257934   3.342   3.720  13.399  0.1410  0.4199 -0.3384
12148TIP3    H157935   3.362   3.772  13.322  2.4132  0.7481  0.4282
12148TIP3    H257936   3.352   3.629  13.371  1.0518  0.5421 -0.4069
12149TIP3   OH257937   6.191   5.501   2.268 -0.0361  0.7324  0.4273
12149TIP3    H157938   6.267   5.442   2.272  0.5170  1.2615 -1.4623
12149TIP3    H257939   6.153   5.497   2.355  2.1307  0.3877  1.3961
12150TIP3   OH257940   3.754   1.447   0.124 -0.1484  0.4932 -0.1498
12150TIP3    H157941   3.805   1.468   0.046  0.7893  0.2975  0.3992
12150TIP3    H257942   3.739   1.352   0.118 -0.2158  0.5066 -0.1838
12151TIP3   OH257943   6.680   4.519  14.288 -0.2591 -0.0050 -0.2512
12151TIP3    H157944   6.705   4.502  14.197 -1.2799 -0.0662 -0.5275
12151TIP3    H257945   6.750   4.479  14.340  1.6483  2.2221 -1.0327
12152TIP3   OH257946   4.062   5.941  12.315  0.4899 -0.2312  0.6718
12152TIP3    H157947   4.119   5.866  12.302  1.0955  0.4364 -0.6544
12152TIP3    H257948   4.086   6.002  12.244 -1.2931  0.4011  0.5831
12153TIP3   OH257949   4.921   6.518   1.836  0.1953 -0.3549  0.1229
12153TIP3    H157950   5.012   6.497   1.861  0.0540  0.5851  1.5294
12153TIP3    H257951   4.921   6.515   1.741  1.6281 -0.7351  0.1149
12154TIP3   OH257952   6.281   0.514   4.672 -0.1442  0.4005 -0.2169
12154TIP3    H157953   6.356   0.525   4.730 -0.4963 -0.2722  0.3813
12154TIP3    H257954   6.212   0.566   4.713 -0.3638  0.0078 -0.0833
12155TIP3   OH257955   5.105   2.896  13.484  0.1926 -0.0970 -0.1491
12155TIP3    H157956   5.141   2.980  13.455  0.2252 -0.6590 -1.7661
12155TIP3    H257957   5.174   2.833  13.467  0.3833 -0.3880  1.6029
12156TIP3   OH257958   4.279   4.737  16.826 -0.1789  0.0320 -0.4887
12156TIP3    H157959   4.305   4.660  16.877 -0.1294  0.7762  0.6409
12156TIP3    H257960   4.342   4.804  16.851 -1.3259  0.9586 -0.0794
12157TIP3   OH257961   6.368   3.365  13.065  0.2548 -0.0380 -0.0542
12157TIP3    H157962   6.411   3.284  13.093 -0.9840  0.3737  3.2547
12157TIP3    H257963   6.285   3.337  13.027  0.3679 -0.3964 -0.0377
12158TIP3   OH257964   6.548   4.800   3.375  0.6235 -0.1327 -0.1986
12158TIP3    H157965   6.545   4.877   3.319  0.2886 -0.8974 -1.2310
12158TIP3    H257966   6.570   4.835   3.462  1.4102  1.0186 -0.8423
12159TIP3   OH257967   0.975   4.598   0.252  0.1121 -0.3690  0.0730
12159TIP3    H157968   0.937   4.686   0.242  0.4951 -0.1619  0.4261
12159TIP3    H257969   0.977   4.563   0.163  2.5977  1.0828 -0.4780
12160TIP3   OH257970   4.472   6.208   2.990 -0.2535 -0.1695 -0.1057
12160TIP3    H157971   4.507   6.294   3.015  1.8103 -0.9468 -0.1679
12160TIP3    H257972   4.517   6.147   3.049 -1.0420 -1.2890 -0.6595
12161TIP3   OH257973   4.932   3.548  15.493  0.4422 -0.6609  0.7816
12161TIP3    H157974   4.865   3.613  15.471  0.7176 -0.8688 -0.7578
12161TIP3    H257975   4.960   3.571  15.581  2.3924  2.9699 -0.6904
12162TIP3   OH257976   5.854   3.791  10.899  0.6237  0.5651  0.5956
12162TIP3    H157977   5.786   3.858  10.889  0.6171  0.3788 -0.6447
12162TIP3    H257978   5.812   3.710  10.871  1.4107  0.4740 -0.3395
12163TIP3   OH257979   3.497   5.843  13.898  0.7344 -0.0122 -0.2316
12163TIP3    H157980   3.435   5.789  13.850  0.8143 -0.4540  0.1612
12163TIP3    H257981   3.554   5.781  13.943  0.2263  0.3907  0.9967
12164TIP3   OH257982   0.801   5.997   4.630  0.3593  0.0214 -0.1250
12164TIP3    H157983   0.715   6.034   4.648  0.2147 -0.9611  1.3496
12164TIP3    H257984   0.784   5.904   4.613  1.1659 -0.2901  0.7098
12165TIP3   OH257985   3.290   6.097   4.387  0.2422 -0.2693 -0.0191
12165TIP3    H157986   3.276   6.042   4.310  0.3069  0.7807 -0.7998
12165TIP3    H257987   3.222   6.070   4.449  0.6436 -1.6236 -0.1499
12166TIP3   OH257988   1.446   5.636   4.562  0.6867 -0.1776 -0.0239
12166TIP3    H157989   1.489   5.661   4.644 -0.5329 -0.8548  0.8528
12166TIP3    H257990   1.361   5.680   4.566 -0.1160 -1.6886 -0.0436
12167TIP3   OH257991   4.553   3.872   3.794 -0.4605  0.2703  0.0373
12167TIP3    H157992   4.585   3.879   3.884  0.2092  2.0369 -0.3160
12167TIP3    H257993   4.465   3.911   3.797 -1.1748 -1.3227  0.2789
12168TIP3   OH257994   3.354   0.887  14.176  0.2645  0.1968 -0.4568
12168TIP3    H157995   3.338   0.818  14.113  1.4040 -0.7034  0.2166
12168TIP3    H257996   3.330   0.848  14.261 -0.6676  1.1822 -0.2503
12169TIP3   OH257997   6.541   6.660  13.539 -0.2128 -0.7101 -0.2133
12169TIP3    H157998   6.596   6.737  13.553 -0.4023 -0.6748  0.3636
12169TIP3    H257999   6.579   6.616  13.464 -1.0897  0.8491 -1.5904
12170TIP3   OH258000   1.516   6.301   3.249 -0.2381 -0.2582  0.5323
12170TIP3    H158001   1.529   6.355   3.327 -0.5109  1.0280 -0.2982
12170TIP3    H258002   1.578   6.335   3.185  1.0045 -2.2502  0.6386
12171TIP3   OH258003   0.237   4.814   1.445  0.2249 -0.0504 -0.1392
12171TIP3    H158004   0.209   4.761   1.370 -0.1511 -1.5597  1.0438
12171TIP3    H258005   0.156   4.838   1.489  0.5240 -0.6148  0.7372
12172TIP3   OH258006   5.139   3.033   6.171 -0.2322  0.1748  0.5578
12172TIP3    H158007   5.180   2.946   6.169  1.8594  1.1214  0.5846
12172TIP3    H258008   5.147   3.061   6.261  0.0909  0.8476  0.3198
12173TIP3   OH258009   1.298   2.106   2.397  0.2804 -1.4697  0.1730
12173TIP3    H158010   1.221   2.060   2.364 -0.0622 -0.5681 -0.2888
12173TIP3    H258011   1.355   2.036   2.430 -0.9477 -2.0924  0.9904
12174TIP3   OH258012   0.112   1.265   4.535  0.2485  0.5529  0.4264
12174TIP3    H158013   0.112   1.357   4.508  0.4543 -0.0992 -1.9371
12174TIP3    H258014   0.168   1.222   4.470 -1.1770 -1.5094  0.5311
12175TIP3   OH258015   2.019   5.951   0.669  0.1831  0.3436  0.1478
12175TIP3    H158016   1.944   5.965   0.612  0.8890 -1.4588 -1.3095
12175TIP3    H258017   1.987   5.894   0.739 -0.0385  0.3143  0.0213
12176TIP3   OH258018   1.052   6.474  13.142 -0.2727  0.3266 -0.5748
12176TIP3    H158019   1.007   6.544  13.095  1.0468 -0.3593 -2.9363
12176TIP3    H258020   1.049   6.501  13.234 -2.2077  2.0888 -1.1163
12177TIP3   OH258021   0.656   4.993  16.234  0.0848  0.3559 -0.3483
12177TIP3    H158022   0.751   4.993  16.243 -0.0416 -0.7044  1.2125
12177TIP3    H258023   0.632   5.086  16.232  1.2952  0.6535 -2.6792
12178TIP3   OH258024   0.362   5.715  12.491  0.1052 -0.0453 -0.2086
12178TIP3    H158025   0.320   5.698  12.575 -0.8549  1.8519 -0.2676
12178TIP3    H258026   0.301   5.773  12.445  1.9404  1.2915 -1.0174
12179TIP3   OH258027   4.044   5.316  10.493 -0.4982 -0.4663 -0.0334
12179TIP3    H158028   4.117   5.274  10.539 -0.4263 -0.1567  0.1338
12179TIP3    H258029   3.970   5.308  10.552  0.2181  2.2722  1.2830
12180TIP3   OH258030   5.859   2.170   1.256  0.0313  0.4659  0.1292
12180TIP3    H158031   5.881   2.125   1.337 -0.0392 -0.8269 -0.5657
12180TIP3    H258032   5.780   2.220   1.277 -2.1656 -2.7533 -0.1351
12181TIP3   OH258033   1.264   2.833  16.127  0.3797  0.0285  0.3639
12181TIP3    H158034   1.302   2.892  16.062 -0.3616 -0.4219 -0.4798
12181TIP3    H258035   1.178   2.872  16.147 -0.9280 -1.7678 -1.6047
12182TIP3   OH258036   1.725   4.720  11.980  0.1205 -0.0126  0.3532
12182TIP3    H158037   1.806   4.771  11.974  1.0129 -1.3814  0.6113
12182TIP3    H258038   1.752   4.636  12.018 -1.4110 -0.4943  0.3978
12183TIP3   OH258039   2.190   3.805   5.789 -0.2385 -0.3469 -0.4087
12183TIP3    H158040   2.254   3.752   5.741  0.7580 -0.1133  0.6325
12183TIP3    H258041   2.232   3.822   5.874 -1.2472  0.6958 -0.1061
12184TIP3   OH258042   2.966   5.882  15.680 -0.1019 -0.3003 -0.1605
12184TIP3    H158043   3.001   5.847  15.598 -0.3405  2.0647 -1.3319
12184TIP3    H258044   3.043   5.897  15.735  0.2595 -0.0039 -0.7398
12185TIP3   OH258045   3.320   5.479   2.907 -0.1513  0.1208 -0.2212
12185TIP3    H158046   3.381   5.552   2.901 -0.9565  0.9361  1.1351
12185TIP3    H258047   3.280   5.473   2.820 -0.5118  1.6927 -0.1720
12186TIP3   OH258048   1.222   6.553   5.256 -0.5800  0.2439 -0.0548
12186TIP3    H158049   1.210   6.628   5.197  0.5701  0.3975 -0.1028
12186TIP3    H258050   1.133   6.525   5.277 -1.0098  0.8759 -0.9918
12187TIP3   OH258051   6.716   4.163   4.112  0.2344  0.4832  0.4961
12187TIP3    H158052   6.749   4.073   4.113 -0.1909  0.3244  0.3092
12187TIP3    H258053   6.626   4.156   4.079  1.0725  1.2603 -2.0944
12188TIP3   OH258054   4.431   6.290   5.805 -0.4951  0.2951 -0.2128
12188TIP3    H158055   4.424   6.382   5.829 -0.3693 -0.3058  2.2432
12188TIP3    H258056   4.494   6.288   5.734 -2.1723  2.3329 -1.8119
12189TIP3   OH258057   5.858   0.948   0.569  0.1550  0.0470  0.0561
12189TIP3    H158058   5.815   1.022   0.527 -2.3460 -2.2839 -1.6630
12189TIP3    H258059   5.804   0.929   0.646  0.3525 -0.4540  0.0726
12190TIP3   OH258060   5.940   1.536  12.452  0.1892  0.2587  0.1798
12190TIP3    H158061   5.894   1.617  12.429  0.1237  0.3965  0.8008
12190TIP3    H258062   5.880   1.466  12.427  0.8236  0.3507 -1.6842
12191TIP3   OH258063   4.177   4.088  16.614  0.2686  0.8683  0.1039
12191TIP3    H158064   4.117   4.161  16.628  0.3443  1.1478 -1.0310
12191TIP3    H258065   4.203   4.095  16.522  0.0714 -0.7454 -0.0814
12192TIP3   OH258066   2.501   1.940  17.226 -0.0361 -0.0526 -0.1837
12192TIP3    H158067   2.484   1.882  17.152 -2.7406  0.3614  0.0436
12192TIP3    H258068   2.577   1.991  17.201 -0.7863 -0.0769 -2.5810
12193TIP3   OH258069   3.457   4.762  12.750 -0.0268 -0.8377  0.4786
12193TIP3    H158070   3.528   4.748  12.813  1.3449  0.3825 -0.7315
12193TIP3    H258071   3.400   4.827  12.791 -0.3588 -1.7002  1.3915
12194TIP3   OH258072   4.147   4.893   5.623  0.4841 -0.4071 -0.5963
12194TIP3    H158073   4.211   4.915   5.555 -0.7488 -0.4750 -1.8081
12194TIP3    H258074   4.100   4.817   5.588 -0.9039  0.2387 -0.1725
12195TIP3   OH258075   1.489   1.211   4.786 -0.1738  0.3551  0.1711
12195TIP3    H158076   1.492   1.128   4.834 -1.1482  0.4096  0.3240
12195TIP3    H258077   1.484   1.278   4.853  2.4806  0.6733  0.1212
12196TIP3   OH258078   3.855   2.525   3.094  0.1540  0.5560 -0.1195
12196TIP3    H158079   3.811   2.496   3.014 -1.6958 -0.3284  1.1807
12196TIP3    H258080   3.796   2.590   3.131  0.8802  0.7710  0.6669
12197TIP3   OH258081   3.477   6.119   0.598  0.0309  0.0307 -0.1588
12197TIP3    H158082   3.514   6.200   0.633  0.8822 -0.1346 -0.6636
12197TIP3    H258083   3.450   6.142   0.509  0.7234 -0.3652 -0.4726
12198TIP3   OH258084   4.746   2.366   0.335 -0.0194 -0.0194  0.9239
12198TIP3    H158085   4.761   2.342   0.244 -0.9427 -0.2554  0.8287
12198TIP3    H258086   4.832   2.357   0.377  0.6238  1.0221 -0.1237
12199TIP3   OH258087   2.235   0.810  11.615  0.0164 -0.0287  0.1256
12199TIP3    H158088   2.281   0.891  11.639  0.1221  0.8949 -2.9865
12199TIP3    H258089   2.305   0.751  11.589 -0.2890 -0.0028 -0.7486
12200TIP3   OH258090   1.725   6.000   0.168 -0.6359  0.3565 -0.1190
12200TIP3    H158091   1.659   5.933   0.148 -0.3536 -0.0198  0.1829
12200TIP3    H258092   1.772   6.013   0.085 -0.6354  0.1117 -0.1581
12201TIP3   OH258093   5.924   3.554  14.732  0.3840 -0.0289  0.4391
12201TIP3    H158094   5.842   3.588  14.696  0.5660  1.2804  1.2172
12201TIP3    H258095   5.897   3.502  14.808  0.1505 -1.1895 -0.4146
12202TIP3   OH258096   6.298   2.504  11.441  0.0918  0.3508  0.0769
12202TIP3    H158097   6.264   2.573  11.384 -1.9868 -2.7685 -2.6634
12202TIP3    H258098   6.326   2.435  11.380 -1.3801 -2.7506  2.7736
12203TIP3   OH258099   3.714   5.999   3.600  0.4756 -0.9456  0.1771
12203TIP3    H158100   3.730   6.023   3.508 -2.4626 -0.2276 -0.1837
12203TIP3    H258101   3.672   5.914   3.596 -1.5401  0.0055  0.7304
12204TIP3   OH258102   5.174   5.770   2.440  0.4322 -0.7777 -0.2363
12204TIP3    H158103   5.152   5.746   2.530  2.3464  1.4584  0.8910
12204TIP3    H258104   5.102   5.735   2.387 -0.8960 -1.8312  2.1871
12205TIP3   OH258105   1.101   0.782  16.470  0.0690 -0.1628  0.4144
12205TIP3    H158106   1.188   0.819  16.463 -0.5636  1.3062  0.2465
12205TIP3    H258107   1.094   0.724  16.394  1.2546 -1.0769  0.9859
12206TIP3   OH258108   4.091   1.883   3.518 -0.0062 -0.0502  0.0401
12206TIP3    H158109   4.038   1.961   3.539 -0.1883 -0.1449 -0.0636
12206TIP3    H258110   4.100   1.837   3.602 -0.1596 -0.0757  0.0439
12207TIP3   OH258111   1.985   4.058  14.432  0.5519  0.0751 -0.0931
12207TIP3    H158112   1.947   3.971  14.449  0.2070  0.4770  1.2454
12207TIP3    H258113   1.918   4.104  14.382 -0.1875  0.3177  1.1001
12208TIP3   OH258114   1.446   0.774   3.885  0.2138  0.1521 -0.7023
12208TIP3    H158115   1.498   0.826   3.824 -1.1187  0.3574 -1.7025
12208TIP3    H258116   1.390   0.721   3.828 -0.7156  0.0018  0.3421
12209TIP3   OH258117   0.478   5.109  13.500  0.1876  0.6954 -0.2706
12209TIP3    H158118   0.390   5.073  13.513 -0.1766  1.2397 -1.1767
12209TIP3    H258119   0.491   5.107  13.406  1.0478  0.8701 -0.1586
12210TIP3   OH258120   6.034   1.315  12.966 -0.8376 -0.3268  0.0656
12210TIP3    H158121   5.953   1.332  13.014 -0.7918 -1.5229  0.5745
12210TIP3    H258122   6.074   1.242  13.012  0.1313 -0.2736 -0.6830
12211TIP3   OH258123   0.854   2.013  16.723  0.2147 -0.2454  0.7377
12211TIP3    H158124   0.797   2.023  16.647 -2.1163 -1.6548  2.2193
12211TIP3    H258125   0.923   1.954  16.693 -0.1679 -0.0607 -0.5393
12212TIP3   OH258126   2.018   1.172   1.015  0.4320 -0.4735  0.1949
12212TIP3    H158127   2.045   1.187   1.106  0.9426 -0.2717  0.0091
12212TIP3    H258128   1.951   1.239   0.999 -0.2116 -0.9998  0.6677
12213TIP3   OH258129   2.011   4.078  16.304 -0.1893  0.3983  0.2297
12213TIP3    H158130   1.974   4.031  16.229  0.6152  0.9927 -0.5435
12213TIP3    H258131   2.050   4.009  16.358 -0.6502 -0.0170  0.0346
12214TIP3   OH258132   2.245   1.534   5.658 -0.1388 -0.6311 -0.6078
12214TIP3    H158133   2.161   1.528   5.613  0.2764 -1.2340 -1.2958
12214TIP3    H258134   2.284   1.447   5.650  0.7986 -0.2041 -0.7659
12215TIP3   OH258135   3.703   2.757   5.223  0.3265 -0.1264  0.3216
12215TIP3    H158136   3.769   2.825   5.242  2.8099 -2.4770  0.3977
12215TIP3    H258137   3.754   2.684   5.188 -2.3595 -1.7806 -0.2075
12216TIP3   OH258138   1.497   1.934   4.186  0.5732 -0.7665 -0.0457
12216TIP3    H158139   1.424   1.996   4.190  0.7153 -0.5483 -0.7122
12216TIP3    H258140   1.493   1.887   4.268  1.2857  1.0578  1.0744
12217TIP3   OH258141   1.055   5.276   4.234  0.3195  0.1872 -0.0134
12217TIP3    H158142   0.965   5.251   4.212 -0.1895  1.3772  0.6228
12217TIP3    H258143   1.086   5.206   4.291  0.1100 -0.6758 -0.9459
12218TIP3   OH258144   5.404   2.225   2.536 -0.7909  0.7571 -0.3677
12218TIP3    H158145   5.356   2.246   2.617  0.8702 -2.1167  1.4552
12218TIP3    H258146   5.487   2.273   2.544 -0.9594  1.1196 -0.7690
12219TIP3   OH258147   0.434   1.498  14.253 -0.2579  0.1337 -0.1703
12219TIP3    H158148   0.360   1.551  14.226 -0.0573 -0.4396 -1.9074
12219TIP3    H258149   0.395   1.420  14.294 -0.5792  0.6483  0.5043
12220TIP3   OH258150   3.848   0.231  13.277  0.2223  0.5394 -0.3072
12220TIP3    H158151   3.842   0.148  13.229 -0.0360  0.7247 -0.5950
12220TIP3    H258152   3.866   0.206  13.367  1.7749  0.2040 -0.6858
12221TIP3   OH258153   6.804   5.506  10.954  0.1949 -0.3428 -0.1606
12221TIP3    H158154   6.827   5.437  10.891 -0.1908  0.0557 -0.7511
12221TIP3    H258155   6.728   5.550  10.914  0.7890  0.7901 -0.0628
12222TIP3   OH258156   4.127   1.106  16.539 -0.4990 -0.1325 -0.6337
12222TIP3    H158157   4.080   1.169  16.594  0.6811 -1.2150  1.6764
12222TIP3    H258158   4.101   1.020  16.572  0.7660 -0.7934 -1.3124
12223TIP3   OH258159   5.630   6.497   0.691  0.1818  0.3684  0.4325
12223TIP3    H158160   5.632   6.446   0.772 -3.4463 -0.4659  0.1080
12223TIP3    H258161   5.656   6.585   0.717  0.4468 -0.2175  2.2190
12224TIP3   OH258162   1.180   1.248   2.392  0.6751 -0.1531 -0.1848
12224TIP3    H158163   1.143   1.162   2.414 -0.5416  0.4379  0.1380
12224TIP3    H258164   1.235   1.232   2.315  3.7853 -1.9823  2.2890
12225TIP3   OH258165   4.833   2.783   0.178 -0.7481 -0.0667  0.1666
12225TIP3    H158166   4.773   2.754   0.246 -0.2306  1.0246  1.1086
12225TIP3    H258167   4.783   2.847   0.127 -0.3518  0.9758  1.0602
12226TIP3   OH258168   1.617   0.105   6.342  0.2336  0.1635  0.1608
12226TIP3    H158169   1.664   0.039   6.392 -0.6138 -1.3268 -0.9748
12226TIP3    H258170   1.546   0.133   6.399 -0.4765 -1.2218 -0.0245
12227TIP3   OH258171   0.014   2.989  15.073 -0.3600 -0.2142 -0.6702
12227TIP3    H158172  -0.070   3.032  15.091 -1.1997 -1.5372 -1.3980
12227TIP3    H258173   0.043   2.959  15.159 -0.8202 -0.1137 -0.4729
12228TIP3   OH258174   5.993   2.364   1.694  0.4824  0.5584  0.0652
12228TIP3    H158175   5.985   2.274   1.663 -0.1082  0.7520 -0.3543
12228TIP3    H258176   5.964   2.417   1.620 -2.1180  0.9796  1.3598
12229TIP3   OH258177   3.831   2.266  15.620 -0.3837 -0.4306 -0.0400
12229TIP3    H158178   3.897   2.220  15.672  1.1513  2.0299  0.2885
12229TIP3    H258179   3.816   2.209  15.544  1.4717 -1.4365  0.3138
12230TIP3   OH258180   2.130   0.462  14.207 -0.0537 -0.3693  0.0817
12230TIP3    H158181   2.035   0.448  14.213 -0.1981  0.1166 -0.9039
12230TIP3    H258182   2.139   0.531  14.141  1.1741 -3.1756 -2.8305
12231TIP3   OH258183   4.366   6.670   5.529  0.6252  0.0621 -0.1236
12231TIP3    H158184   4.450   6.688   5.487  0.3804  0.0816 -0.6037
12231TIP3    H258185   4.375   6.706   5.617  0.7363  1.0235 -0.5253
12232TIP3   OH258186   0.754   1.565  13.224  0.0632 -0.1572 -0.2612
12232TIP3    H158187   0.711   1.575  13.139  0.0022  1.1709 -0.0938
12232TIP3    H258188   0.683   1.541  13.284 -0.0304 -0.3401 -0.4466
12233TIP3   OH258189   2.297   5.889  12.639  0.4938 -0.1445  0.0577
12233TIP3    H158190   2.381   5.935  12.635  0.9017 -1.0040 -1.4480
12233TIP3    H258191   2.235   5.949  12.597  1.2394 -1.3894 -2.9300
12234TIP3   OH258192   0.876   0.005  11.359 -0.7317 -0.2640  0.4592
12234TIP3    H158193   0.928  -0.074  11.346 -3.8249 -2.2462 -0.6248
12234TIP3    H258194   0.929   0.075  11.321  0.5105 -2.4332 -2.0223
12235TIP3   OH258195   0.822   5.470  14.305 -0.3003 -0.4734  0.4537
12235TIP3    H158196   0.897   5.510  14.350 -0.6469  0.3252  0.3227
12235TIP3    H258197   0.815   5.519  14.223 -1.1906 -0.3080  0.6226
12236TIP3   OH258198   2.675   1.347   0.609  0.7779  0.4532  0.2192
12236TIP3    H158199   2.637   1.417   0.662  2.1833  1.5078 -0.1348
12236TIP3    H258200   2.660   1.267   0.660 -1.1973  0.9294  0.4423
12237TIP3   OH258201   2.213   1.203  15.425  0.2212  0.3237  0.3325
12237TIP3    H158202   2.267   1.272  15.386 -0.4464  0.0999 -1.0334
12237TIP3    H258203   2.224   1.214  15.519  0.5809  1.9427  0.1227
12238TIP3   OH258204   4.266   5.886  10.585  0.0293 -0.1677  0.3941
12238TIP3    H158205   4.233   5.797  10.593  0.0907 -0.0784  1.7331
12238TIP3    H258206   4.361   5.876  10.572 -0.0314 -0.3071  0.0543
12239TIP3   OH258207   4.980   0.545   2.664 -0.0244  0.2089  0.1367
12239TIP3    H158208   4.990   0.527   2.758 -0.2508  0.1604  0.1499
12239TIP3    H258209   4.914   0.483   2.634 -2.5453  2.5326  0.6600
12240TIP3   OH258210   1.644   5.120  14.560 -0.1386  0.0771  0.3926
12240TIP3    H158211   1.679   5.032  14.569  0.4199  0.1732 -0.7666
12240TIP3    H258212   1.589   5.132  14.638 -1.0584 -1.6576  0.0257
12241TIP3   OH258213   0.673   0.145  16.070 -0.5074  0.0021 -0.2072
12241TIP3    H158214   0.631   0.099  15.998 -0.7604  2.0340 -1.4101
12241TIP3    H258215   0.604   0.201  16.106  0.0873  0.3023  0.4744
12242TIP3   OH258216   6.659   1.485  15.706 -0.0970 -0.0950  0.4948
12242TIP3    H158217   6.751   1.465  15.720 -0.1465 -0.8454 -0.2116
12242TIP3    H258218   6.617   1.464  15.790  0.5584  1.4747  1.2290
12243TIP3   OH258219   5.647   2.015  15.746  0.1632  0.2602 -0.2405
12243TIP3    H158220   5.583   2.058  15.803 -1.2611 -1.0947 -0.7710
12243TIP3    H258221   5.731   2.048  15.776 -0.5737 -0.1715  2.4438
12244TIP3   OH258222   2.263   1.873  11.816  0.2542 -0.7576 -0.1359
12244TIP3    H158223   2.224   1.803  11.868  1.2807 -1.2973 -0.0939
12244TIP3    H258224   2.277   1.944  11.880  0.3850 -0.9693  0.0700
12245TIP3   OH258225   2.761   1.596   2.925 -0.0539 -0.5141 -0.0680
12245TIP3    H158226   2.697   1.530   2.898 -1.2061  0.6488 -0.1893
12245TIP3    H258227   2.771   1.582   3.019 -1.6934  0.3403  0.2471
12246TIP3   OH258228   6.342   3.047   2.189 -0.6162  0.0795 -0.0420
12246TIP3    H158229   6.345   3.139   2.164 -0.4217 -0.2847 -1.4048
12246TIP3    H258230   6.294   3.004   2.118  1.7297 -1.2979 -0.8364
12247TIP3   OH258231   1.995   3.449  13.799 -0.2976 -0.4548  0.6111
12247TIP3    H158232   2.005   3.479  13.709 -0.5961  1.7926  1.2924
12247TIP3    H258233   1.907   3.411  13.803  0.2188 -1.7509 -0.3646
12248TIP3   OH258234   1.846   2.527   2.876 -0.1032  0.4651 -0.5237
12248TIP3    H158235   1.934   2.563   2.883  0.0708 -0.2366  0.9395
12248TIP3    H258236   1.826   2.530   2.782  1.2547  1.1377 -0.7944
12249TIP3   OH258237   5.292   3.561   4.281 -0.6751 -0.4923  0.8172
12249TIP3    H158238   5.229   3.591   4.347 -0.8929  0.0454  0.3679
12249TIP3    H258239   5.246   3.571   4.197  0.1729  0.3565  0.4381
12250TIP3   OH258240   0.797   0.868  17.109 -0.2480  0.3999  0.3612
12250TIP3    H158241   0.737   0.867  17.034  0.0162  0.9724  0.1425
12250TIP3    H258242   0.838   0.954  17.106 -0.4495  0.5428  1.3359
12251TIP3   OH258243   5.576   2.518   2.051  0.5025 -0.0230  0.0683
12251TIP3    H158244   5.560   2.523   1.956  0.5819  0.4448  0.0822
12251TIP3    H258245   5.670   2.527   2.060  0.4095  0.7472  0.2555
12252TIP3   OH258246   6.312   2.828  14.975  0.5511  0.3089 -0.2448
12252TIP3    H158247   6.284   2.799  14.888  2.8222  2.3402 -1.7163
12252TIP3    H258248   6.404   2.802  14.981  0.2802 -0.2841  1.7988
12253TIP3   OH258249   1.157   0.927  16.169  0.1124 -0.4345  0.1054
12253TIP3    H158250   1.242   0.885  16.157  1.0382  2.2196 -3.4257
12253TIP3    H258251   1.098   0.880  16.109  0.3783  1.0427 -1.3604
12254TIP3   OH258252   2.520   4.074  14.502  0.2560 -0.2823  0.2944
12254TIP3    H158253   2.441   4.052  14.451  0.5951 -2.1999  0.5670
12254TIP3    H258254   2.582   4.106  14.436  0.0665 -1.0492 -0.2777
12255TIP3   OH258255   5.958   0.294  16.577 -0.6741  0.0681  0.3749
12255TIP3    H158256   5.982   0.223  16.518 -0.7439  0.2333  0.1449
12255TIP3    H258257   5.936   0.250  16.659  3.3209  0.1083  1.5833
12256TIP3   OH258258   5.992   6.546   0.765 -0.1678  0.1088  0.1271
12256TIP3    H158259   5.927   6.617   0.763  0.7758  1.1137  2.7492
12256TIP3    H258260   6.076   6.590   0.748  0.2380 -0.6210  0.2375
12257TIP3   OH258261   2.912   0.152  16.510  0.4348  0.3491 -0.4160
12257TIP3    H158262   2.920   0.057  16.503 -1.8186  0.3934 -4.7728
12257TIP3    H258263   2.875   0.180  16.427  0.0223  4.9803  1.1715
12258TIP3   OH258264   0.689   2.068   1.716  0.5817  0.7874  0.5654
12258TIP3    H158265   0.737   2.086   1.635  1.2238  1.2830  1.0480
12258TIP3    H258266   0.601   2.101   1.699  0.3959 -0.1349 -0.3340
12259TIP3   OH258267   4.554   2.358   3.832 -0.5897  0.2310 -0.2079
12259TIP3    H158268   4.566   2.263   3.830 -0.2564  0.2646  0.0496
12259TIP3    H258269   4.588   2.388   3.748  2.8978  0.5066  1.1994
12260TIP3   OH258270   6.586   2.213   2.757 -0.7105 -0.4355 -0.2077
12260TIP3    H158271   6.654   2.280   2.769 -1.1921  0.1144 -0.5931
12260TIP3    H258272   6.627   2.148   2.701 -0.0500 -0.7384  0.6089
12261TIP3   OH258273   2.774   6.743   0.827 -0.7401  0.2434 -0.7168
12261TIP3    H158274   2.793   6.783   0.742  1.7967  2.2232  0.7169
12261TIP3    H258275   2.740   6.814   0.881  0.1411 -0.3642  0.6854
12262TIP3   OH258276   0.705   6.438   3.427 -0.0768 -0.3076 -0.3073
12262TIP3    H158277   0.745   6.360   3.463  2.0468  0.6735 -0.4875
12262TIP3    H258278   0.690   6.495   3.503 -2.0061 -1.0093 -0.1173
12263TIP3   OH258279   3.557   1.710   0.887  0.1520  0.0258 -0.6335
12263TIP3    H158280   3.518   1.750   0.964 -0.3438  0.7347 -1.2498
12263TIP3    H258281   3.607   1.635   0.921  0.2070  0.5320  0.4022
12264TIP3   OH258282   4.232   3.364  14.729  0.4126 -0.1363 -0.0646
12264TIP3    H158283   4.228   3.372  14.634 -0.8299  2.6961  0.2080
12264TIP3    H258284   4.323   3.385  14.751  0.7567 -1.0124 -0.6275
12265TIP3   OH258285   4.235   3.477   0.989 -0.3664  0.6586  0.0691
12265TIP3    H158286   4.276   3.563   0.995  0.4661  0.2547  0.1508
12265TIP3    H258287   4.301   3.416   1.021 -0.5137 -0.1443 -1.1249
12266TIP3   OH258288   2.226   3.283   2.578  0.2956 -0.0580 -0.0394
12266TIP3    H158289   2.257   3.309   2.491  1.1673 -2.5484 -0.5127
12266TIP3    H258290   2.146   3.233   2.561  1.3098 -1.8977  0.4138
12267TIP3   OH258291   1.352   4.341  15.753 -0.0077  0.9225 -0.1101
12267TIP3    H158292   1.406   4.359  15.829  1.5267 -1.2794 -0.6480
12267TIP3    H258293   1.268   4.312  15.789 -0.1498  2.3247  0.7171
12268TIP3   OH258294   6.803   6.156  10.929  0.0140  0.2051  0.0930
12268TIP3    H158295   6.862   6.115  10.866 -2.2245  0.1237 -2.0054
12268TIP3    H258296   6.835   6.246  10.937  1.1072 -0.1594 -0.1126
12269TIP3   OH258297   5.586   3.927   4.534 -0.4867 -0.4725  0.3183
12269TIP3    H158298   5.513   3.905   4.592 -0.7160  1.0776  0.6436
12269TIP3    H258299   5.631   3.999   4.578  0.3484 -0.4175 -0.6027
12270TIP3   OH258300   0.450   3.013  12.822  0.1522 -0.2633 -0.3268
12270TIP3    H158301   0.370   3.019  12.874  0.3302  0.1640 -0.0999
12270TIP3    H258302   0.491   2.931  12.851 -1.9257 -2.3107 -2.9304
12271TIP3   OH258303   5.978   1.988  16.012 -0.3399 -0.2702 -0.8609
12271TIP3    H158304   6.030   2.010  16.089 -0.0864 -0.6604 -0.9192
12271TIP3    H258305   5.964   1.893  16.018  1.3076 -0.6312 -2.2852
12272TIP3   OH258306   0.417   0.863   5.404  0.1613 -0.7502  0.2968
12272TIP3    H158307   0.418   0.795   5.336  2.8586 -1.5180  1.0307
12272TIP3    H258308   0.412   0.945   5.356 -2.7955 -1.4057 -0.6224
12273TIP3   OH258309   3.556   4.735  14.830 -0.1800 -0.2675 -0.4040
12273TIP3    H158310   3.546   4.704  14.740 -1.3527 -0.6742 -0.1358
12273TIP3    H258311   3.630   4.685  14.864 -0.1492 -0.5865 -0.9372
12274TIP3   OH258312   2.949   2.846  13.878  0.0318  0.0985  0.1237
12274TIP3    H158313   2.888   2.774  13.862  2.0548 -1.6147 -0.0563
12274TIP3    H258314   2.974   2.877  13.791 -0.5616  0.8044  0.1968
12275TIP3   OH258315   2.499   5.965  15.194 -0.2588  0.0843 -0.8086
12275TIP3    H158316   2.527   6.048  15.153 -1.4692 -0.4320 -2.7483
12275TIP3    H258317   2.528   5.973  15.284  0.7242  2.1356 -1.2543
12276TIP3   OH258318   5.167   1.246  16.831 -0.0505  0.2548  0.8247
12276TIP3    H158319   5.199   1.192  16.759  1.0653  1.7989  0.1265
12276TIP3    H258320   5.225   1.323  16.830 -0.0870  0.3443  3.2873
12277TIP3   OH258321   1.944   1.508   3.388  0.0116  0.4089  0.8046
12277TIP3    H158322   1.900   1.454   3.322  0.1521 -0.9146  1.7658
12277TIP3    H258323   2.019   1.547   3.341  0.9295 -1.6335  0.5117
12278TIP3   OH258324   0.222   4.078   1.246  0.0915  0.3910  0.3711
12278TIP3    H158325   0.278   4.155   1.253  0.4549  0.0027  1.9686
12278TIP3    H258326   0.283   4.005   1.239 -0.2321  0.1053  0.5364
12279TIP3   OH258327   1.706   1.861  11.628  0.1325 -0.0289 -0.1760
12279TIP3    H158328   1.661   1.796  11.574 -0.5062 -0.7550  1.1838
12279TIP3    H258329   1.638   1.921  11.656  0.7777  1.4255 -1.6704
12280TIP3   OH258330   2.722   3.412  16.108  0.4244 -0.4771 -1.0683
12280TIP3    H158331   2.707   3.498  16.146  0.3286 -0.8310 -0.3071
12280TIP3    H258332   2.813   3.415  16.077  0.1456  0.1957 -1.8426
12281TIP3   OH258333   1.083   3.316   5.026  0.0493 -0.5203 -0.0568
12281TIP3    H158334   1.077   3.329   4.931 -0.9070  0.1944  0.1003
12281TIP3    H258335   1.109   3.402   5.060  2.2342 -1.2297  0.1671
12282TIP3   OH258336   1.430   1.799  14.276 -0.2565 -0.2531  0.1624
12282TIP3    H158337   1.512   1.752  14.293  0.5034  0.7547 -0.6204
12282TIP3    H258338   1.405   1.835  14.361  0.8919  0.6280  0.1505
12283TIP3   OH258339   5.909   2.630  11.180  0.4118  0.0182  0.1446
12283TIP3    H158340   5.818   2.609  11.156  0.7179  0.0932 -1.1602
12283TIP3    H258341   5.901   2.709  11.234 -0.2864  0.2246 -0.2439
12284TIP3   OH258342   0.319   2.340  13.548  0.3987 -0.3111 -0.1537
12284TIP3    H158343   0.261   2.268  13.571 -1.2515  1.1127  0.2271
12284TIP3    H258344   0.379   2.349  13.622  1.7081 -2.3281 -0.9086
12285TIP3   OH258345   5.537   4.694   5.643  0.3552 -0.0008 -0.0188
12285TIP3    H158346   5.531   4.789   5.655  2.0204  0.3203 -1.6681
12285TIP3    H258347   5.542   4.682   5.549 -0.4653 -1.7890  0.1526
12286TIP3   OH258348   3.777   2.713  15.122  0.4144  0.0296 -0.2784
12286TIP3    H158349   3.707   2.735  15.183  0.7511  1.7322 -0.4857
12286TIP3    H258350   3.733   2.663  15.053 -0.2804 -0.3978  0.4648
12287TIP3   OH258351   6.692   1.337  17.066  0.9057  0.1794  0.5069
12287TIP3    H158352   6.694   1.407  17.131  1.0948  0.7385 -0.0991
12287TIP3    H258353   6.697   1.256  17.117  0.2570  0.5960  1.2329
12288TIP3   OH258354   4.725   6.752   3.604 -0.5162 -0.1341 -0.5528
12288TIP3    H158355   4.757   6.690   3.669 -0.3597 -0.3529 -0.8359
12288TIP3    H258356   4.800   6.765   3.545 -1.1575 -1.1632 -1.6072
12289TIP3   OH258357   3.035   0.268  11.949  0.5682  0.3069 -0.0438
12289TIP3    H158358   3.048   0.221  12.031  1.1762  0.7788  0.1409
12289TIP3    H258359   3.061   0.206  11.881  1.8370  0.5254  0.2205
12290TIP3   OH258360   6.204   3.786   5.143 -0.4054 -0.5581  0.3427
12290TIP3    H158361   6.151   3.816   5.217 -1.7728 -3.8843  0.7987
12290TIP3    H258362   6.294   3.787   5.176 -0.7924 -0.2229  1.4066
12291TIP3   OH258363   1.038   6.117   3.726  0.0415 -0.0546  0.3590
12291TIP3    H158364   1.079   6.136   3.641  0.3782  2.2668  1.0140
12291TIP3    H258365   0.987   6.038   3.710  0.1963  0.2677 -1.9785
12292TIP3   OH258366   6.663   1.494  11.192 -0.0065  0.6380  0.6927
12292TIP3    H158367   6.581   1.458  11.226  1.5500 -2.1228  1.6920
12292TIP3    H258368   6.675   1.450  11.108 -0.2525  2.1407 -0.1458
12293TIP3   OH258369   6.372   3.897  15.419  0.1643 -0.2970 -0.0847
12293TIP3    H158370   6.414   3.914  15.335 -0.1598  0.2560 -0.1428
12293TIP3    H258371   6.282   3.871  15.397  0.3703 -1.1400  0.0511
12294TIP3   OH258372   1.620   3.618   2.428  0.3155  0.3846  0.2043
12294TIP3    H158373   1.528   3.623   2.401  0.3329  0.3882  0.1462
12294TIP3    H258374   1.669   3.653   2.354  0.4242 -0.4954 -0.1449
12295TIP3   OH258375   4.567   3.769  16.010 -0.3053  0.3616  0.1315
12295TIP3    H158376   4.590   3.819  16.088  0.3180  0.2035  0.0477
12295TIP3    H258377   4.500   3.708  16.040  0.7194 -0.4496  0.7915
12296TIP3   OH258378   4.265   6.253   3.382  0.2203  0.4499  0.0707
12296TIP3    H158379   4.192   6.294   3.429  0.3519 -0.7738  1.3859
12296TIP3    H258380   4.339   6.263   3.442  0.6458 -0.1645 -0.3577
12297TIP3   OH258381   2.746   4.106  12.391  0.3893 -0.0920  0.0606
12297TIP3    H158382   2.720   4.189  12.351  0.9324  0.0971  0.0852
12297TIP3    H258383   2.667   4.072  12.432  0.1144  0.3101 -0.1376
12298TIP3   OH258384   3.267   1.617   2.241 -0.3870 -0.5553 -0.5114
12298TIP3    H158385   3.286   1.542   2.184 -0.0336 -1.0268  0.2249
12298TIP3    H258386   3.352   1.660   2.253 -0.9279  1.2362 -2.6877
12299TIP3   OH258387   0.613   1.266   0.896  0.4410 -0.3549  0.4570
12299TIP3    H158388   0.558   1.258   0.817  1.0510 -0.7882  0.0749
12299TIP3    H258389   0.690   1.314   0.867 -0.5523  1.8561  1.4165
12300TIP3   OH258390   0.276   1.026   0.160  0.2001 -0.0458 -0.4374
12300TIP3    H158391   0.367   1.024   0.188 -0.1179  0.3802  0.6530
12300TIP3    H258392   0.241   1.107   0.196 -0.8669 -0.6784 -0.0191
12301TIP3   OH258393   4.149   0.468   5.406  0.4880  0.0655 -0.3965
12301TIP3    H158394   4.127   0.535   5.341 -2.5217 -0.4660  0.0422
12301TIP3    H258395   4.231   0.500   5.445 -0.0626  2.6833 -1.2717
12302TIP3   OH258396   4.117   2.578  12.072  0.2994  0.3407  0.2601
12302TIP3    H158397   4.137   2.650  12.012  1.1471  0.1872  0.3514
12302TIP3    H258398   4.200   2.561  12.117  0.2960 -1.2046 -0.3008
12303TIP3   OH258399   5.772   5.738  11.475 -0.1157 -0.9185  0.3056
12303TIP3    H158400   5.803   5.807  11.533 -1.0607 -0.2205  0.0057
12303TIP3    H258401   5.689   5.772  11.439  0.4153 -1.3560 -1.4050
12304TIP3   OH258402   4.982   6.315  16.883 -0.1286  0.2904 -0.5076
12304TIP3    H158403   4.890   6.343  16.886 -0.4358 -0.4029 -2.3436
12304TIP3    H258404   4.979   6.221  16.902  0.2020  0.2747 -0.5308
12305TIP3   OH258405   2.025   2.289   0.097  0.0934 -0.0396  0.4113
12305TIP3    H158406   2.091   2.285   0.028  0.1224 -2.3987  0.5313
12305TIP3    H258407   1.950   2.332   0.056  1.0482  0.9820 -0.2741
12306TIP3   OH258408   0.877   4.860  12.465  0.3037 -0.4935  0.0189
12306TIP3    H158409   0.963   4.866  12.424 -0.5140  0.1663 -1.6343
12306TIP3    H258410   0.850   4.769  12.450 -0.8098  0.2127 -2.6895
12307TIP3   OH258411   5.013   4.775  11.714 -0.1071  0.0223 -0.1824
12307TIP3    H158412   5.095   4.824  11.708 -0.8419  1.4272  0.9692
12307TIP3    H258413   5.023   4.722  11.793  0.3221 -1.0422 -0.9339
12308TIP3   OH258414   6.684   3.165   0.073 -0.1278 -0.0781 -0.1161
12308TIP3    H158415   6.706   3.074   0.053 -1.5581 -0.3871 -0.3796
12308TIP3    H258416   6.745   3.217   0.021  1.0396 -0.8875  0.4433
12309TIP3   OH258417   0.671   0.312  12.009 -0.2448  0.3210 -0.4904
12309TIP3    H158418   0.632   0.399  12.020 -1.0163 -0.2458  1.6060
12309TIP3    H258419   0.765   0.328  12.010 -0.3804  1.1358  0.0185
12310TIP3   OH258420   5.745   1.213  10.705  0.0498  0.0455  0.4103
12310TIP3    H158421   5.684   1.286  10.716 -1.3318 -0.6601 -2.1032
12310TIP3    H258422   5.710   1.144  10.761 -0.1914  0.4045  0.7052
12311TIP3   OH258423   1.705   1.706   1.676 -0.2701  0.2589  0.1227
12311TIP3    H158424   1.723   1.792   1.637 -1.2749  0.2478 -0.3730
12311TIP3    H258425   1.691   1.725   1.769  0.6495  0.4761  0.2270
12312TIP3   OH258426   4.470   3.934   0.715 -0.1233 -0.8585  0.9696
12312TIP3    H158427   4.443   3.999   0.650  0.6687  0.2436  1.7388
12312TIP3    H258428   4.402   3.866   0.710 -2.2357  1.1392  1.7959
12313TIP3   OH258429   2.429   5.832  16.625  0.0318 -0.5033 -0.1087
12313TIP3    H158430   2.480   5.781  16.563 -0.8221 -0.7994 -0.5614
12313TIP3    H258431   2.451   5.923  16.605  0.7435 -0.6391  0.0179
12314TIP3   OH258432   4.238   3.325   5.674  1.0328 -0.3066 -0.2916
12314TIP3    H158433   4.284   3.379   5.737  1.7570 -0.1931 -0.9094
12314TIP3    H258434   4.304   3.264   5.640  0.3764 -1.1649 -0.0637
12315TIP3   OH258435   4.375   4.232   4.876  0.6194  0.3721  0.2444
12315TIP3    H158436   4.413   4.288   4.809  0.1634 -0.5987 -0.8456
12315TIP3    H258437   4.360   4.290   4.950  3.7796  0.8799  0.5448
12316TIP3   OH258438   1.827   6.463  11.083 -0.4493 -0.5610  0.3422
12316TIP3    H158439   1.777   6.523  11.028 -0.7106 -0.5981  0.5392
12316TIP3    H258440   1.766   6.392  11.102  0.7137 -2.3083 -2.2270
12317TIP3   OH258441   3.301   1.091  17.199  0.1177 -0.1174 -0.4778
12317TIP3    H158442   3.369   1.057  17.257  1.1778 -0.5250 -1.9527
12317TIP3    H258443   3.341   1.167  17.157 -0.5133 -0.0546 -0.9740
12318TIP3   OH258444   4.183   0.145  15.320  0.3071  0.3465  0.3379
12318TIP3    H158445   4.259   0.203  15.330  0.2102  0.5995 -0.3646
12318TIP3    H258446   4.167   0.144  15.226  1.2723 -2.0724  0.1801
12319TIP3   OH258447   1.438   3.990   5.513 -0.7474  0.5986  0.2804
12319TIP3    H158448   1.511   4.050   5.507 -0.2514 -0.1412 -1.3333
12319TIP3    H258449   1.476   3.903   5.496 -1.6744 -0.0076  1.2220
12320TIP3   OH258450   3.808   0.432  11.395  0.2395  0.3087  0.1293
12320TIP3    H158451   3.735   0.476  11.352 -0.5321  1.4256  2.4995
12320TIP3    H258452   3.886   0.464  11.348 -0.4577  2.7685  0.5731
12321TIP3   OH258453   6.069   3.865  13.634  0.1956 -0.1268  0.0508
12321TIP3    H158454   6.148   3.812  13.648  0.4148  0.0821 -0.3889
12321TIP3    H258455   6.027   3.868  13.720  1.4338  0.9763  0.6480
12322TIP3   OH258456   5.020   0.463  16.280  0.1244  0.6482 -0.0788
12322TIP3    H158457   5.108   0.448  16.245  1.2515  4.1557  1.0860
12322TIP3    H258458   5.000   0.383  16.328  2.0337 -0.8002 -1.5860
12323TIP3   OH258459   4.966   5.912   1.300  0.1288  0.0275 -0.0138
12323TIP3    H158460   4.891   5.956   1.340  0.5706  0.3344  0.4994
12323TIP3    H258461   4.986   5.840   1.360  0.6935  0.3904  0.2433
12324TIP3   OH258462   4.147   4.716   3.441 -0.4625  0.4479  0.0065
12324TIP3    H158463   4.195   4.644   3.399  0.0140  0.3939  0.6351
12324TIP3    H258464   4.198   4.794   3.419 -1.8459  0.8241 -2.0163
12325TIP3   OH258465   6.251   0.141   2.871 -0.0005  0.2563  0.6740
12325TIP3    H158466   6.240   0.086   2.793  3.3820  0.4754 -0.0475
12325TIP3    H258467   6.236   0.082   2.945  1.4754 -1.1824 -0.1258
12326TIP3   OH258468   5.575   1.218   4.060 -0.0004 -0.1673 -0.3996
12326TIP3    H158469   5.584   1.147   3.996 -2.8150  0.0033 -1.0418
12326TIP3    H258470   5.506   1.274   4.025  0.1427  1.3158  1.5645
12327TIP3   OH258471   0.464   6.148   3.759 -0.1838  0.5048 -0.9141
12327TIP3    H158472   0.378   6.144   3.801  0.6340 -2.1228  0.6535
12327TIP3    H258473   0.526   6.141   3.832  1.2899 -2.1864 -2.3574
12328TIP3   OH258474   5.675   6.740   4.685  0.2910 -0.1431  0.5233
12328TIP3    H158475   5.613   6.811   4.700 -1.2502 -0.8770 -2.0641
12328TIP3    H258476   5.630   6.662   4.715 -0.0345 -0.6627 -1.2471
12329TIP3   OH258477   0.022   0.727  11.324 -0.2555  0.2196 -0.1748
12329TIP3    H158478   0.109   0.742  11.360  0.0119  0.1204 -0.7779
12329TIP3    H258479   0.006   0.633  11.339 -0.6514  0.4298  0.7835
12330TIP3   OH258480   3.378   1.584   3.766 -0.0125 -0.3397  0.0160
12330TIP3    H158481   3.453   1.625   3.810 -0.1907  0.5079 -0.4437
12330TIP3    H258482   3.407   1.572   3.676 -0.6027  0.4728 -0.2882
12331TIP3   OH258483   0.833   3.065   6.556 -0.3219  1.0349  0.1761
12331TIP3    H158484   0.892   3.069   6.481 -0.1052 -0.8660  0.2222
12331TIP3    H258485   0.765   3.003   6.530 -0.5697  0.8124  1.3268
12332TIP3   OH258486   4.550   6.545   5.252  0.4201  0.3582  0.5784
12332TIP3    H158487   4.639   6.546   5.287  0.1717 -1.1445  1.2811
12332TIP3    H258488   4.517   6.633   5.270  0.4995 -0.1635  3.6625
12333TIP3   OH258489   0.190   0.298  13.125 -0.3641  0.0256 -0.0820
12333TIP3    H158490   0.224   0.251  13.049  1.8800  0.7133  0.4524
12333TIP3    H258491   0.230   0.255  13.200 -3.1463 -1.1258  0.7947
12334TIP3   OH258492   0.653   0.726   3.043 -0.2879 -0.6454 -0.4270
12334TIP3    H158493   0.742   0.721   3.007 -0.1357 -1.3742  0.0347
12334TIP3    H258494   0.665   0.761   3.131 -0.6331  0.8735 -0.9640
12335TIP3   OH258495   2.221   0.519   4.017  0.7922  0.6698 -0.0225
12335TIP3    H158496   2.230   0.441   4.071  0.8587 -0.5947 -1.8284
12335TIP3    H258497   2.301   0.522   3.965  0.5181  1.5971 -0.4019
12336TIP3   OH258498   2.213   5.918  16.777 -0.7264 -0.2491 -0.3185
12336TIP3    H158499   2.181   5.834  16.812  0.2384 -0.2125  0.6581
12336TIP3    H258500   2.298   5.897  16.740 -0.0209  0.5151  0.8660
12337TIP3   OH258501   2.801   2.141   0.893  0.4473 -0.2260  0.7860
12337TIP3    H158502   2.886   2.158   0.933 -0.1271  0.8641  1.5828
12337TIP3    H258503   2.791   2.209   0.827  0.9623 -1.4341 -0.5641
12338TIP3   OH258504   0.683   2.847   3.192  0.4469 -0.5713  0.4069
12338TIP3    H158505   0.724   2.761   3.205 -1.2366 -1.3315  0.7230
12338TIP3    H258506   0.592   2.828   3.170  0.1129  1.1332  0.2420
12339TIP3   OH258507   1.198   0.197  12.420 -0.4328 -0.2979  0.2710
12339TIP3    H158508   1.276   0.142  12.435 -1.1540 -1.5713 -0.5466
12339TIP3    H258509   1.138   0.140  12.372 -1.3008  1.1454 -0.3746
12340TIP3   OH258510   1.939   5.139  17.233 -0.2766 -0.1132  0.0272
12340TIP3    H158511   1.864   5.189  17.266 -0.3159 -0.5327  0.5822
12340TIP3    H258512   1.903   5.052  17.214 -0.4720  0.4052 -2.0756
12341TIP3   OH258513   4.998   3.192  11.604  0.3936  0.1975 -0.2964
12341TIP3    H158514   4.906   3.193  11.577  0.7787  0.3557 -1.6173
12341TIP3    H258515   4.995   3.177  11.698 -1.1764  3.9304  0.3621
12342TIP3   OH258516   6.616   6.442   1.847  0.0736 -0.3419  0.4755
12342TIP3    H158517   6.648   6.425   1.759  0.4232 -2.5236  1.0142
12342TIP3    H258518   6.537   6.388   1.855 -1.0924  1.3547  0.8236
12343TIP3   OH258519   5.785   2.652   2.383 -0.6300 -0.1003  0.1150
12343TIP3    H158520   5.811   2.630   2.294 -1.1489  0.2149 -0.1152
12343TIP3    H258521   5.790   2.748   2.386 -0.9453 -0.0927  0.3272
12344TIP3   OH258522   2.825   6.185   6.415 -0.0056 -0.4667 -0.4663
12344TIP3    H158523   2.916   6.158   6.399  0.9872  2.0447  0.6832
12344TIP3    H258524   2.791   6.120   6.476  1.0077 -1.4037 -0.8726
12345TIP3   OH258525   2.115   6.288   5.326  0.0227  0.3939 -0.1688
12345TIP3    H158526   2.146   6.373   5.356  0.9206 -0.8968  2.7338
12345TIP3    H258527   2.026   6.305   5.293  0.6334  2.6267 -0.7680
12346TIP3   OH258528   2.929   6.202  12.168 -0.2632 -0.0371 -0.0581
12346TIP3    H158529   2.957   6.119  12.207 -0.8797 -0.3298 -0.2247
12346TIP3    H258530   2.834   6.203  12.180 -0.2716  0.5845 -0.1738
12347TIP3   OH258531   0.958   4.178   3.663  0.3277 -0.3658  0.4926
12347TIP3    H158532   0.893   4.155   3.597 -0.1477  2.1950 -0.0129
12347TIP3    H258533   1.042   4.154   3.624 -0.0962 -0.6371 -0.2576
12348TIP3   OH258534   4.726   1.028  12.723  0.3473 -0.4530 -0.6106
12348TIP3    H158535   4.700   1.054  12.634  1.0118 -0.0788 -0.7031
12348TIP3    H258536   4.751   0.936  12.715  0.6661 -0.3441 -0.8712
12349TIP3   OH258537   4.708   1.255  12.491  0.3179  0.2049 -0.3233
12349TIP3    H158538   4.629   1.203  12.507  0.8120 -0.5486 -0.2765
12349TIP3    H258539   4.718   1.255  12.396 -0.9839  2.2049 -0.4935
12350TIP3   OH258540   2.748   0.664  15.856 -0.2525  0.0138 -0.2704
12350TIP3    H158541   2.785   0.713  15.783  0.5670  3.1445  2.1742
12350TIP3    H258542   2.653   0.673  15.845 -0.1087  2.0839  0.0978
12351TIP3   OH258543   4.780   2.100   0.500 -0.1340  0.4288  0.0296
12351TIP3    H158544   4.777   2.076   0.592  2.4227 -1.6978 -0.3468
12351TIP3    H258545   4.691   2.127   0.479 -1.0218 -0.1199  2.8427
12352TIP3   OH258546   0.527   0.341   6.286 -0.2203 -0.4768 -0.2495
12352TIP3    H158547   0.478   0.365   6.365  0.5625 -0.4550  0.2240
12352TIP3    H258548   0.546   0.425   6.244  2.0376 -0.2648  1.1241
12353TIP3   OH258549   5.190   6.279   3.398 -0.3484 -0.6397 -0.5721
12353TIP3    H158550   5.227   6.245   3.480 -0.7025  2.0845  0.7461
12353TIP3    H258551   5.245   6.354   3.377 -2.2066  0.5842 -1.1418
12354TIP3   OH258552   0.618   1.919   1.285 -0.3577 -0.3046 -0.2371
12354TIP3    H158553   0.682   1.945   1.219 -0.5673 -0.8559 -0.6621
12354TIP3    H258554   0.652   1.837   1.321 -0.1071  0.1339  0.5352
12355TIP3   OH258555   5.175   3.921  14.504 -0.3039 -0.0579  0.7246
12355TIP3    H158556   5.085   3.917  14.471 -0.0179  0.9666 -0.2251
12355TIP3    H258557   5.226   3.949  14.428  0.6281  0.6267  1.6005
12356TIP3   OH258558   2.625   0.356  15.568 -0.0646 -0.4089  0.2713
12356TIP3    H158559   2.609   0.448  15.547 -0.3094 -0.5915 -0.3514
12356TIP3    H258560   2.635   0.313  15.483  0.6673 -0.8499  0.5727
12357TIP3   OH258561   0.105   4.651   4.868  0.6862 -0.1154 -0.0592
12357TIP3    H158562   0.129   4.598   4.943  2.2624 -0.8160 -1.0464
12357TIP3    H258563   0.038   4.600   4.823  1.3568 -0.7253 -0.3630
12358TIP3   OH258564   0.674   5.892   1.876 -0.2528 -0.5750  0.1444
12358TIP3    H158565   0.588   5.865   1.844 -0.1332 -2.2047  1.1525
12358TIP3    H258566   0.734   5.827   1.841  0.1535 -1.1781  1.8929
12359TIP3   OH258567   0.701   1.659   2.569 -0.6642 -0.2647 -0.1300
12359TIP3    H158568   0.769   1.601   2.534 -0.1665  0.4512 -0.3498
12359TIP3    H258569   0.676   1.714   2.495 -0.5968  0.3175  0.2747
12360TIP3   OH258570   2.274   5.251  14.906 -0.1835 -0.1773  0.5420
12360TIP3    H158571   2.226   5.215  14.831  0.8406  0.8607 -0.6319
12360TIP3    H258572   2.267   5.346  14.895 -0.8444  0.0005  2.3003
12361TIP3   OH258573   0.710   0.232  17.257 -0.3509 -0.0911  0.0250
12361TIP3    H158574   0.722   0.190  17.172 -2.1996 -1.4240  0.3843
12361TIP3    H258575   0.665   0.166  17.310  0.3152  0.9166  1.8771
12362TIP3   OH258576   0.203   2.640   2.422 -0.6010  0.1758 -0.4210
12362TIP3    H158577   0.133   2.670   2.365 -0.7101  1.3184  0.3010
12362TIP3    H258578   0.222   2.551   2.393 -1.9697  0.0671 -0.9815
12363TIP3   OH258579   1.275   1.135   5.038 -0.6051  0.3703  1.0606
12363TIP3    H158580   1.246   1.098   5.121 -1.2964 -0.4487  0.4678
12363TIP3    H258581   1.346   1.078   5.010 -2.0012 -0.8583 -0.1011
12364TIP3   OH258582   6.755   4.341   2.880  0.5548  0.0757  0.1576
12364TIP3    H158583   6.693   4.297   2.822 -0.8319  0.2558  1.4748
12364TIP3    H258584   6.841   4.316   2.847 -0.2190 -0.3872 -1.5361
12365TIP3   OH258585   3.336   6.187   0.377  0.3179 -0.1729 -0.5935
12365TIP3    H158586   3.377   6.241   0.309  1.1118 -1.2064 -0.9594
12365TIP3    H258587   3.270   6.136   0.330  0.1889 -0.1690 -0.4143
12366TIP3   OH258588   2.163   5.846   3.967 -0.1376  0.0248 -0.4813
12366TIP3    H158589   2.208   5.916   3.919 -1.4691  0.3944 -1.2326
12366TIP3    H258590   2.207   5.766   3.939  0.4140  0.4286 -0.7889
12367TIP3   OH258591   5.759   5.609   2.744  0.2601 -0.5326 -0.1862
12367TIP3    H158592   5.719   5.523   2.734  0.1409 -0.3032 -1.7540
12367TIP3    H258593   5.691   5.662   2.786 -0.6731 -0.4612 -1.7545
12368TIP3   OH258594   1.806   3.230   0.746 -0.1988  0.0701  0.6736
12368TIP3    H158595   1.807   3.279   0.663  0.6318  1.6869  1.5981
12368TIP3    H258596   1.891   3.188   0.749 -0.6407 -0.8678  0.2146
12369TIP3   OH258597   5.054   3.202   1.104 -0.4971  0.3978  0.2361
12369TIP3    H158598   5.102   3.119   1.108  0.6861  1.0952  0.5586
12369TIP3    H258599   5.114   3.262   1.060 -1.6934  0.8526 -0.7893
12370TIP3   OH258600   3.567   5.942   0.260 -0.0699 -0.9072 -0.5775
12370TIP3    H158601   3.568   5.876   0.329  0.1275  1.2453  1.5308
12370TIP3    H258602   3.474   5.962   0.247  0.0127  0.5047  0.8805
12371TIP3   OH258603   6.480   4.411   0.312  0.2516  0.0837 -0.1148
12371TIP3    H158604   6.559   4.449   0.351 -0.4342 -0.4756  1.8796
12371TIP3    H258605   6.426   4.487   0.288  0.6835  0.4388  0.0291
12372TIP3   OH258606   3.346   2.538   1.876 -0.4274 -0.5626 -0.7126
12372TIP3    H158607   3.429   2.491   1.869  0.4622  1.0183 -1.0093
12372TIP3    H258608   3.326   2.538   1.970  0.4596 -0.0333 -0.5169
12373TIP3   OH258609   6.345   3.685  13.289  0.7498 -0.5094  0.1086
12373TIP3    H158610   6.378   3.731  13.366 -1.1855 -0.1305  0.7348
12373TIP3    H258611   6.284   3.620  13.323  0.8515 -1.2164 -1.0120
12374TIP3   OH258612   4.613   5.909   3.886 -0.2026  0.5146 -0.1305
12374TIP3    H158613   4.677   5.884   3.818 -0.7135  0.7284 -0.6943
12374TIP3    H258614   4.630   6.002   3.902  0.4249  0.2828  0.5908
12375TIP3   OH258615   4.967   4.123  13.599  0.4519 -0.2890 -0.2610
12375TIP3    H158616   5.047   4.090  13.640  0.1719 -0.8741 -0.1801
12375TIP3    H258617   4.950   4.062  13.527 -0.1172 -0.3718 -0.0577
12376TIP3   OH258618   1.164   6.376   5.624  0.1924 -0.5451 -0.1136
12376TIP3    H158619   1.211   6.448   5.666  0.0916 -0.7444  0.3441
12376TIP3    H258620   1.096   6.418   5.573 -0.6535 -0.3696  1.1382
12377TIP3   OH258621   0.735   5.785   3.797  0.2097 -0.4035 -0.0433
12377TIP3    H158622   0.640   5.776   3.796  0.0928  0.7251 -0.4740
12377TIP3    H258623   0.755   5.821   3.884  0.1355  0.3823 -0.3504
12378TIP3   OH258624   3.386   5.359  12.544 -0.8674 -0.7071 -0.1621
12378TIP3    H158625   3.299   5.372  12.507 -0.1123 -0.0911 -1.7429
12378TIP3    H258626   3.436   5.318  12.474  1.1912  2.3975 -0.6070
12379TIP3   OH258627   4.366   5.307  11.190 -0.3246 -0.0960 -0.2819
12379TIP3    H158628   4.355   5.221  11.149  0.2703  0.6683 -2.1190
12379TIP3    H258629   4.379   5.367  11.116  3.6287  0.9127  1.1187
12380TIP3   OH258630   4.388   2.168   2.718  0.4433  0.3129 -0.3487
12380TIP3    H158631   4.456   2.101   2.711  1.8322  1.6790 -0.4424
12380TIP3    H258632   4.376   2.181   2.813 -0.4893 -0.7065 -0.3234
12381TIP3   OH258633   1.325   4.602   0.488  0.5019 -0.1426 -0.3078
12381TIP3    H158634   1.365   4.594   0.574  0.9236 -1.3636 -0.6107
12381TIP3    H258635   1.330   4.514   0.451  1.8477  0.7336 -2.2610
12382TIP3   OH258636   3.899   2.464  13.674 -0.3678  0.4008 -0.1496
12382TIP3    H158637   3.849   2.400  13.726 -1.6936  1.1155 -0.5084
12382TIP3    H258638   3.916   2.420  13.591  1.0167 -0.4333  0.5587
12383TIP3   OH258639   2.249   1.702  16.871 -0.3914  0.7881  0.0982
12383TIP3    H158640   2.190   1.692  16.946 -1.8848  1.5260 -0.9533
12383TIP3    H258641   2.243   1.618  16.825 -0.3776  0.7559  0.1521
12384TIP3   OH258642   0.712   6.711  13.492  0.1955 -0.6411 -1.0437
12384TIP3    H158643   0.722   6.764  13.571  0.4397 -1.4465 -0.5188
12384TIP3    H258644   0.778   6.745  13.431  1.1928 -1.1517 -0.2607
12385TIP3   OH258645   3.733   3.756   4.733  0.1100 -0.4132 -0.5110
12385TIP3    H158646   3.766   3.681   4.783  0.6113 -0.7046 -1.2614
12385TIP3    H258647   3.640   3.737   4.721  0.6843 -2.1045 -2.7005
12386TIP3   OH258648   2.988   6.580  15.859  0.3376 -0.1386  0.2085
12386TIP3    H158649   2.964   6.671  15.876 -1.5305 -0.4917 -0.4616
12386TIP3    H258650   2.932   6.528  15.918  1.5292 -0.8566  0.7359
12387TIP3   OH258651   4.023   4.683   1.915  0.1139  0.1509 -0.3105
12387TIP3    H158652   4.040   4.777   1.925 -0.6729  0.2018  0.5690
12387TIP3    H258653   4.050   4.644   1.998 -2.0026 -0.0388  0.3359
12388TIP3   OH258654   4.855   6.475  15.346  0.1310 -0.4490 -0.2081
12388TIP3    H158655   4.928   6.421  15.375  0.7046  0.3666 -0.1247
12388TIP3    H258656   4.894   6.559  15.323 -0.9367  0.4077  1.0033
12389TIP3   OH258657   1.833   0.660  15.599  0.2384  0.3890 -0.1258
12389TIP3    H158658   1.905   0.723  15.600  0.3228  0.2980 -0.4296
12389TIP3    H258659   1.848   0.608  15.521 -0.2552  0.4819 -0.2822
12390TIP3   OH258660   0.920   4.792  14.277 -0.5567  0.5271  0.0687
12390TIP3    H158661   0.827   4.802  14.297 -0.4111  2.0433  0.0269
12390TIP3    H258662   0.950   4.724  14.338 -1.4189  0.8864  0.9106
12391TIP3   OH258663   4.088   3.806   0.369 -0.5737  0.0665 -0.0363
12391TIP3    H158664   4.041   3.808   0.286 -0.6610 -2.8966 -0.0989
12391TIP3    H258665   4.172   3.848   0.351 -1.4799  1.4731 -1.0279
12392TIP3   OH258666   5.945   1.462  11.818 -0.2880 -0.2709  0.3650
12392TIP3    H158667   5.986   1.499  11.896  1.4838 -0.3524 -0.4940
12392TIP3    H258668   5.965   1.525  11.749  1.7399 -2.1856 -0.8712
12393TIP3   OH258669   4.118   2.899  12.069 -0.1664  0.0326 -0.3087
12393TIP3    H158670   4.056   2.954  12.116  2.2813  2.8278 -0.1439
12393TIP3    H258671   4.174   2.862  12.137  0.0545 -0.2524 -0.6385
12394TIP3   OH258672   3.048   0.843  13.610  0.1223  0.4493  0.3659
12394TIP3    H158673   2.998   0.887  13.542  2.3329 -0.6160 -2.0285
12394TIP3    H258674   3.010   0.755  13.616  0.4687  0.2625 -0.1210
12395TIP3   OH258675   2.442   4.685  12.860 -0.5040 -0.4208  0.3470
12395TIP3    H158676   2.421   4.719  12.774 -0.3515 -0.3986  0.3189
12395TIP3    H258677   2.518   4.628  12.846 -0.7141 -0.7195  0.4033
12396TIP3   OH258678   4.540   6.314  13.673 -0.3616  0.4518  0.1652
12396TIP3    H158679   4.588   6.322  13.591  3.0448 -0.8863  1.9331
12396TIP3    H258680   4.566   6.390  13.724 -0.2532 -0.1813  1.0722
12397TIP3   OH258681   1.037   5.818  16.514  0.5448 -0.0792  0.1657
12397TIP3    H158682   1.040   5.794  16.607  0.5130 -1.7596 -0.2386
12397TIP3    H258683   1.125   5.799  16.482 -0.1481 -2.0009 -0.7027
12398TIP3   OH258684   3.259   6.791   5.497 -0.7707 -0.0207  0.3686
12398TIP3    H158685   3.205   6.790   5.576  0.9465  2.7730  1.6087
12398TIP3    H258686   3.210   6.846   5.435  0.4471  2.2846  1.3988
12399TIP3   OH258687   5.990   0.970   6.571  0.8367  0.7129 -0.0833
12399TIP3    H158688   6.006   0.882   6.606 -1.7993  0.7944  1.4753
12399TIP3    H258689   6.077   1.009   6.563  1.9854 -1.7388 -0.0295
12400TIP3   OH258690   6.016   2.964   0.556 -0.3125 -0.2760 -0.2026
12400TIP3    H158691   6.014   2.886   0.500  1.8180 -0.6807  0.2459
12400TIP3    H258692   6.061   2.935   0.635 -0.0447  1.2682  0.2162
12401TIP3   OH258693   4.046   6.493   4.366 -0.1672  0.2374  0.0166
12401TIP3    H158694   4.123   6.452   4.325 -0.2202 -0.0902  0.2452
12401TIP3    H258695   4.006   6.423   4.417 -0.8143  0.3210 -0.3737
12402TIP3   OH258696   2.614   6.262  15.395 -0.4147 -0.0019  0.5733
12402TIP3    H158697   2.576   6.233  15.477  0.4821 -1.4561  0.4927
12402TIP3    H258698   2.707   6.239  15.401 -0.0139  1.3164 -0.1995
12403TIP3   OH258699   2.452   2.107  11.028  0.0091 -0.1626 -0.2041
12403TIP3    H158700   2.449   2.178  10.963  0.2586  0.4875  0.4877
12403TIP3    H258701   2.517   2.046  10.993  1.1046  0.8251  0.0683
12404TIP3   OH258702   2.760   4.894   4.825 -0.1403 -0.2239  0.3885
12404TIP3    H158703   2.731   4.898   4.734 -0.8299 -2.0965  0.4983
12404TIP3    H258704   2.844   4.940   4.826 -0.5016  0.4756 -1.0408
12405TIP3   OH258705   1.441   3.827  11.576  0.2396 -0.4425  0.0550
12405TIP3    H158706   1.438   3.910  11.528 -1.2944 -0.5045  0.0002
12405TIP3    H258707   1.415   3.761  11.511 -0.3677 -0.7170  0.5661
12406TIP3   OH258708   0.048   5.727   1.339 -0.2932 -0.4217 -0.5623
12406TIP3    H158709  -0.045   5.728   1.361 -0.0936  0.0997  0.2656
12406TIP3    H258710   0.080   5.813   1.364  0.5308 -0.7931 -0.3144
12407TIP3   OH258711   6.113   0.653   1.843  0.3298 -0.2895  0.3208
12407TIP3    H158712   6.027   0.657   1.883 -0.3256  0.3765 -1.1359
12407TIP3    H258713   6.174   0.654   1.917 -0.9048 -0.9115  1.3575
12408TIP3   OH258714   0.681   5.656  17.158  0.6401 -0.4017 -0.3970
12408TIP3    H158715   0.652   5.734  17.205  4.1175  0.9448 -0.3655
12408TIP3    H258716   0.632   5.657  17.076 -0.0747  1.2652  0.0307
12409TIP3   OH258717   2.330   0.768   5.484  0.7925 -0.0343  0.0658
12409TIP3    H158718   2.263   0.830   5.455  0.9742  0.6573  1.0905
12409TIP3    H258719   2.323   0.695   5.422 -1.0933 -0.1030  0.3129
12410TIP3   OH258720   1.369   3.236  14.362 -0.9677  0.2759 -0.1582
12410TIP3    H158721   1.399   3.326  14.346 -1.1909  0.3057 -0.4288
12410TIP3    H258722   1.399   3.215  14.450 -1.2703  0.7673  0.0655
12411TIP3   OH258723   0.955   2.860   6.697 -0.3968 -0.5762 -0.3679
12411TIP3    H158724   0.875   2.816   6.727 -1.6012  0.3309 -2.0852
12411TIP3    H258725   0.922   2.932   6.642  1.5998  0.2723 -0.4709
12412TIP3   OH258726   5.897   2.652  12.668  0.2266 -0.1591  0.4298
12412TIP3    H158727   5.850   2.696  12.598  0.1029 -1.0550 -0.0478
12412TIP3    H258728   5.986   2.642  12.635  0.6725  1.1854  1.1794
12413TIP3   OH258729   0.891   1.457  16.830  0.5877 -0.0973  0.4881
12413TIP3    H158730   0.803   1.492  16.818  0.7035  0.2596  0.6810
12413TIP3    H258731   0.904   1.400  16.754  0.5262  0.5358 -0.0052
12414TIP3   OH258732   2.687   2.034   1.815 -0.1782 -0.3227 -0.0477
12414TIP3    H158733   2.636   1.983   1.752  0.5054 -0.1287 -0.7774
12414TIP3    H258734   2.703   2.118   1.771 -0.8969  0.3480  0.9554
12415TIP3   OH258735   3.910   4.894  12.943 -0.0011 -0.5919 -0.3045
12415TIP3    H158736   3.887   4.983  12.916 -2.2421 -0.7770  0.9136
12415TIP3    H258737   3.977   4.866  12.880  1.3105  2.2253 -0.2358
12416TIP3   OH258738   4.050   0.568   0.118  0.1834 -0.7741  0.2285
12416TIP3    H158739   3.961   0.580   0.152 -0.2856  0.3026 -1.3127
12416TIP3    H258740   4.038   0.523   0.035  0.8931  1.2809 -1.0302
12417TIP3   OH258741   6.762   6.355   5.520  0.4185 -0.0999 -0.1489
12417TIP3    H158742   6.673   6.326   5.499  0.0265  0.7414  0.3217
12417TIP3    H258743   6.785   6.308   5.600 -0.1470  0.7259  0.5110
12418TIP3   OH258744   1.710   2.694   4.212 -0.3543  0.1394  0.4256
12418TIP3    H158745   1.784   2.755   4.207  0.9596 -1.3766  0.9819
12418TIP3    H258746   1.719   2.640   4.134 -0.6661 -0.3032  0.6979
12419TIP3   OH258747   2.869   3.028  16.376 -0.7212  0.5076  0.2342
12419TIP3    H158748   2.888   2.940  16.411  1.1908  0.4308 -0.9598
12419TIP3    H258749   2.792   3.056  16.425 -0.6461 -1.3537  1.4894
12420TIP3   OH258750   2.575   4.877   1.062  0.4515  0.0768 -0.2704
12420TIP3    H158751   2.637   4.806   1.047 -0.6711 -1.2237  1.1903
12420TIP3    H258752   2.504   4.861   0.999 -1.4791 -2.1207  2.3511
12421TIP3   OH258753   2.578   0.111   4.545  0.4204  0.0519  0.1078
12421TIP3    H158754   2.524   0.171   4.596  1.3918  0.3608  0.7842
12421TIP3    H258755   2.575   0.029   4.594 -0.4141 -0.2912 -0.4990
12422TIP3   OH258756   4.080   5.363   5.339 -0.0672  0.2944  0.0276
12422TIP3    H158757   4.026   5.284   5.347 -1.2741  0.8556 -2.2111
12422TIP3    H258758   4.026   5.433   5.374  1.1180  0.1422  2.2872
12423TIP3   OH258759   1.905   6.435   3.158 -0.1121 -0.2780  0.0938
12423TIP3    H158760   1.918   6.519   3.114 -0.5093 -0.7580 -0.9677
12423TIP3    H258761   1.906   6.456   3.251 -2.3088  1.2123 -0.1884
12424TIP3   OH258762   2.135   0.727   2.236 -0.0109 -0.6624 -0.2113
12424TIP3    H158763   2.158   0.796   2.174 -1.2367  0.2918  0.3920
12424TIP3    H258764   2.105   0.654   2.181 -1.7486  0.4274 -0.7184
12425TIP3   OH258765   6.768   0.918   0.723 -0.1954 -0.0913 -0.0003
12425TIP3    H158766   6.767   0.956   0.635 -0.8756 -1.0509 -0.4184
12425TIP3    H258767   6.747   0.825   0.709 -2.1717  0.1320  1.3443
12426TIP3   OH258768   6.330   6.747   2.283  0.2597 -0.0244 -0.0242
12426TIP3    H158769   6.347   6.807   2.356  0.0709  0.3952 -0.3242
12426TIP3    H258770   6.237   6.757   2.264  0.0555 -1.0290  0.4648
12427TIP3   OH258771   5.353   3.594   2.182  0.1184  0.5010 -0.4527
12427TIP3    H158772   5.351   3.583   2.277 -0.6101 -1.5094 -0.6806
12427TIP3    H258773   5.281   3.655   2.163  0.7058  1.4514  0.3300
12428TIP3   OH258774   0.128   0.416   0.892 -0.7474  0.2753 -0.2594
12428TIP3    H158775   0.131   0.502   0.850 -2.8675  0.8023  0.6273
12428TIP3    H258776   0.168   0.428   0.977 -1.4912  0.4995  0.0586
12429TIP3   OH258777   0.068   6.266  15.155  0.2623  0.3141 -0.6797
12429TIP3    H158778   0.087   6.314  15.074  2.0220  0.6816 -0.0873
12429TIP3    H258779   0.125   6.308  15.221  1.3106 -2.1233  0.0050
12430TIP3   OH258780   3.390   5.474  16.005  0.0042  0.0080 -0.0928
12430TIP3    H158781   3.481   5.447  16.014  0.6111  2.0099 -0.0479
12430TIP3    H258782   3.353   5.465  16.093  1.0482  2.2622  0.6093
12431TIP3   OH258783   0.228   5.441  11.549 -0.0834  0.0808 -0.2931
12431TIP3    H158784   0.232   5.507  11.480 -1.0615  0.3803 -0.0775
12431TIP3    H258785   0.167   5.376  11.515  0.3282 -0.3521 -0.1993
12432TIP3   OH258786   4.498   4.793   2.570  0.0242  0.0581 -0.6519
12432TIP3    H158787   4.542   4.794   2.485  1.0464  1.0457 -0.1268
12432TIP3    H258788   4.569   4.779   2.633 -0.4871  1.1957  0.1736
12433TIP3   OH258789   1.544   1.399  13.382  0.6243 -0.4103  0.3924
12433TIP3    H158790   1.495   1.457  13.440 -0.9014 -0.1543 -1.1119
12433TIP3    H258791   1.636   1.418  13.402  0.1276  0.4222  1.9617
12434TIP3   OH258792   2.178   4.843   5.016  0.0411  0.2241 -0.4896
12434TIP3    H158793   2.240   4.892   4.962  0.2367 -0.3278 -0.7659
12434TIP3    H258794   2.225   4.763   5.040 -0.7170 -0.3816 -1.0395
12435TIP3   OH258795   5.267   0.022  13.078  0.3797 -0.3206  0.0006
12435TIP3    H158796   5.186   0.024  13.027  0.4763 -2.0455 -0.2330
12435TIP3    H258797   5.334   0.053  13.017 -0.1645  1.6387  0.3561
12436TIP3   OH258798   4.184   3.252  17.207 -0.5955 -0.4260  0.3186
12436TIP3    H158799   4.248   3.309  17.164 -1.3110 -0.5486 -0.9356
12436TIP3    H258800   4.233   3.211  17.278  0.1283  1.1605  0.7563
12437TIP3   OH258801   0.219   5.544   3.651  1.1290 -0.6284  0.3483
12437TIP3    H158802   0.172   5.627   3.655  1.9118 -0.2308  1.9629
12437TIP3    H258803   0.193   5.498   3.731  0.9138 -1.8247 -0.3959
12438TIP3   OH258804   3.359   0.274   5.731  0.5273 -0.4475 -0.0664
12438TIP3    H158805   3.450   0.251   5.714  0.4752 -0.5985 -0.1384
12438TIP3    H258806   3.363   0.334   5.805  0.8026  0.7814 -1.0787
12439TIP3   OH258807   2.296   0.358  13.927  0.3942  0.6932 -0.1620
12439TIP3    H158808   2.320   0.432  13.870 -0.6965  1.2900  0.1338
12439TIP3    H258809   2.246   0.398  13.998 -1.4908 -0.4929 -0.7667
12440TIP3   OH258810   5.074   1.908  14.849  0.4492  0.2903 -0.3359
12440TIP3    H158811   5.015   1.869  14.913 -1.7503  1.8432 -1.3729
12440TIP3    H258812   5.070   2.002  14.867  0.7823  0.6266 -1.9268
12441TIP3   OH258813   1.238   0.715   1.892  0.3474  0.2090 -0.1063
12441TIP3    H158814   1.195   0.721   1.978 -1.0306 -1.4732 -0.6458
12441TIP3    H258815   1.330   0.732   1.910 -0.2729  2.3076  1.3365
12442TIP3   OH258816   2.028   3.742  11.710  0.3222  0.3750 -0.7075
12442TIP3    H158817   2.016   3.649  11.730  0.5573 -0.0499 -2.4080
12442TIP3    H258818   2.121   3.758  11.724  0.0208  0.7321  1.0016
12443TIP3   OH258819   0.159   2.904  12.411 -0.2711  0.2049  0.7462
12443TIP3    H158820   0.200   2.863  12.335 -0.2002 -0.4739  1.1473
12443TIP3    H258821   0.230   2.953  12.453 -0.7595  2.2216 -0.7326
12444TIP3   OH258822   3.322   5.500  13.908 -0.2376 -0.3454  0.4975
12444TIP3    H158823   3.357   5.550  13.982  0.3156 -0.4581  0.3105
12444TIP3    H258824   3.325   5.408  13.937  0.8318 -0.4758 -0.0115
12445TIP3   OH258825   6.582   2.402  17.050  0.5059  0.6293 -0.4868
12445TIP3    H158826   6.553   2.352  17.126 -0.7887  1.9462 -0.1045
12445TIP3    H258827   6.502   2.416  16.999  1.1597  0.8348 -1.4643
12446TIP3   OH258828   0.135   0.257   5.474 -0.0364  0.3854  0.0444
12446TIP3    H158829   0.163   0.166   5.468 -0.1493  0.3602 -0.1328
12446TIP3    H258830   0.159   0.295   5.389 -0.9458  0.2407 -0.2874
12447TIP3   OH258831   3.783   6.422  13.162  0.3710 -0.1579  0.0266
12447TIP3    H158832   3.771   6.331  13.191  3.4377 -1.0191 -1.2214
12447TIP3    H258833   3.814   6.467  13.240  2.3666 -1.0259 -0.2397
12448TIP3   OH258834   0.409   2.945  15.502 -0.1534  0.5522 -0.2117
12448TIP3    H158835   0.321   2.966  15.533  0.1849  0.7897  0.6051
12448TIP3    H258836   0.461   3.022  15.523  0.1766  0.5350 -0.9816
12449TIP3   OH258837   4.375   5.610  16.909  0.3426 -0.9177  0.3309
12449TIP3    H158838   4.441   5.576  16.849  0.5166 -1.0819  0.6195
12449TIP3    H258839   4.314   5.537  16.922 -1.8368  0.2543 -2.6605
12450TIP3   OH258840   0.634   1.597   5.762 -0.3879 -0.2176 -0.3488
12450TIP3    H158841   0.703   1.537   5.733  2.2017  2.4186  0.0426
12450TIP3    H258842   0.595   1.554   5.838  1.3163 -1.4670 -0.1502
12451TIP3   OH258843   0.855   2.728   2.890 -0.3937  0.2093 -0.0387
12451TIP3    H158844   0.930   2.786   2.900  0.1116 -0.4475  0.0392
12451TIP3    H258845   0.884   2.645   2.930 -1.2870  0.0691  0.3169
12452TIP3   OH258846   2.073   4.299   4.270  0.4679  0.0905 -0.1557
12452TIP3    H158847   2.096   4.382   4.313  1.2096 -0.7882  1.1659
12452TIP3    H258848   1.981   4.311   4.246  0.3051  0.9695  0.8320
12453TIP3   OH258849   0.542   3.130   2.686 -0.3637 -0.3127 -0.1451
12453TIP3    H158850   0.574   3.130   2.596 -2.0780  1.3928 -0.7868
12453TIP3    H258851   0.558   3.041   2.717  0.8190 -0.7417 -1.9213
12454TIP3   OH258852   1.573   6.022   6.302 -0.0069  1.0473 -0.1525
12454TIP3    H158853   1.592   5.933   6.275 -2.9996 -0.0525  1.1940
12454TIP3    H258854   1.659   6.061   6.320  1.4482 -0.8788 -2.7292
12455TIP3   OH258855   5.018   5.201   1.788 -0.1959  0.1212  0.8170
12455TIP3    H158856   5.102   5.179   1.747 -0.2333 -0.8356  1.2335
12455TIP3    H258857   5.013   5.296   1.782  0.2838  0.0817 -0.4450
12456TIP3   OH258858   1.850   6.024  13.083  0.0590  0.0992  0.2410
12456TIP3    H158859   1.900   5.960  13.134 -0.5043 -0.5085  0.0328
12456TIP3    H258860   1.896   6.030  13.000  0.3041  0.2155  0.3835
12457TIP3   OH258861   0.033   1.708  11.761 -0.0060 -0.0752  0.3146
12457TIP3    H158862  -0.028   1.644  11.723 -1.7217  2.4841 -1.4342
12457TIP3    H258863  -0.022   1.782  11.785  2.0949  1.2352  1.2136
12458TIP3   OH258864   0.869   1.892   5.436  0.3786 -0.1129 -0.1035
12458TIP3    H158865   0.933   1.846   5.382 -0.5615 -1.1711 -0.3373
12458TIP3    H258866   0.789   1.892   5.384  0.6213  2.7915 -0.5814
12459TIP3   OH258867   6.646   0.709  15.171  0.4829  0.1721  0.7356
12459TIP3    H158868   6.653   0.699  15.266 -0.2755  0.4992  0.8334
12459TIP3    H258869   6.641   0.620  15.137 -0.6608  0.0764  1.1271
12460TIP3   OH258870   2.265   0.041  13.293 -0.1951  0.1060 -0.4913
12460TIP3    H158871   2.323   0.099  13.243  1.1364 -0.0189  0.8651
12460TIP3    H258872   2.180   0.049  13.250  0.5255  1.2784 -1.7425
12461TIP3   OH258873   6.262   4.980   4.837 -0.2088  0.3579  0.7284
12461TIP3    H158874   6.237   5.067   4.870  0.1572  0.9744 -0.6043
12461TIP3    H258875   6.269   4.926   4.916  3.5090  2.5309  2.0467
12462TIP3   OH258876   6.308   2.186   2.656  0.3285  0.6135  0.2328
12462TIP3    H158877   6.299   2.281   2.667  0.3937  0.6311  0.1299
12462TIP3    H258878   6.389   2.164   2.702  1.3091  0.8837 -1.3261
12463TIP3   OH258879   4.301   5.793   0.404  0.2521  0.5936  0.2831
12463TIP3    H158880   4.322   5.830   0.490 -3.0667  2.3201  0.4183
12463TIP3    H258881   4.241   5.857   0.364  0.9176 -0.6926 -2.8902
12464TIP3   OH258882   3.414   4.359   1.957  0.1506  0.2992  0.3168
12464TIP3    H158883   3.360   4.297   2.006  0.5511 -0.7930 -0.6054
12464TIP3    H258884   3.498   4.314   1.945  0.2516  0.7824 -0.8564
12465TIP3   OH258885   6.174   5.553   2.969  0.0723 -0.7038  0.4719
12465TIP3    H158886   6.079   5.552   2.972  0.0964 -0.9960  2.0185
12465TIP3    H258887   6.197   5.498   2.895 -0.9639 -0.7414  0.1784
12466TIP3   OH258888   5.300   2.029  12.538 -0.3078 -0.2939 -0.1477
12466TIP3    H158889   5.230   1.984  12.585  0.1789 -0.5315  0.3666
12466TIP3    H258890   5.334   1.964  12.476  1.0271 -0.9681  1.2553
12467TIP3   OH258891   0.375   2.623   0.926  0.0945  0.0253  0.7032
12467TIP3    H158892   0.289   2.583   0.941 -1.1059  2.2788  0.0123
12467TIP3    H258893   0.414   2.626   1.013  0.2528 -2.6236  0.7846
12468TIP3   OH258894   5.802   5.361   1.454  0.3633  0.1183 -0.8048
12468TIP3    H158895   5.764   5.310   1.382  0.8886  0.5283 -1.3737
12468TIP3    H258896   5.849   5.296   1.507  1.9673  0.1638 -2.1390
12469TIP3   OH258897   1.806   6.201  16.735 -0.5984 -0.0911 -0.3801
12469TIP3    H158898   1.850   6.274  16.779  0.3313 -0.9818  0.1635
12469TIP3    H258899   1.865   6.178  16.663 -1.6504  0.7249 -1.5252
12470TIP3   OH258900   4.416   0.965  16.165  0.3610 -0.8569 -0.1705
12470TIP3    H158901   4.385   1.049  16.198 -0.3462 -0.9921 -0.4870
12470TIP3    H258902   4.510   0.966  16.181 -0.1396 -1.5987  3.3848
12471TIP3   OH258903   5.843   6.469   0.246  0.2476 -0.2382  0.3579
12471TIP3    H158904   5.899   6.456   0.169 -1.8869  1.4660 -1.5358
12471TIP3    H258905   5.763   6.421   0.226 -0.6180  0.8428  1.1855
12472TIP3   OH258906   0.549   6.544   1.778 -0.2395  0.3056  0.4952
12472TIP3    H158907   0.530   6.594   1.857  0.2426  1.5477 -0.1736
12472TIP3    H258908   0.463   6.527   1.739 -0.3778  0.8350  0.5767
12473TIP3   OH258909   5.340   0.955   0.971 -0.2332 -0.2042  0.3845
12473TIP3    H158910   5.362   0.862   0.964 -1.7186 -0.7227  2.2025
12473TIP3    H258911   5.276   0.971   0.903 -0.9028 -0.8194  0.8663
12474TIP3   OH258912   4.157   6.109   2.739  0.4674  0.0675 -0.4329
12474TIP3    H158913   4.162   6.084   2.831 -0.4099  1.0197 -0.1036
12474TIP3    H258914   4.111   6.037   2.697  0.5218 -0.1965 -0.0391
12475TIP3   OH258915   0.530   1.223  13.640  0.5726 -0.2626  0.3485
12475TIP3    H158916   0.467   1.272  13.692  1.2307 -1.2413  2.1196
12475TIP3    H258917   0.534   1.270  13.557 -1.8211  0.3114  0.5156
12476TIP3   OH258918   6.477   3.457  16.741  0.3902 -0.4959  0.8550
12476TIP3    H158919   6.525   3.456  16.824  1.3716 -0.1436  0.3002
12476TIP3    H258920   6.519   3.391  16.687  0.0878 -0.3609  0.4458
12477TIP3   OH258921   5.757   4.788   1.658 -0.1230 -0.1459  0.9196
12477TIP3    H158922   5.851   4.768   1.651 -0.1238  0.0566  0.3171
12477TIP3    H258923   5.739   4.783   1.752  0.0706 -2.0382  0.8807
12478TIP3   OH258924   5.588   4.026   2.506  0.1259  0.1095  0.2304
12478TIP3    H158925   5.665   4.046   2.560  0.8997 -0.9879 -0.4362
12478TIP3    H258926   5.534   4.104   2.513  0.7925  0.4853  1.5829
12479TIP3   OH258927   1.356   0.468   2.072  0.0336 -0.5105  0.1035
12479TIP3    H158928   1.269   0.454   2.109  0.2068  0.0827  0.7411
12479TIP3    H258929   1.351   0.429   1.984 -1.2096  0.5196 -0.3015
12480TIP3   OH258930   0.803   2.254   3.953 -0.0575 -0.4118  0.0598
12480TIP3    H158931   0.880   2.278   4.005 -0.2326 -1.7178  0.9272
12480TIP3    H258932   0.833   2.259   3.862  0.2922  1.7437  0.2572
12481TIP3   OH258933   1.369   2.584   3.231 -0.2709 -0.1613  0.3909
12481TIP3    H158934   1.338   2.667   3.267 -1.6510  0.1638 -1.4728
12481TIP3    H258935   1.450   2.566   3.279  0.4575  2.6303  0.3078
12482TIP3   OH258936   4.192   3.334  10.279  0.5175 -0.3060 -1.1160
12482TIP3    H158937   4.148   3.415  10.307  0.9461 -0.9561  1.5992
12482TIP3    H258938   4.143   3.305  10.203 -1.4441  0.9691 -0.3689
12483TIP3   OH258939   6.088   1.569  16.967 -0.2313 -0.6785  0.4444
12483TIP3    H158940   6.099   1.482  16.929  0.2593  0.1420 -1.3943
12483TIP3    H258941   5.995   1.576  16.988 -0.5995 -1.0380 -1.0079
12484TIP3   OH258942   1.591   0.172  15.872  0.0023  0.0074 -0.4310
12484TIP3    H158943   1.606   0.139  15.784 -0.3820 -0.4529 -0.3238
12484TIP3    H258944   1.672   0.216  15.895  0.3151 -0.3780 -0.7883
12485TIP3   OH258945   2.281   6.038  14.575 -0.0173  0.2282  0.2898
12485TIP3    H158946   2.189   6.049  14.552  0.0155  0.3616  0.2226
12485TIP3    H258947   2.308   5.958  14.531  0.5185  1.3997 -1.5687
12486TIP3   OH258948   1.444   0.261   0.953  0.1812  0.0631  0.0869
12486TIP3    H158949   1.513   0.287   1.014  0.8377 -0.2465 -0.5197
12486TIP3    H258950   1.480   0.187   0.905 -1.1009 -0.9967  0.7295
12487TIP3   OH258951   5.529   6.790   6.304 -0.6834 -0.3547 -0.1506
12487TIP3    H158952   5.552   6.882   6.295  0.4649 -0.7100 -1.0044
12487TIP3    H258953   5.612   6.745   6.320 -1.1018 -1.3480 -0.6664
12488TIP3   OH258954   5.817   0.571   1.815  0.1172 -0.1484  0.3190
12488TIP3    H158955   5.800   0.630   1.889 -0.6939  0.3206 -0.2399
12488TIP3    H258956   5.816   0.628   1.738 -0.7623 -0.9004 -0.2375
12489TIP3   OH258957   1.820   1.355  14.766  0.2543  0.1136  0.0741
12489TIP3    H158958   1.830   1.366  14.671  0.7551  0.2378  0.1411
12489TIP3    H258959   1.726   1.345  14.779  0.2756 -0.9548 -0.5513
12490TIP3   OH258960   6.663   3.124  16.372  0.3088  0.4194 -0.3836
12490TIP3    H158961   6.723   3.051  16.388 -0.6634 -0.1380  0.7852
12490TIP3    H258962   6.610   3.097  16.297  0.8892  0.5276 -0.8372
12491TIP3   OH258963   1.691   3.348   5.038  0.7828  0.2339  0.0595
12491TIP3    H158964   1.658   3.438   5.033 -0.4677 -0.1633  0.9608
12491TIP3    H258965   1.618   3.298   5.075  1.9125 -0.9270  0.7378
12492TIP3   OH258966   1.305   4.878   1.834  0.1589  0.2511  0.2836
12492TIP3    H158967   1.273   4.794   1.801 -1.9850  0.5360  1.5131
12492TIP3    H258968   1.300   4.871   1.929  1.7443  1.1207  0.4516
12493TIP3   OH258969   1.348   6.272  13.632 -0.3287 -0.3510  0.1686
12493TIP3    H158970   1.358   6.342  13.567 -1.0853  0.4650  0.9139
12493TIP3    H258971   1.412   6.206  13.606  2.0368  1.6535  0.8096
12494TIP3   OH258972   5.606   1.024   3.888 -0.2388  0.2171  0.7569
12494TIP3    H158973   5.573   0.946   3.844  0.2325  0.1097  0.5890
12494TIP3    H258974   5.696   1.032   3.857 -0.4056  1.0495  0.4577
12495TIP3   OH258975   3.179   0.232   1.252  0.2416 -0.4828 -0.8246
12495TIP3    H158976   3.217   0.249   1.338 -2.6774  1.0445  0.2469
12495TIP3    H258977   3.168   0.136   1.249  2.8454 -0.8147 -0.6577
12496TIP3   OH258978   1.855   0.368  13.560 -0.0038 -0.1279  0.2531
12496TIP3    H158979   1.917   0.313  13.608  1.4759 -1.0016 -2.5468
12496TIP3    H258980   1.789   0.307  13.527 -0.5760  0.3561  0.4823
12497TIP3   OH258981   4.817   5.610   5.692 -0.6053 -0.3495  0.6135
12497TIP3    H158982   4.893   5.668   5.697 -0.0188 -1.1487  1.0984
12497TIP3    H258983   4.742   5.669   5.703 -0.1099  0.5525 -0.6413
12498TIP3   OH258984   4.315   0.366  16.440  0.4043 -0.3918  0.0899
12498TIP3    H158985   4.321   0.320  16.356 -1.9315 -0.6074  0.0078
12498TIP3    H258986   4.235   0.332  16.481  0.1976  1.4652  1.3108
12499TIP3   OH258987   5.740   0.444   1.579  0.0684  0.3381 -0.0963
12499TIP3    H158988   5.738   0.458   1.673  1.5919 -1.2104  0.1825
12499TIP3    H258989   5.651   0.413   1.558  0.2198 -0.9569  1.1075
12500TIP3   OH258990   3.134   0.153  11.716  0.2428  0.4825 -0.0854
12500TIP3    H158991   3.205   0.114  11.767  0.0128  1.0250  0.6559
12500TIP3    H258992   3.176   0.225  11.668  0.0432  1.3125  0.9693
12501TIP3   OH258993   5.859   4.680   0.816  0.1184 -0.3378  0.0911
12501TIP3    H158994   5.871   4.671   0.911  2.0409 -0.1146 -0.1188
12501TIP3    H258995   5.891   4.768   0.796  0.0965 -0.5373 -0.8443
12502TIP3   OH258996   1.949   0.095   3.240  0.1655  0.0235  0.3710
12502TIP3    H158997   1.930   0.134   3.325 -2.7422  1.6909 -0.9933
12502TIP3    H258998   1.968   0.169   3.183 -0.8123 -0.8679 -1.1427
12503TIP3   OH258999   6.636   4.356   4.325 -0.3559  0.4006 -0.2919
12503TIP3    H159000   6.673   4.313   4.402 -1.3555 -0.5636 -0.3222
12503TIP3    H259001   6.671   4.306   4.251  0.2280  1.0279 -0.4382
12504TIP3   OH259002   5.348   2.031   2.316 -0.2294 -0.0609  0.0784
12504TIP3    H159003   5.351   2.060   2.407  0.3409  1.3263 -0.3805
12504TIP3    H259004   5.430   2.061   2.278 -0.7345 -0.0929 -1.0616
12505TIP3   OH259005   6.679   3.741  13.582  0.5879 -0.1597 -0.2036
12505TIP3    H159006   6.698   3.777  13.668 -2.1620 -0.3091  0.5148
12505TIP3    H259007   6.700   3.647  13.589  0.1588 -0.2127  0.3790
12506TIP3   OH259008   5.151   6.611   4.800 -0.2321  0.8936  0.2948
12506TIP3    H159009   5.065   6.648   4.818 -1.2086 -0.5603 -1.2323
12506TIP3    H259010   5.134   6.520   4.777  1.7348  0.5560  0.0359
12507TIP3   OH259011   2.664   3.881  12.732 -0.3499  0.2912  0.3653
12507TIP3    H159012   2.682   3.790  12.711 -0.9512  0.5216 -1.3028
12507TIP3    H259013   2.748   3.918  12.757 -0.2382 -0.8956  1.7938
12508TIP3   OH259014   4.671   6.312  11.329 -0.4547 -0.0911  0.3504
12508TIP3    H159015   4.595   6.319  11.388  0.7538 -1.7336  2.1589
12508TIP3    H259016   4.747   6.317  11.387  0.8513  1.6776 -1.4558
12509TIP3   OH259017   0.561   5.932   6.494  0.1743  0.2158 -0.5890
12509TIP3    H159018   0.637   5.916   6.550  1.3464  0.1084 -2.1716
12509TIP3    H259019   0.504   5.857   6.507  0.7903 -0.1710 -0.1180
12510TIP3   OH259020   5.535   6.110  13.788  0.5939  0.5940 -0.3369
12510TIP3    H159021   5.560   6.153  13.870 -0.6622 -1.7920  1.3721
12510TIP3    H259022   5.584   6.028  13.788 -1.9002 -0.9468 -0.3027
12511TIP3   OH259023   2.676   4.866   4.562 -0.4902  0.1283 -0.4890
12511TIP3    H159024   2.630   4.950   4.566 -0.4590  0.0823  0.7838
12511TIP3    H259025   2.719   4.867   4.476 -0.4937  1.4079 -0.4808
12512TIP3   OH259026   5.340   2.606   4.784 -0.0075  0.6093 -0.1917
12512TIP3    H159027   5.349   2.538   4.717  1.0631 -0.4676  1.0143
12512TIP3    H259028   5.377   2.567   4.863  0.6476  2.6284  0.5246
12513TIP3   OH259029   3.901   5.165   5.405  0.1384  0.0595 -0.2212
12513TIP3    H159030   3.908   5.209   5.490 -0.2715 -0.2518 -0.0203
12513TIP3    H259031   3.811   5.182   5.376  1.1132  2.5456 -1.9400
12514TIP3   OH259032   0.255   3.231  14.108 -0.2230 -0.0302 -0.3659
12514TIP3    H159033   0.237   3.162  14.172 -1.0152 -1.4999 -2.1459
12514TIP3    H259034   0.293   3.302  14.160 -1.8777 -0.7578  1.9164
12515TIP3   OH259035   3.671   3.513   5.401 -0.1999 -0.1874 -0.5999
12515TIP3    H159036   3.599   3.466   5.442  0.4476 -0.4679  0.2352
12515TIP3    H259037   3.734   3.444   5.378  0.2619  0.1516 -0.3657
12516TIP3   OH259038   4.973   0.955  11.016 -0.5783  0.6465 -0.5197
12516TIP3    H159039   4.967   1.033  11.070 -2.5186  0.2170 -0.0816
12516TIP3    H259040   4.883   0.922  11.011  0.1704 -1.4472 -0.8301
12517TIP3   OH259041   4.582   4.087   1.476  0.5310 -0.7104  0.0930
12517TIP3    H159042   4.547   4.176   1.484  1.1285 -0.4571 -0.0964
12517TIP3    H259043   4.505   4.031   1.480  0.3325 -0.3178  2.3692
12518TIP3   OH259044   3.368   1.488  14.040 -0.2949 -0.0613  0.4524
12518TIP3    H159045   3.375   1.470  13.946  1.5491  0.2815  0.5075
12518TIP3    H259046   3.299   1.554  14.047 -0.2205  0.1365 -0.6838
12519TIP3   OH259047   3.371   1.925   1.767 -0.0118  0.0077  0.1403
12519TIP3    H159048   3.307   1.868   1.810  0.3396 -0.4808  0.0227
12519TIP3    H259049   3.372   1.895   1.675 -0.7737  1.0571 -0.2099
12520TIP3   OH259050   1.217   0.166   5.310 -0.7230  0.6279  0.1694
12520TIP3    H159051   1.223   0.250   5.263 -0.8305  1.2964  1.3214
12520TIP3    H259052   1.294   0.166   5.367  0.5315 -1.1161 -1.4862
12521TIP3   OH259053   4.132   0.184  13.108 -0.0908  0.3261 -0.0819
12521TIP3    H159054   4.051   0.188  13.159 -1.2926  0.3861 -1.9802
12521TIP3    H259055   4.166   0.273  13.109 -1.8354  1.0526 -2.1096
12522TIP3   OH259056   3.944   1.996  15.114 -0.1894  0.9829  0.2984
12522TIP3    H159057   4.030   1.956  15.102 -1.3794 -1.5571 -0.2308
12522TIP3    H259058   3.960   2.074  15.167  2.4608  0.7332 -0.0789
12523TIP3   OH259059   2.551   6.073  16.437  0.1290  0.1619  0.7735
12523TIP3    H159060   2.536   5.999  16.378 -0.9488  0.1436  1.0469
12523TIP3    H259061   2.581   6.143  16.380 -2.8871  0.7771 -0.1516
12524TIP3   OH259062   2.278   5.759   2.212  0.3030 -0.1959  0.1635
12524TIP3    H159063   2.259   5.823   2.143 -0.8280 -1.2846 -0.5608
12524TIP3    H259064   2.213   5.690   2.198  0.2144 -0.5356  2.1814
12525TIP3   OH259065   3.463   1.051  16.219 -0.4331 -0.1111 -0.0860
12525TIP3    H159066   3.442   0.966  16.257 -3.1398  0.3914 -0.3596
12525TIP3    H259067   3.511   1.097  16.289  0.5947 -1.6614  0.2341
12526TIP3   OH259068   0.875   1.401  15.826  0.1116  0.5524  0.0933
12526TIP3    H159069   0.921   1.482  15.802  0.3883  0.2817 -0.3125
12526TIP3    H259070   0.831   1.374  15.745  1.5190 -0.6809 -0.3010
12527TIP3   OH259071   3.429   2.730   4.742 -0.0488 -0.0136  0.0874
12527TIP3    H159072   3.341   2.747   4.710  0.8171  1.0879 -1.7654
12527TIP3    H259073   3.446   2.638   4.719 -0.9523 -0.4441  1.0881
12528TIP3   OH259074   2.470   5.542   3.592 -0.0648 -0.1054 -0.0129
12528TIP3    H159075   2.554   5.529   3.636 -0.0011 -1.8748 -0.5852
12528TIP3    H259076   2.405   5.515   3.656 -0.0154 -1.7617 -0.6127
12529TIP3   OH259077   4.455   1.225   1.082  0.6795 -0.3868 -0.4944
12529TIP3    H159078   4.375   1.194   1.125  0.7512 -1.2299 -0.9521
12529TIP3    H259079   4.526   1.183   1.131  0.8063 -0.3459 -0.6435
12530TIP3   OH259080   3.772   0.402  13.874  0.3451 -0.3511 -0.9536
12530TIP3    H159081   3.758   0.415  13.780 -1.2190  0.0858 -0.6761
12530TIP3    H259082   3.690   0.362  13.905  0.8437 -0.4732  0.2216
12531TIP3   OH259083   3.157   2.025   4.550  0.6723 -0.1660  0.0979
12531TIP3    H159084   3.212   1.982   4.615  2.5003 -0.5244 -1.6150
12531TIP3    H259085   3.214   2.091   4.510 -0.6732  0.6412 -0.5238
12532TIP3   OH259086   2.142   0.362   2.451 -0.0243 -0.7547  0.3007
12532TIP3    H159087   2.069   0.415   2.485  0.5754  0.5728 -0.4288
12532TIP3    H259088   2.220   0.414   2.471  0.6547 -1.7524  0.2804
12533TIP3   OH259089   5.248   0.398   6.512 -1.0850 -0.2305 -0.1487
12533TIP3    H159090   5.298   0.317   6.507 -0.3841  0.3294 -2.4252
12533TIP3    H259091   5.287   0.455   6.447 -3.0000  1.1568 -0.1193
12534TIP3   OH259092   5.688   5.543   0.031  0.0233  0.6726 -0.1186
12534TIP3    H159093   5.760   5.569   0.089  3.1901 -1.8809 -2.7584
12534TIP3    H259094   5.659   5.458   0.065 -0.3402  0.7146 -0.3160
12535TIP3   OH259095   6.606   0.697   6.879  0.7677  0.3216  0.3747
12535TIP3    H159096   6.698   0.699   6.905  1.3862 -0.6085 -1.6853
12535TIP3    H259097   6.607   0.719   6.786 -1.2413  1.7929  0.6791
12536TIP3   OH259098   5.752   4.162   0.825  0.2736  0.0354 -0.6616
12536TIP3    H159099   5.819   4.231   0.826  0.0506  0.2473 -0.0790
12536TIP3    H259100   5.782   4.100   0.758  0.5011  0.6747 -1.1581
12537TIP3   OH259101   3.283   5.901   2.898 -0.1635  0.4190  0.7298
12537TIP3    H159102   3.196   5.917   2.861  0.5984  2.2288 -0.3319
12537TIP3    H259103   3.270   5.825   2.956 -2.1055 -0.3238 -0.5959
12538TIP3   OH259104   6.593   5.748   1.470 -0.2206 -0.4433 -0.2107
12538TIP3    H159105   6.595   5.657   1.497 -0.3156  0.2115  2.1049
12538TIP3    H259106   6.505   5.761   1.435 -0.2479 -1.2034 -0.4232
12539TIP3   OH259107   3.614   1.948   4.157 -0.1232  0.4697  0.2248
12539TIP3    H159108   3.549   1.916   4.095 -0.6368  0.6693  0.6594
12539TIP3    H259109   3.567   1.954   4.241  0.5137  0.3819  0.5928
12540TIP3   OH259110   4.653   1.010  16.649  0.2937  0.4155  0.2176
12540TIP3    H159111   4.675   1.090  16.698 -1.1510  0.6133  0.5556
12540TIP3    H259112   4.581   1.035  16.592  0.2882 -0.4827 -0.1846
12541TIP3   OH259113   3.811   4.976  17.122  0.0595  0.5793  0.5429
12541TIP3    H159114   3.772   5.027  17.051 -0.9238 -0.8619  0.0223
12541TIP3    H259115   3.737   4.929  17.161  0.6529  1.0190  2.2682
12542TIP3   OH259116   0.560   3.568  16.940 -0.3906  0.3816 -0.3565
12542TIP3    H159117   0.572   3.632  16.870 -0.5250  0.7390 -0.0520
12542TIP3    H259118   0.563   3.619  17.020  1.4749 -0.2534  0.0022
12543TIP3   OH259119   2.692   4.028  11.213  0.2355  0.2946 -0.1436
12543TIP3    H159120   2.736   3.974  11.148 -0.2578  1.1175 -1.1699
12543TIP3    H259121   2.723   3.994  11.297  0.4769 -1.1041 -0.7877
12544TIP3   OH259122   5.851   0.632   3.388 -0.2102  0.1791 -0.0617
12544TIP3    H159123   5.870   0.653   3.296  1.0234 -1.5994 -0.2365
12544TIP3    H259124   5.918   0.680   3.437 -0.1368  0.1806 -0.1617
12545TIP3   OH259125   1.280   3.736  11.826  0.5423 -0.6615 -0.4719
12545TIP3    H159126   1.298   3.797  11.897 -1.7138 -1.3066  0.7163
12545TIP3    H259127   1.329   3.770  11.751  1.8777  0.7702  1.0315
12546TIP3   OH259128   3.817   0.936  16.144  0.4580  0.6253  0.2216
12546TIP3    H159129   3.766   0.874  16.092 -0.8357  0.6759  1.3842
12546TIP3    H259130   3.761   1.014  16.151  1.9271  1.8106 -0.9361
12547TIP3   OH259131   5.187   1.841   3.968  0.1473 -0.7277  0.1643
12547TIP3    H159132   5.182   1.750   3.939  2.4691 -0.6288 -0.5766
12547TIP3    H259133   5.118   1.885   3.918 -0.5519 -1.9164  0.0370
12548TIP3   OH259134   1.161   2.257  15.054 -0.0243 -0.2124 -0.7574
12548TIP3    H159135   1.254   2.242  15.036  0.1490 -0.3610  0.2096
12548TIP3    H259136   1.161   2.309  15.135 -0.8308 -2.5643  0.8173
12549TIP3   OH259137   5.910   0.925  16.845 -0.5395  0.5730  0.3673
12549TIP3    H159138   5.912   0.839  16.888 -0.0556  0.4474  0.0947
12549TIP3    H259139   5.817   0.945  16.837 -0.6623 -0.0892  0.1052
12550TIP3   OH259140   0.359   1.760   6.053 -0.1036 -0.2241  0.3726
12550TIP3    H159141   0.442   1.725   6.085 -0.7773 -1.7428  0.5140
12550TIP3    H259142   0.362   1.853   6.076  1.3224 -0.3757  0.8597
12551TIP3   OH259143   4.042   4.213  15.591  0.3759  0.0925 -0.2384
12551TIP3    H159144   4.063   4.122  15.571  0.0601 -0.0068 -0.1303
12551TIP3    H259145   3.956   4.227  15.551  0.2038  0.1957  0.1677
12552TIP3   OH259146   0.454   2.618   1.801 -0.5752 -0.3478 -0.2862
12552TIP3    H159147   0.370   2.592   1.762 -2.0266  0.7625  1.9737
12552TIP3    H259148   0.498   2.535   1.820 -2.0144 -1.0294  0.2356
12553TIP3   OH259149   5.444   0.434  10.978 -0.5976  0.0407  0.3837
12553TIP3    H159150   5.409   0.346  10.963 -1.0529  0.1844  0.5794
12553TIP3    H259151   5.539   0.422  10.981 -0.7490 -0.7502  2.3963
12554TIP3   OH259152   1.608   0.322  16.346  0.0203 -0.0381 -0.1072
12554TIP3    H159153   1.562   0.367  16.417  1.5254  0.5203  0.5457
12554TIP3    H259154   1.631   0.237  16.384 -1.0293 -0.5761 -0.6545
12555TIP3   OH259155   6.451   6.104  11.363 -0.1448 -0.3504  0.2028
12555TIP3    H159156   6.404   6.112  11.446 -1.9194 -1.7916 -0.6382
12555TIP3    H259157   6.388   6.064  11.303  2.1420 -2.3000 -0.9783
12556TIP3   OH259158   4.043   2.755   4.952 -0.5943  0.4166 -0.8026
12556TIP3    H159159   4.075   2.692   5.018 -1.6317  1.9012  1.1854
12556TIP3    H259160   4.122   2.794   4.916  0.0349 -1.2348 -1.2826
12557TIP3   OH259161   6.294   2.249   1.930 -0.2550 -0.9780  0.3175
12557TIP3    H159162   6.381   2.213   1.917  1.4609  3.0070 -0.0579
12557TIP3    H259163   6.254   2.249   1.843  0.9039  0.7586 -0.2396
12558TIP3   OH259164   6.332   5.315  16.845 -0.0518 -0.2266 -0.3721
12558TIP3    H159165   6.336   5.289  16.753  1.8046 -0.4425 -0.2501
12558TIP3    H259166   6.373   5.242  16.892  0.5367  0.6432  0.4721
12559TIP3   OH259167   2.463   1.265   2.752 -0.6909  0.0817  0.5891
12559TIP3    H159168   2.525   1.279   2.824 -0.0905  0.0710  0.0770
12559TIP3    H259169   2.453   1.352   2.712  0.4462 -0.2716 -0.4958
12560TIP3   OH259170   6.022   6.220  14.889 -0.4152 -0.3302  0.3729
12560TIP3    H159171   6.116   6.220  14.868 -0.3708  0.4038  0.5449
12560TIP3    H259172   6.014   6.284  14.960 -1.0253 -0.5003  0.4566
12561TIP3   OH259173   4.091   1.283   5.782  0.6112  0.4323 -0.0864
12561TIP3    H159174   4.172   1.312   5.742  0.9095  0.5223  0.5816
12561TIP3    H259175   4.115   1.204   5.832  0.0143 -0.3621 -1.0341
12562TIP3   OH259176   5.607   2.460   5.633 -0.5596  0.1088 -0.5733
12562TIP3    H159177   5.607   2.526   5.702 -0.0566  2.0147 -2.3336
12562TIP3    H259178   5.550   2.498   5.565 -0.9356 -1.6538 -1.2532
12563TIP3   OH259179   6.110   0.074   2.131  0.3828  0.4082  0.1194
12563TIP3    H159180   6.162   0.150   2.158  3.3155 -1.4773  0.0403
12563TIP3    H259181   6.089   0.091   2.040  0.3619  1.4788  0.3092
12564TIP3   OH259182   2.076   1.278   6.370 -0.1039  0.1167  0.6095
12564TIP3    H159183   2.025   1.220   6.426 -2.6758  2.8761  1.2444
12564TIP3    H259184   2.121   1.337   6.432 -1.0813  1.6394 -0.0883
12565TIP3   OH259185   6.750   1.009  14.515  0.4785  0.1213  0.2193
12565TIP3    H159186   6.790   1.095  14.498 -0.8135  0.4797 -1.1041
12565TIP3    H259187   6.794   0.978  14.594  0.6390  2.2115  0.9879
12566TIP3   OH259188   6.783   4.022   0.517 -0.3777 -0.6100 -0.3391
12566TIP3    H159189   6.755   3.956   0.452 -1.4520 -0.7948  0.2986
12566TIP3    H259190   6.710   4.083   0.522 -0.3770 -0.7033  0.8521
12567TIP3   OH259191   2.915   5.977   0.244  0.0233 -0.0112 -0.0977
12567TIP3    H159192   2.844   6.035   0.271 -1.3827 -0.7622 -2.0725
12567TIP3    H259193   2.957   5.950   0.326 -1.4426  1.0856  1.0356
12568TIP3   OH259194   6.550   1.611  15.960 -0.1303 -0.0268  0.5509
12568TIP3    H159195   6.607   1.676  16.002  0.3483  0.7299 -1.2064
12568TIP3    H259196   6.528   1.549  16.029 -1.4100  2.5675  2.5553
12569TIP3   OH259197   0.145   3.594   5.767 -0.1023 -0.0895  1.0863
12569TIP3    H159198   0.148   3.507   5.805  1.1221 -0.6440 -0.2183
12569TIP3    H259199   0.236   3.624   5.768  0.1290 -0.4725 -2.1307
12570TIP3   OH259200   1.895   5.792   4.043 -0.0257 -0.0083 -0.0344
12570TIP3    H159201   1.919   5.735   4.116 -1.2949  1.0107  1.2050
12570TIP3    H259202   1.976   5.840   4.022  0.2020  0.1096  1.0801
12571TIP3   OH259203   3.539   1.840  16.323 -0.5266  0.2655  0.2481
12571TIP3    H159204   3.563   1.886  16.403 -3.0186  1.8581  0.1064
12571TIP3    H259205   3.483   1.901  16.275 -0.7236 -1.4324 -1.7744
12572TIP3   OH259206   2.329   2.626   3.166 -0.1559  0.1497 -0.4038
12572TIP3    H159207   2.294   2.659   3.083 -1.3193  1.4037  0.5701
12572TIP3    H259208   2.349   2.534   3.149 -1.8229  0.0018 -1.6254
12573TIP3   OH259209   6.201   5.080  15.996  0.0920  0.3045  0.0875
12573TIP3    H159210   6.226   5.166  15.962  2.4328 -0.2351  0.3655
12573TIP3    H259211   6.221   5.019  15.926 -2.4018  0.0421 -0.4470
12574TIP3   OH259212   1.285   2.298   5.765  0.4728  0.5942 -0.0547
12574TIP3    H159213   1.198   2.323   5.733 -0.0877  0.6568  1.4855
12574TIP3    H259214   1.324   2.379   5.797  0.5432  0.3378  0.5319
12575TIP3   OH259215   4.480   0.309   2.579 -0.4631 -0.0810 -0.1452
12575TIP3    H159216   4.396   0.267   2.559 -0.9066  0.8529 -0.2567
12575TIP3    H259217   4.459   0.373   2.647  0.3803 -0.6868  0.6890
12576TIP3   OH259218   3.323   0.131   6.261 -0.8235  0.5598  0.1263
12576TIP3    H159219   3.277   0.091   6.335 -0.8893 -0.5106 -0.4804
12576TIP3    H259220   3.256   0.179   6.214 -1.4312 -1.3391 -0.9890
12577TIP3   OH259221   4.683   0.303   3.829 -0.0662 -0.1325  0.9634
12577TIP3    H159222   4.738   0.249   3.886  1.3766  0.2699 -0.0254
12577TIP3    H259223   4.620   0.241   3.792  1.2369 -1.0771  0.2445
12578TIP3   OH259224   0.156   1.065  11.671  0.0926 -0.6272  0.6627
12578TIP3    H159225   0.242   1.094  11.640  0.5894 -0.4819  2.1159
12578TIP3    H259226   0.141   1.117  11.750 -1.5789 -0.2762  0.1225
12579TIP3   OH259227   2.227   5.995   5.112  0.4419  0.6403  0.1210
12579TIP3    H159228   2.255   5.906   5.090 -0.2603  0.6947 -1.0455
12579TIP3    H259229   2.255   6.007   5.203 -0.0048 -0.9925  0.4966
12580TIP3   OH259230   4.096   4.391   0.964  0.1631  0.0953 -0.9285
12580TIP3    H159231   4.157   4.342   1.018 -1.1514  0.1582  0.6466
12580TIP3    H259232   4.084   4.474   1.010 -0.1859  0.5716 -1.8551
12581TIP3   OH259233   1.605   3.462  13.722 -0.4766  0.2232 -0.4669
12581TIP3    H159234   1.678   3.445  13.781  0.2521  1.1621 -1.0874
12581TIP3    H259235   1.528   3.429  13.769  0.1770  0.3591  0.7211
12582TIP3   OH259236   2.222   1.140  13.227  0.3958 -0.7221 -0.0341
12582TIP3    H159237   2.251   1.079  13.295  2.2262 -0.3625 -0.4726
12582TIP3    H259238   2.137   1.106  13.199  0.2346 -1.6317  1.4947
12583TIP3   OH259239   4.482   4.634  15.796  0.5484 -0.0999 -0.0365
12583TIP3    H159240   4.507   4.723  15.820  0.1895 -0.2523  0.9519
12583TIP3    H259241   4.560   4.597  15.755  0.7665  0.5982 -0.2569
12584TIP3   OH259242   6.401   1.360  15.662  0.3132  0.2532  0.2706
12584TIP3    H159243   6.495   1.341  15.650  1.0553  3.4985  0.5421
12584TIP3    H259244   6.373   1.395  15.577  0.1993  2.4170  1.1693
12585TIP3   OH259245   6.713   1.450   1.921 -0.1984  0.5276  0.4140
12585TIP3    H159246   6.719   1.416   2.011  0.5076 -4.6790 -1.4432
12585TIP3    H259247   6.795   1.499   1.908 -0.5499  1.8102  2.7131
12586TIP3   OH259248   3.363   0.902   2.324  0.1172  0.2769 -0.0079
12586TIP3    H159249   3.335   0.824   2.276  2.0074 -1.8645  2.2368
12586TIP3    H259250   3.454   0.914   2.297  0.3657  0.6490  0.9758
12587TIP3   OH259251   3.938   6.583   6.108  0.9278 -0.0660  0.4125
12587TIP3    H159252   3.857   6.557   6.153  2.1033 -4.4925  0.2209
12587TIP3    H259253   3.916   6.579   6.015  1.2672 -1.0639  0.3672
12588TIP3   OH259254   6.167   6.549   4.045 -0.9003  0.0254  0.0667
12588TIP3    H159255   6.172   6.644   4.051 -0.6382  0.1732 -2.2267
12588TIP3    H259256   6.258   6.520   4.035 -1.1563 -0.2851 -1.4933
12589TIP3   OH259257   0.045   0.535   4.442  0.1120  0.0617  0.0325
12589TIP3    H159258   0.062   0.568   4.530  0.3564 -2.8344  1.1409
12589TIP3    H259259  -0.050   0.523   4.440  0.3577 -2.3506  0.8943
12590TIP3   OH259260   3.924   3.653   4.151 -0.2003  0.0727  0.1119
12590TIP3    H159261   3.950   3.724   4.209 -1.6611  1.0722 -0.4182
12590TIP3    H259262   4.001   3.636   4.097  0.2342  1.1243  0.3859
12591TIP3   OH259263   1.963   1.291   4.347  0.6083  0.2468 -0.3173
12591TIP3    H159264   1.934   1.339   4.424  0.5452  2.2300 -1.5572
12591TIP3    H259265   1.907   1.322   4.276  0.3787 -1.8638 -1.1171
12592TIP3   OH259266   4.433   6.332  12.853  0.4691 -0.4597 -0.3417
12592TIP3    H159267   4.442   6.246  12.813 -0.5967 -0.3951 -0.7469
12592TIP3    H259268   4.523   6.363  12.865  0.8478  0.0136 -3.8242
12593TIP3   OH259269   6.263   0.229  14.957  0.3261 -0.6248  0.3257
12593TIP3    H159270   6.343   0.281  14.945 -0.2350 -0.2967 -2.3960
12593TIP3    H259271   6.247   0.231  15.051  1.6177  2.1976  0.5423
12594TIP3   OH259272   3.808   6.418  13.931  0.0991 -0.3357 -0.5178
12594TIP3    H159273   3.866   6.468  13.874  1.9815 -1.2477  0.5490
12594TIP3    H259274   3.735   6.393  13.875  1.1842  0.0546 -2.1390
12595TIP3   OH259275   2.195   6.496  16.330 -0.0486  0.2801  0.3519
12595TIP3    H159276   2.185   6.553  16.254  0.4082  0.4570  0.4187
12595TIP3    H259277   2.200   6.557  16.404  1.8093  0.2356  0.2905
12596TIP3   OH259278   6.439   2.727  11.595 -0.3352 -0.1335 -0.6790
12596TIP3    H159279   6.363   2.673  11.573 -1.3214  1.2363 -0.6999
12596TIP3    H259280   6.404   2.816  11.601  0.9886  0.2979  0.8494
12597TIP3   OH259281   0.605   4.498   5.217 -0.0113 -0.1897 -0.8537
12597TIP3    H159282   0.530   4.534   5.263 -0.2572 -1.6779 -0.0601
12597TIP3    H259283   0.569   4.427   5.164  0.5555  0.3071 -1.9288
12598TIP3   OH259284   0.924   2.644   0.856 -0.6007  0.1532 -0.1864
12598TIP3    H159285   0.857   2.668   0.792 -2.2541  1.4036  1.9476
12598TIP3    H259286   0.989   2.714   0.850  0.2721 -0.7806 -1.8847
12599TIP3   OH259287   5.057   0.445   1.868 -0.7552  0.3709 -0.2016
12599TIP3    H159288   5.143   0.437   1.909 -0.2198  2.3816 -0.8782
12599TIP3    H259289   4.996   0.408   1.932  0.3000  1.4075  1.4319
12600TIP3   OH259290   3.124   2.418   4.680 -0.2960 -0.7318 -0.4318
12600TIP3    H159291   3.038   2.376   4.685 -0.2888 -0.5725  1.9790
12600TIP3    H259292   3.156   2.417   4.771  2.3898 -1.0905 -1.3390
12601TIP3   OH259293   3.955   4.228  11.123  0.2576  0.1003  0.2665
12601TIP3    H159294   3.980   4.142  11.090 -2.0671 -0.2915 -0.5892
12601TIP3    H259295   4.013   4.244  11.197  2.9386 -0.7292 -1.6063
12602TIP3   OH259296   2.990   4.374   4.873 -0.4565  0.3334  0.2013
12602TIP3    H159297   2.981   4.468   4.891 -2.1131  0.4878 -1.2280
12602TIP3    H259298   2.952   4.331   4.949  1.0881  0.7867  1.2595
12603TIP3   OH259299   6.082   3.692   3.025  0.0988  0.1234  0.1430
12603TIP3    H159300   5.988   3.704   3.006  0.1702  2.5387  1.1335
12603TIP3    H259301   6.114   3.637   2.953 -1.5829  1.2692 -1.5425
12604TIP3   OH259302   0.522   2.551   5.831  0.1777  0.6483  0.0883
12604TIP3    H159303   0.541   2.568   5.923 -1.0401  1.7068  0.1635
12604TIP3    H259304   0.461   2.478   5.832 -0.0836  0.8643  0.1499
12605TIP3   OH259305   5.801   4.365  15.567 -0.3484 -0.2659 -0.1923
12605TIP3    H159306   5.834   4.327  15.649 -2.6720 -0.1168  0.8460
12605TIP3    H259307   5.819   4.458  15.576  0.4440 -0.3959 -0.3692
12606TIP3   OH259308   6.584   1.155   6.055 -0.1549  0.0053 -0.0090
12606TIP3    H159309   6.573   1.232   5.999  1.0348  0.9664  1.0396
12606TIP3    H259310   6.599   1.191   6.142  0.3920 -1.4209  0.4932
12607TIP3   OH259311   2.114   6.513  13.021 -0.3998 -0.5832  0.5408
12607TIP3    H159312   2.043   6.448  13.022 -0.0826 -0.9333  0.2451
12607TIP3    H259313   2.189   6.466  13.057  0.6691 -1.3265 -2.5798
12608TIP3   OH259314   4.283   3.300   4.485 -0.6107  0.5840 -0.2755
12608TIP3    H159315   4.239   3.352   4.417 -1.1029  0.5091 -0.0196
12608TIP3    H259316   4.218   3.234   4.510 -0.0972  0.0298 -0.3886
12609TIP3   OH259317   2.562   5.734   5.225  0.2706  0.0621  0.4955
12609TIP3    H159318   2.566   5.655   5.279  1.1483 -0.4330 -0.2886
12609TIP3    H259319   2.555   5.806   5.288  0.7092 -0.5545  1.2498
12610TIP3   OH259320   1.190   2.859  16.502  0.5441 -0.0399  0.4710
12610TIP3    H159321   1.174   2.853  16.596  0.6659 -2.0074  0.3754
12610TIP3    H259322   1.124   2.921  16.470  1.1185  1.4020  1.9856
12611TIP3   OH259323   3.447   2.433  14.535 -0.3612 -0.2046 -0.4631
12611TIP3    H159324   3.405   2.472  14.458  0.6078  0.8279 -0.4734
12611TIP3    H259325   3.540   2.437  14.515 -0.1173 -0.0744  0.7092
12612TIP3   OH259326   1.690   3.840   6.203  0.7403 -0.2716 -0.5394
12612TIP3    H159327   1.720   3.757   6.242 -0.8420  0.6080  2.7846
12612TIP3    H259328   1.770   3.883   6.174  1.7919 -2.0001 -0.2901
12613TIP3   OH259329   6.546   2.482   3.766  0.3921 -0.0756 -0.3048
12613TIP3    H159330   6.529   2.550   3.701 -2.0393  0.7635  1.1330
12613TIP3    H259331   6.616   2.519   3.820  0.9589  0.1236 -1.1607
12614TIP3   OH259332   3.882   0.070  11.932 -0.2383  0.1334 -0.5212
12614TIP3    H159333   3.938   0.109  11.999  0.2317  0.3132 -1.0190
12614TIP3    H259334   3.914  -0.019  11.922 -0.1516  0.1809 -0.6755
12615TIP3   OH259335   5.349   2.398  16.497 -0.1766 -0.0062 -0.0673
12615TIP3    H159336   5.408   2.344  16.549 -2.5510 -2.1656  0.5087
12615TIP3    H259337   5.342   2.480  16.544  1.1855 -0.2984  0.6434
12616TIP3   OH259338   5.358   0.209  13.987 -0.0631 -0.3195  0.3328
12616TIP3    H159339   5.284   0.223  14.046 -2.5734 -1.1103 -2.5077
12616TIP3    H259340   5.349   0.118  13.960 -0.0776  0.5364 -2.6772
12617TIP3   OH259341   3.109   2.456  12.619 -0.2888 -0.1340 -0.0410
12617TIP3    H159342   3.039   2.492  12.564 -0.0590  0.2223 -0.1017
12617TIP3    H259343   3.116   2.517  12.692  0.6439  0.3870 -0.5548
12618TIP3   OH259344   5.315   0.236   2.492 -0.0763  0.5917 -0.1604
12618TIP3    H159345   5.286   0.312   2.542  0.7103  0.8156 -0.0421
12618TIP3    H259346   5.241   0.215   2.435  0.2257  2.3098 -1.2136
12619TIP3   OH259347   2.596   5.067   5.433  0.6628  0.4796  0.3221
12619TIP3    H159348   2.572   4.996   5.375  3.0786  0.2650 -0.4625
12619TIP3    H259349   2.603   5.144   5.376 -0.3166  1.0118  0.8983
12620TIP3   OH259350   2.195   3.988   1.767 -0.3229  0.2122  0.0315
12620TIP3    H159351   2.231   3.904   1.737 -1.6136 -0.0309 -0.8886
12620TIP3    H259352   2.216   3.991   1.860  1.2475 -0.3485 -0.2880
12621TIP3   OH259353   2.958   1.085   0.946 -0.0135 -0.0053  0.1059
12621TIP3    H159354   2.894   1.093   1.017 -1.7330 -3.0251 -0.9828
12621TIP3    H259355   3.037   1.053   0.989 -0.1438  0.8983  1.0469
12622TIP3   OH259356   1.121   1.779  12.460 -0.0446  0.1699 -0.6784
12622TIP3    H159357   1.137   1.688  12.435 -0.9079 -0.3840  0.7462
12622TIP3    H259358   1.030   1.795  12.437 -0.2488  0.2908  0.1919
12623TIP3   OH259359   0.052   6.654   0.625  0.0146  0.3295 -0.1637
12623TIP3    H159360  -0.000   6.729   0.597 -1.6477  0.3609  2.7507
12623TIP3    H259361  -0.001   6.578   0.600 -0.3761  0.2893  0.7663
12624TIP3   OH259362   4.700   2.697   0.866 -0.4822  0.6457  0.2221
12624TIP3    H159363   4.689   2.658   0.779  0.5014  0.5242  0.1404
12624TIP3    H259364   4.673   2.788   0.855  0.9110  0.9830 -0.5504
12625TIP3   OH259365   5.730   4.774   3.658  0.1472  0.2453 -0.1552
12625TIP3    H159366   5.635   4.775   3.653  0.0245 -2.7354  0.9855
12625TIP3    H259367   5.751   4.822   3.738 -0.3589  1.0609 -0.5025
12626TIP3   OH259368   4.692   2.185  13.985 -0.1076  0.3906  0.9001
12626TIP3    H159369   4.774   2.172  13.936  0.1511  1.2138  1.1127
12626TIP3    H259370   4.624   2.190  13.917  0.3818  2.6207  0.5420
12627TIP3   OH259371   3.728   4.457  13.420  0.4571 -0.7766 -0.3940
12627TIP3    H159372   3.643   4.494  13.442  1.2834  1.8115 -1.4190
12627TIP3    H259373   3.791   4.519  13.456  1.9207 -2.2660 -0.3442
12628TIP3   OH259374   0.660   3.710   3.725  0.2878  0.5214 -0.0664
12628TIP3    H159375   0.651   3.669   3.811 -1.5510 -0.6309 -0.7907
12628TIP3    H259376   0.640   3.639   3.663 -1.5526  2.1470 -1.3685
12629TIP3   OH259377   1.408   1.467  15.484 -0.4425  0.7539 -0.0074
12629TIP3    H159378   1.389   1.499  15.396 -0.2644 -1.2189 -0.7884
12629TIP3    H259379   1.497   1.498  15.501 -0.5373  1.2804 -0.4493
12630TIP3   OH259380   3.161   3.381  11.094  0.5294 -0.2188 -0.3523
12630TIP3    H159381   3.147   3.298  11.050  1.0035  0.0829 -1.0767
12630TIP3    H259382   3.135   3.447  11.030  0.0489  0.1910  0.2569
12631TIP3   OH259383   1.872   1.309   3.205 -0.2450 -0.0561 -0.2007
12631TIP3    H159384   1.867   1.236   3.144 -0.0949 -0.4876  0.2933
12631TIP3    H259385   1.925   1.276   3.278  0.7890  0.9212 -0.4937
12632TIP3   OH259386   2.761   3.908   4.673  0.0064  0.5990 -0.1111
12632TIP3    H159387   2.804   3.966   4.610  1.1472 -0.6769 -0.5392
12632TIP3    H259388   2.815   3.915   4.752 -0.2376  0.6295  0.0516
12633TIP3   OH259389   1.578   1.608  14.710  0.2614 -0.8509 -0.1555
12633TIP3    H159390   1.645   1.676  14.715 -0.7757  0.1919 -0.3183
12633TIP3    H259391   1.621   1.530  14.744  1.5295 -0.1706 -0.1624
12634TIP3   OH259392   5.316   5.676   5.517  0.2836 -0.0723  0.4650
12634TIP3    H159393   5.299   5.650   5.427  2.6198  0.2268 -0.1126
12634TIP3    H259394   5.276   5.608   5.571 -0.9254 -0.3684 -0.7919
12635TIP3   OH259395   5.965   1.026  17.096  0.6971 -0.0167  0.3821
12635TIP3    H159396   5.979   1.011  17.003 -0.6602  0.3920  0.1040
12635TIP3    H259397   6.017   0.957  17.139  1.1630 -0.3388 -0.6656
12636TIP3   OH259398   1.718   3.453   3.059  0.2485  0.2874 -0.1692
12636TIP3    H159399   1.673   3.414   3.134 -1.2857  3.2675  0.5596
12636TIP3    H259400   1.780   3.515   3.097  0.7340  0.5143 -1.3042
12637TIP3   OH259401   6.737   3.077  12.531  0.2647 -0.0588  0.2782
12637TIP3    H159402   6.806   3.025  12.490 -1.7657 -1.0856 -1.9314
12637TIP3    H259403   6.758   3.076  12.624  3.1428 -0.4426 -0.3377
12638TIP3   OH259404   2.221   3.432  17.240  0.5454  0.0293  0.0760
12638TIP3    H159405   2.312   3.441  17.267  0.6300  0.3658 -0.2984
12638TIP3    H259406   2.221   3.360  17.178  0.4489 -0.3775  0.5504
12639TIP3   OH259407   6.635   0.623   4.577  0.2022  0.4202  0.7731
12639TIP3    H159408   6.552   0.577   4.569  0.0108  0.9643 -0.3898
12639TIP3    H259409   6.664   0.604   4.666 -1.6927  1.0951  1.5687
12640TIP3   OH259410   5.008   2.642   3.374 -0.3305 -0.1310 -0.1332
12640TIP3    H159411   4.930   2.694   3.394 -0.5691 -0.3004 -0.6112
12640TIP3    H259412   5.049   2.627   3.459 -0.6232  0.2694  0.0816
12641TIP3   OH259413   3.060   4.153  13.970  0.1226  0.1741  0.0067
12641TIP3    H159414   3.028   4.236  14.004  1.7978 -0.0119  2.1109
12641TIP3    H259415   2.981   4.103  13.950 -0.9307  0.5955  2.9278
12642TIP3   OH259416   3.812   5.663  16.615 -0.3816 -0.8151 -0.4668
12642TIP3    H159417   3.779   5.704  16.695 -1.2727 -0.1503 -1.1522
12642TIP3    H259418   3.907   5.668  16.623 -0.4464 -1.6295  0.9838
12643TIP3   OH259419   0.232   5.847   0.021  0.0117  0.3122 -0.4342
12643TIP3    H159420   0.288   5.908   0.067  0.0088  2.0896 -2.6854
12643TIP3    H259421   0.284   5.818  -0.054 -0.9670 -0.3346 -0.8789
12644TIP3   OH259422   4.686   1.415  14.316  0.0525 -0.3769 -0.2676
12644TIP3    H159423   4.775   1.449  14.301 -0.5026  1.3266  0.1990
12644TIP3    H259424   4.695   1.360  14.394  0.4480  0.8428  0.5605
12645TIP3   OH259425   3.743   0.872   4.090  0.0752 -0.0817  0.4098
12645TIP3    H159426   3.663   0.820   4.092  0.4176 -0.6727 -0.9209
12645TIP3    H259427   3.736   0.923   4.009  0.9847 -0.0513  0.3508
12646TIP3   OH259428   4.815   5.784  12.681 -0.4705 -0.2162  0.1305
12646TIP3    H159429   4.910   5.780  12.693 -0.1129  1.6488 -1.9322
12646TIP3    H259430   4.789   5.693  12.669  1.5989 -0.4304 -3.0859
12647TIP3   OH259431   3.862   3.416   5.855  0.0587  0.1759  0.1716
12647TIP3    H159432   3.816   3.339   5.823  0.9083 -0.2685 -0.0024
12647TIP3    H259433   3.948   3.384   5.881  0.3512  1.0262  0.2898
12648TIP3   OH259434   0.547   1.735  12.678  0.0920 -0.3099  0.3229
12648TIP3    H159435   0.533   1.642  12.695 -2.0069 -0.2170 -0.8183
12648TIP3    H259436   0.641   1.742  12.661 -0.3296 -2.9989 -3.9879
12649TIP3   OH259437   2.496   1.402   6.799 -0.9923  0.1003  0.2821
12649TIP3    H159438   2.407   1.375   6.820 -0.2693 -1.1860  1.8337
12649TIP3    H259439   2.517   1.470   6.863 -0.5338 -0.2649  0.5250
12650TIP3   OH259440   4.019   3.896   4.282  0.0218 -0.1163 -0.0870
12650TIP3    H159441   3.975   3.868   4.362  1.4382 -0.5922  0.5252
12650TIP3    H259442   3.948   3.931   4.227 -1.0303 -0.3083  1.1324
12651TIP3   OH259443   1.394   1.860  11.477 -0.3772 -0.7965  0.0315
12651TIP3    H159444   1.348   1.858  11.561  0.3675  0.1219  0.4698
12651TIP3    H259445   1.395   1.952  11.452  1.3910 -0.7643  0.1368
12652TIP3   OH259446   2.766   3.229   5.686 -0.0299 -0.8539  0.0952
12652TIP3    H159447   2.791   3.221   5.593  1.6500 -0.6194  0.5089
12652TIP3    H259448   2.707   3.155   5.701 -1.1144 -0.3293 -1.4041
12653TIP3   OH259449   2.503   5.026   0.344  0.4031  0.0553 -0.4304
12653TIP3    H159450   2.585   5.043   0.392  1.9022 -0.1970 -2.8263
12653TIP3    H259451   2.442   5.091   0.378  1.8438  0.7987  0.8201
12654TIP3   OH259452   1.445   3.660  14.197 -0.5678  0.2513  0.1166
12654TIP3    H159453   1.402   3.718  14.261  0.7117  0.7564  0.5376
12654TIP3    H259454   1.503   3.718  14.148 -1.3153 -0.1963 -1.3104
12655TIP3   OH259455   4.485   2.281  12.243  0.2884 -0.5098 -0.3281
12655TIP3    H159456   4.568   2.266  12.289  0.6338 -0.1827 -0.8442
12655TIP3    H259457   4.431   2.204  12.265  0.5372 -0.4772  0.4194
12656TIP3   OH259458   1.739   2.797  12.603 -0.0185 -0.7731  0.1942
12656TIP3    H159459   1.737   2.857  12.678 -0.0421  0.8650 -1.0802
12656TIP3    H259460   1.810   2.736  12.624 -0.7302 -1.0189  2.0372
12657TIP3   OH259461   1.608   4.983  16.791 -0.2342  0.6775  0.0469
12657TIP3    H159462   1.558   5.065  16.788 -0.4096  0.5432 -4.0376
12657TIP3    H259463   1.572   4.930  16.720  1.6371 -1.9088  0.9449
12658TIP3   OH259464   1.567   5.759   0.164  0.0832 -0.1800 -0.0484
12658TIP3    H159465   1.482   5.762   0.207  0.5799  0.9308  0.8717
12658TIP3    H259466   1.629   5.745   0.235  0.7284 -0.4401 -0.6579
12659TIP3   OH259467   4.437   0.319  11.088  0.0794 -0.0713 -0.1645
12659TIP3    H159468   4.400   0.255  11.027  0.0175 -0.7462  0.5694
12659TIP3    H259469   4.390   0.400  11.069 -0.9326 -0.6279 -0.0610
12660TIP3   OH259470   3.765   2.513   5.671 -0.5539 -0.0390  0.1749
12660TIP3    H159471   3.827   2.475   5.609 -1.2632  0.6356 -0.9819
12660TIP3    H259472   3.699   2.555   5.615 -0.8952  1.0853  1.3968
12661TIP3   OH259473   2.104   3.733  12.795  0.3014 -0.7884 -0.3888
12661TIP3    H159474   2.144   3.699  12.716 -1.5700 -1.4343 -1.0930
12661TIP3    H259475   2.114   3.663  12.859  0.2196 -0.9893 -0.5938
12662TIP3   OH259476   6.204   1.750   4.401  0.0702 -0.0512 -0.4767
12662TIP3    H159477   6.151   1.786   4.472  3.1339  2.0490  0.8385
12662TIP3    H259478   6.286   1.725   4.443  1.2564 -0.4359 -2.9578
12663TIP3   OH259479   3.957   3.961  12.157 -0.4093  0.4563  0.4309
12663TIP3    H159480   3.963   4.038  12.213 -1.1963 -0.3198  1.6299
12663TIP3    H259481   4.044   3.921  12.161 -0.9760 -0.6711  2.7522
12664TIP3   OH259482   2.897   4.218   1.017  0.5723  0.2705  0.1204
12664TIP3    H159483   2.976   4.248   1.063  0.8007 -1.0150  0.5813
12664TIP3    H259484   2.924   4.138   0.972 -0.4252 -0.0759  0.1294
12665TIP3   OH259485   5.561   2.250  12.490 -0.1105 -0.3757  0.2262
12665TIP3    H159486   5.552   2.268  12.584  0.3718  0.5474  0.0980
12665TIP3    H259487   5.643   2.291  12.465  0.4496 -1.7911 -0.3297
12666TIP3   OH259488   1.789   4.717   5.317  0.4014 -0.4166  0.1670
12666TIP3    H159489   1.860   4.695   5.377  0.8504  1.0023  0.1609
12666TIP3    H259490   1.713   4.730   5.373  0.0425 -2.2815  0.1462
12667TIP3   OH259491   5.498   1.644   4.567 -0.5993 -0.0419 -0.5837
12667TIP3    H159492   5.445   1.723   4.577 -1.0304 -0.5165  1.1276
12667TIP3    H259493   5.561   1.647   4.639  0.7886 -0.1987 -1.7698
12668TIP3   OH259494   3.673   6.798  14.421  0.0418  0.0285 -0.5869
12668TIP3    H159495   3.716   6.723  14.380  0.0403 -0.0481 -0.4457
12668TIP3    H259496   3.599   6.817  14.362 -0.8159 -0.9924  0.1316
12669TIP3   OH259497   3.822   2.346   2.412 -0.1651 -1.0171 -0.2780
12669TIP3    H159498   3.728   2.343   2.431  0.1620 -0.9757  1.4242
12669TIP3    H259499   3.852   2.256   2.427 -0.0896 -1.2576 -1.7686
12670TIP3   OH259500   3.593   3.339  12.801  0.5817  0.2056 -0.3137
12670TIP3    H159501   3.572   3.312  12.711  0.1744 -2.4137  0.5089
12670TIP3    H259502   3.684   3.366  12.797 -0.4446  3.7141 -2.2429
12671TIP3   OH259503   2.736   6.315  17.173  0.4967  0.0521 -0.4369
12671TIP3    H159504   2.673   6.386  17.158  1.1974  0.7826  0.0251
12671TIP3    H259505   2.755   6.319  17.266 -1.2378 -2.2920  0.0740
12672TIP3   OH259506   4.834   0.023   4.379 -0.1804 -0.2349  1.0512
12672TIP3    H159507   4.773   0.057   4.445  0.1796  1.2781  0.6369
12672TIP3    H259508   4.778  -0.023   4.317 -0.8929  0.9236  0.8110
12673TIP3   OH259509   0.186   4.902   5.114 -0.3274 -0.9478 -0.0693
12673TIP3    H159510   0.196   4.839   5.185 -0.5271 -0.4533  0.4073
12673TIP3    H259511   0.101   4.881   5.075 -0.2640 -1.1565 -0.0910
12674TIP3   OH259512   6.005   4.541   3.116 -0.0030  0.2673 -0.3234
12674TIP3    H159513   6.025   4.596   3.040 -1.2921 -0.1266 -0.9718
12674TIP3    H259514   6.073   4.474   3.115  0.5600  0.8304 -0.5466
12675TIP3   OH259515   6.678   3.482   4.480 -0.6082 -0.2511 -0.0235
12675TIP3    H159516   6.673   3.410   4.543 -1.8120  0.1084  0.3144
12675TIP3    H259517   6.590   3.488   4.444 -0.4330  0.8372 -0.2937
12676TIP3   OH259518   0.742   5.176  12.623  0.2773 -0.1868 -0.1961
12676TIP3    H159519   0.812   5.241  12.617 -0.3522  0.5969  0.8414
12676TIP3    H259520   0.745   5.146  12.714 -0.6093 -0.2864 -0.1982
12677TIP3   OH259521   1.392   1.280   2.640 -0.3144  0.2879 -0.1541
12677TIP3    H159522   1.424   1.351   2.696  0.2365 -0.2928  0.2705
12677TIP3    H259523   1.309   1.253   2.680 -0.0613  0.0653  0.2289
12678TIP3   OH259524   1.467   6.303   2.218 -0.1156 -0.4480  0.0628
12678TIP3    H159525   1.379   6.337   2.202 -0.6849 -1.0769  1.7890
12678TIP3    H259526   1.524   6.378   2.208 -0.9598  0.2032  0.0928
12679TIP3   OH259527   5.143   4.321   3.323  0.0400  0.3749  0.0594
12679TIP3    H159528   5.223   4.270   3.331 -0.2162 -0.0353  0.0543
12679TIP3    H259529   5.075   4.266   3.363 -0.1313  0.9741  0.5966
12680TIP3   OH259530   5.638   6.500  15.599 -0.3583 -0.6103 -0.1812
12680TIP3    H159531   5.686   6.527  15.677 -0.6669  1.0429 -0.5398
12680TIP3    H259532   5.705   6.493  15.531 -0.5112  1.0506 -0.5226
12681TIP3   OH259533   5.230   1.729  17.290 -0.4160  0.3134 -0.6424
12681TIP3    H159534   5.174   1.656  17.319  1.3533 -1.7253 -2.1826
12681TIP3    H259535   5.287   1.746  17.365  0.4630 -1.2160 -0.9436
12682TIP3   OH259536   0.068   1.492   4.048  0.0352 -0.0622  0.4849
12682TIP3    H159537   0.070   1.550   3.972  0.0496 -1.1388 -0.3392
12682TIP3    H259538   0.034   1.547   4.119 -0.3666  0.8276 -0.3889
12683TIP3   OH259539   5.258   5.236   4.596  0.5790 -0.1127  1.0123
12683TIP3    H159540   5.205   5.310   4.566  1.1994 -0.0986 -0.0521
12683TIP3    H259541   5.202   5.160   4.585  1.0177 -0.1834 -0.7422
12684TIP3   OH259542   0.300   5.038  14.260  0.2511  0.1797 -0.0464
12684TIP3    H159543   0.246   4.989  14.198 -0.9838  1.9178 -0.3696
12684TIP3    H259544   0.384   5.048  14.214  0.7380 -2.0970  0.2618
12685TIP3   OH259545   3.052   2.812  13.043 -0.7107 -0.1684  0.2920
12685TIP3    H159546   3.116   2.883  13.050 -1.7853  0.7384  1.1393
12685TIP3    H259547   3.066   2.760  13.121  0.8598 -1.5791 -0.8983
12686TIP3   OH259548   6.372   4.509   1.175  0.3364  0.0714 -0.6784
12686TIP3    H159549   6.377   4.544   1.087 -0.1052  1.0603 -0.3163
12686TIP3    H259550   6.319   4.572   1.224  2.0215  0.4501  0.7243
12687TIP3   OH259551   5.742   3.575  12.372  0.5345 -0.5759 -0.0009
12687TIP3    H159552   5.814   3.592  12.312  1.1096 -1.3200  0.4694
12687TIP3    H259553   5.751   3.641  12.441  0.0599  0.0777 -0.5604
12688TIP3   OH259554   4.212   2.707   1.545  0.3110  0.2140  0.7758
12688TIP3    H159555   4.246   2.674   1.628  1.5999 -0.6311 -0.0681
12688TIP3    H259556   4.122   2.732   1.564  0.9402  1.1018  2.7059
12689TIP3   OH259557   5.500   3.077  16.400  0.0439  0.3236 -0.0591
12689TIP3    H159558   5.467   2.994  16.435 -2.9385  1.2732 -0.4500
12689TIP3    H259559   5.551   3.115  16.471 -1.3189 -0.3501  1.3189
12690TIP3   OH259560   1.987   1.079  16.737 -0.0139  0.0245  0.1123
12690TIP3    H159561   1.975   1.055  16.829  0.4191  0.2617  0.2354
12690TIP3    H259562   1.997   0.996  16.691 -1.1103 -0.1343  0.1463
12691TIP3   OH259563   1.636   5.857   0.783  0.4227 -0.0185  0.5200
12691TIP3    H159564   1.643   5.801   0.860  0.4956  0.2021  0.6773
12691TIP3    H259565   1.726   5.869   0.753  0.2874 -1.0801 -0.3161
12692TIP3   OH259566   6.479   4.812  12.132  0.1997  0.6145 -0.9338
12692TIP3    H159567   6.389   4.780  12.131  0.5316 -0.5103  1.4844
12692TIP3    H259568   6.471   4.905  12.154 -0.4260  0.6938 -1.4992
12693TIP3   OH259569   2.797   2.690  11.487 -0.0550  0.8921  0.0800
12693TIP3    H159570   2.886   2.661  11.505  0.1348  0.5627 -1.2651
12693TIP3    H259571   2.786   2.769  11.538  0.6612  0.3810  1.0423
12694TIP3   OH259572   1.718   1.238   5.181 -0.3280 -0.5387  0.1385
12694TIP3    H159573   1.628   1.221   5.207  0.3171  0.1236  2.8936
12694TIP3    H259574   1.722   1.333   5.171 -0.1096 -0.6348 -0.7909
12695TIP3   OH259575   2.012   1.729   5.268  0.1226 -0.1697 -0.4400
12695TIP3    H159576   2.053   1.642   5.271  0.3135 -0.0445  1.3946
12695TIP3    H259577   2.076   1.787   5.309 -0.6443  0.5704 -0.2704
12696TIP3   OH259578   0.024   1.172   4.829 -0.2992  0.8710  0.4803
12696TIP3    H159579   0.002   1.207   4.742 -2.3197  1.8381  1.3381
12696TIP3    H259580   0.010   1.247   4.888 -2.8045 -0.8257  2.1222
12697TIP3   OH259581   3.635   1.960  14.224  0.2042 -0.0294 -0.4306
12697TIP3    H159582   3.611   1.867  14.230 -1.8852  0.3490 -2.0594
12697TIP3    H259583   3.648   1.988  14.314 -0.2376 -1.6468  0.1452
12698TIP3   OH259584   2.775   1.999   2.223 -0.3850 -0.7718  0.1932
12698TIP3    H159585   2.724   2.079   2.229 -0.8672 -1.1089  0.6331
12698TIP3    H259586   2.826   1.997   2.304  0.0488 -0.6298 -0.0715
12699TIP3   OH259587   3.865   5.104   2.065 -0.3357  0.2963  0.3222
12699TIP3    H159588   3.864   5.150   2.149  1.2674  2.8721 -1.0154
12699TIP3    H259589   3.810   5.158   2.008 -0.1489 -0.5997 -0.7177
12700TIP3   OH259590   3.603   0.888   5.259  0.0861 -0.3228  0.0786
12700TIP3    H159591   3.554   0.879   5.340  0.7777 -0.6106  0.4669
12700TIP3    H259592   3.563   0.825   5.199 -0.4702 -0.0558  0.1666
12701TIP3   OH259593   5.593   3.241   5.056  0.0286  0.1804  0.1066
12701TIP3    H159594   5.688   3.236   5.068  0.3598 -0.4722 -2.4822
12701TIP3    H259595   5.582   3.298   4.980 -1.6645  0.3852  0.4955
12702TIP3   OH259596   3.177   0.039  14.738  0.6841  0.3961 -0.0532
12702TIP3    H159597   3.128   0.095  14.677  0.8334 -0.9138 -1.4225
12702TIP3    H259598   3.268   0.063  14.724  0.7851 -0.4510 -0.9609
12703TIP3   OH259599   0.051   3.630  13.262  0.0490 -0.2882  0.5562
12703TIP3    H159600  -0.013   3.699  13.281  1.4665  1.5650 -1.2115
12703TIP3    H259601   0.122   3.645  13.326 -0.0047 -0.6079  0.6914
12704TIP3   OH259602   4.648   5.792  14.856 -0.2291 -0.1051  0.2195
12704TIP3    H159603   4.690   5.795  14.769 -1.1138  1.0993 -0.1760
12704TIP3    H259604   4.721   5.787  14.917  0.3760 -3.6184 -0.6719
12705TIP3   OH259605   2.216   4.483  14.417 -0.2607  0.5821  0.1125
12705TIP3    H159606   2.159   4.556  14.442 -0.5736  0.8816 -1.3999
12705TIP3    H259607   2.297   4.525  14.387  0.2443  0.2169  0.9486
12706TIP3   OH259608   2.085   2.847   3.119  0.4465  0.3200 -0.0409
12706TIP3    H159609   1.990   2.841   3.114  0.4021 -0.9473  1.8377
12706TIP3    H259610   2.117   2.785   3.053 -0.0091  1.2361 -1.1360
12707TIP3   OH259611   3.938   4.139   4.468  0.5193 -0.8994 -0.0716
12707TIP3    H159612   3.879   4.213   4.452  0.3810 -0.8855  0.4742
12707TIP3    H259613   3.882   4.073   4.508  1.2387 -0.2127  2.1542
12708TIP3   OH259614   4.819   3.750  14.700 -0.3623  0.3958  0.9655
12708TIP3    H159615   4.900   3.727  14.655 -0.5130  1.1179  0.3074
12708TIP3    H259616   4.802   3.841  14.674 -1.1416  0.3962  1.4484
12709TIP3   OH259617   2.400   4.114   2.341 -0.5194  0.8816  0.2428
12709TIP3    H159618   2.464   4.061   2.295 -1.7572  1.4519 -2.2411
12709TIP3    H259619   2.444   4.141   2.422  2.0649  0.6099 -1.0219
12710TIP3   OH259620   5.140   0.782   4.986  0.0119  0.4256 -0.3513
12710TIP3    H159621   5.155   0.848   4.918 -0.2510  0.1195 -0.7027
12710TIP3    H259622   5.105   0.706   4.939 -0.8093  0.4554  0.2096
12711TIP3   OH259623   2.602   5.904  14.074  0.2212 -0.7138  0.0453
12711TIP3    H159624   2.519   5.866  14.103  0.3189 -0.7060  0.3437
12711TIP3    H259625   2.660   5.894  14.150  0.5301 -0.8374 -0.2065
12712TIP3   OH259626   3.895   6.265  14.845 -0.2840  0.6304  0.5066
12712TIP3    H159627   3.887   6.187  14.899  1.2312  0.1073  0.0157
12712TIP3    H259628   3.817   6.316  14.864 -1.4892 -1.1912  0.5329
12713TIP3   OH259629   4.838   2.256   5.901  0.1803  0.1046 -0.1491
12713TIP3    H159630   4.809   2.249   5.810  0.1357 -0.2359 -0.1075
12713TIP3    H259631   4.922   2.302   5.896 -0.4995  1.3772 -0.2462
12714TIP3   OH259632   1.636   4.934  16.085 -0.0225  0.4307  0.0234
12714TIP3    H159633   1.727   4.905  16.080 -0.5158 -1.2430  0.2472
12714TIP3    H259634   1.601   4.916  15.998 -0.3170  0.4646  0.1370
12715TIP3   OH259635   3.071   0.333   3.650  0.2188 -0.4895 -0.5458
12715TIP3    H159636   3.110   0.257   3.608  0.9872  0.2021 -1.1204
12715TIP3    H259637   2.987   0.302   3.685  0.0619 -1.3375 -1.6612
12716TIP3   OH259638   0.450   4.953  12.916  0.4846 -0.0065  0.2071
12716TIP3    H159639   0.467   4.942  13.009 -1.0097  0.4034  0.5375
12716TIP3    H259640   0.494   5.035  12.892 -0.8823  0.9768  1.0162
12717TIP3   OH259641   2.805   4.289  13.181  0.1691  0.5086 -0.7324
12717TIP3    H159642   2.857   4.296  13.262  2.1484  0.7760 -1.9806
12717TIP3    H259643   2.859   4.332  13.115 -0.6136 -1.2315 -2.5509
12718TIP3   OH259644   5.672   5.152   3.209  0.7203  0.7264  0.6928
12718TIP3    H159645   5.743   5.210   3.182  2.8132 -2.4275 -1.0532
12718TIP3    H259646   5.687   5.137   3.302  1.7294  0.9467  0.5726
12719TIP3   OH259647   2.355   3.262   1.339 -0.6722  0.0821  0.3941
12719TIP3    H159648   2.427   3.325   1.349  0.2283 -0.9647  0.5576
12719TIP3    H259649   2.294   3.305   1.280 -0.1041  1.1554  0.5707
12720TIP3   OH259650   0.897   5.570  15.411 -0.1383  0.4961  0.4965
12720TIP3    H159651   0.807   5.568  15.380 -0.0968 -1.3472  0.4914
12720TIP3    H259652   0.949   5.542  15.336 -0.0491 -4.2415  2.1562
12721TIP3   OH259653   1.905   0.443  10.636  0.0028  0.3758 -0.3099
12721TIP3    H159654   1.918   0.524  10.587  0.0287  0.9910  0.6984
12721TIP3    H259655   1.983   0.434  10.690 -0.5549  0.3399  0.5035
12722TIP3   OH259656   0.100   0.643   6.659 -0.0537  0.5879 -0.1834
12722TIP3    H159657   0.023   0.674   6.611  0.4221 -0.3535 -1.5668
12722TIP3    H259658   0.134   0.571   6.606 -0.0895 -1.1230  2.0355
12723TIP3   OH259659   0.989   3.761   4.758  0.8961 -0.1688  0.1807
12723TIP3    H159660   0.903   3.723   4.742  0.7536 -0.2027  1.0119
12723TIP3    H259661   0.976   3.855   4.748  0.1968  0.0475  2.6909
12724TIP3   OH259662   3.904   6.081   1.617  0.0760 -0.2008  0.0589
12724TIP3    H159663   3.812   6.082   1.590 -0.0471  1.9024  0.4489
12724TIP3    H259664   3.937   6.167   1.593  1.5883 -0.4710  1.0934
12725TIP3   OH259665   3.296   5.935   1.081  0.2912  0.3747  0.1527
12725TIP3    H159666   3.288   5.841   1.100 -0.0409  0.3270 -0.2103
12725TIP3    H259667   3.358   5.968   1.146  1.0711 -0.2663 -0.2604
12726TIP3   OH259668   2.075   3.082   5.300  0.1001 -0.2684 -0.1004
12726TIP3    H159669   2.165   3.082   5.332 -0.4044  0.0803  1.3838
12726TIP3    H259670   2.042   3.170   5.321 -0.7087 -0.5294 -0.2416
12727TIP3   OH259671   5.540   3.037   4.241 -0.0643  1.2185 -0.2765
12727TIP3    H159672   5.478   3.075   4.303  0.2244 -1.4800  1.7437
12727TIP3    H259673   5.608   2.999   4.297  0.9957  0.0697 -2.3312
12728TIP3   OH259674   3.208   2.967   1.824 -0.0748  0.0108  0.0065
12728TIP3    H159675   3.141   2.898   1.829  0.7019 -0.7414  0.0700
12728TIP3    H259676   3.164   3.038   1.778 -1.1836 -0.1752  0.7385
12729TIP3   OH259677   4.897   3.088   5.694 -0.3409  0.2624 -1.0586
12729TIP3    H159678   4.886   3.021   5.761  0.5655  0.6443 -0.5246
12729TIP3    H259679   4.821   3.146   5.706  0.7450  1.3267  0.7964
12730TIP3   OH259680   0.921   5.975   6.311  0.5421  0.1287  0.7477
12730TIP3    H159681   0.959   5.959   6.224  0.0076  1.8228  0.1797
12730TIP3    H259682   0.921   5.889   6.353 -0.4387 -1.0032 -1.4482
12731TIP3   OH259683   5.014   2.319  16.944  0.1056  0.1347 -0.4201
12731TIP3    H159684   4.950   2.371  16.993 -0.7551 -1.4775  0.1940
12731TIP3    H259685   5.099   2.343  16.983 -0.2718  1.1392 -0.1998
12732TIP3   OH259686   5.291   5.541  17.205  0.4627 -0.5474  0.2296
12732TIP3    H159687   5.382   5.552  17.177  0.9099 -2.9716  0.6406
12732TIP3    H259688   5.295   5.542  17.300  0.2795 -2.1735  0.2648
12733TIP3   OH259689   6.381   3.679   5.839  0.1122 -0.2225  0.0617
12733TIP3    H159690   6.347   3.654   5.924 -1.5347 -0.8622 -0.7679
12733TIP3    H259691   6.308   3.723   5.796  0.9589  0.1863 -0.9818
12734TIP3   OH259692   0.658   0.592   0.912  0.2677 -0.1417  0.7623
12734TIP3    H159693   0.721   0.528   0.878  0.7432  0.4622  0.4951
12734TIP3    H259694   0.637   0.560   0.999  2.7349  0.8749  1.7868
12735TIP3   OH259695   1.057   3.482   3.727 -0.3225 -0.9986  0.1620
12735TIP3    H159696   1.039   3.510   3.817  1.0565 -0.3669  0.2605
12735TIP3    H259697   1.131   3.422   3.735  0.4252 -0.2024 -0.6369
12736TIP3   OH259698   5.783   4.290  13.549  0.2203  0.0100 -0.1258
12736TIP3    H159699   5.724   4.364  13.536 -0.3402 -0.3690  0.2357
12736TIP3    H259700   5.824   4.306  13.634  0.3696  0.0951 -0.2151
12737TIP3   OH259701   4.495   3.900  16.906  0.1114  0.8850 -0.5719
12737TIP3    H159702   4.449   3.829  16.861 -0.2842  1.3679 -0.9353
12737TIP3    H259703   4.452   3.980  16.875  1.2148  1.3523 -0.9517
12738TIP3   OH259704   0.201   2.086   3.398  0.5713  0.1381 -0.2553
12738TIP3    H159705   0.272   2.106   3.460  0.4593 -1.5633  0.4284
12738TIP3    H259706   0.210   2.153   3.331  3.3669 -0.5288 -0.6271
12739TIP3   OH259707   1.115   4.282  15.898  0.5432  0.2877 -0.0331
12739TIP3    H159708   1.044   4.218  15.907  1.4280 -0.9259 -1.3160
12739TIP3    H259709   1.084   4.359  15.945 -0.5253 -1.1131  1.6126
12740TIP3   OH259710   3.206   3.674   4.240  0.2991  0.1643  0.1326
12740TIP3    H159711   3.208   3.602   4.176 -1.6857 -0.7841  1.0967
12740TIP3    H259712   3.113   3.684   4.261  0.6394  2.4558  0.6702
12741TIP3   OH259713   5.043   1.039  16.418 -0.2403 -0.3873  0.4345
12741TIP3    H159714   5.108   1.018  16.485 -0.4761 -0.2759  0.7032
12741TIP3    H259715   4.960   1.007  16.455 -0.4181 -0.0523  0.3311
12742TIP3   OH259716   3.104   3.699  14.392 -0.0428 -0.7133  0.3484
12742TIP3    H159717   3.048   3.774  14.413  0.7662 -0.3742  1.2999
12742TIP3    H259718   3.120   3.656  14.476  1.5092 -0.5433  0.1483
12743TIP3   OH259719   3.783   3.724  15.777  0.1688 -0.1557 -0.0576
12743TIP3    H159720   3.818   3.701  15.691 -0.2557 -0.0186 -0.2686
12743TIP3    H259721   3.695   3.687  15.778 -0.7954  2.0548 -0.6773
12744TIP3   OH259722   4.537   0.390  12.271  0.2743 -0.0566  0.5410
12744TIP3    H159723   4.472   0.458  12.288  0.7262 -0.2199  3.0714
12744TIP3    H259724   4.621   0.433  12.283  0.6066 -0.5447  0.0182
12745TIP3   OH259725   6.726   2.943   3.017  0.2639 -0.1397  0.4514
12745TIP3    H159726   6.708   2.884   2.944  0.8475 -2.0060  1.7680
12745TIP3    H259727   6.653   3.005   3.017 -0.3213 -0.8158 -1.0327
12746TIP3   OH259728   3.262   5.049  15.195  0.2199  0.3773  0.1414
12746TIP3    H159729   3.277   5.014  15.107  0.2721  0.2153  0.2135
12746TIP3    H259730   3.167   5.058  15.201  0.2420  0.8422 -0.1064
12747TIP3   OH259731   4.637   4.342   2.876  0.0967 -0.6447  0.2366
12747TIP3    H159732   4.638   4.434   2.850 -3.7067 -1.1639 -2.0553
12747TIP3    H259733   4.552   4.329   2.917  0.7573 -3.0249  0.9377
12748TIP3   OH259734   3.983   3.925  13.360 -0.0136  0.7413 -0.3638
12748TIP3    H159735   3.986   4.018  13.382  2.5932  0.7122 -0.3364
12748TIP3    H259736   3.907   3.891  13.407  0.6905  2.3009  1.9960
12749TIP3   OH259737   4.947   1.117  11.483  0.6564  0.2451  0.0181
12749TIP3    H159738   4.927   1.208  11.507  0.3223 -0.1451  1.2704
12749TIP3    H259739   4.870   1.087  11.436  0.5434  0.4499  0.0727
12750TIP3   OH259740   6.697   1.385   1.377 -0.2606  0.8493  1.0075
12750TIP3    H159741   6.656   1.299   1.378 -0.8826  1.1407  3.1664
12750TIP3    H259742   6.640   1.440   1.431 -1.9633  3.6349 -3.2759
12751TIP3   OH259743   4.152   5.415   6.413  0.2543  0.4101 -0.5416
12751TIP3    H159744   4.213   5.482   6.442  0.6634 -0.3123  0.3025
12751TIP3    H259745   4.172   5.339   6.468  1.0207 -0.9913 -2.6945
12752TIP3   OH259746   0.024   2.909  16.531 -0.5581 -0.4046 -0.5207
12752TIP3    H159747   0.037   2.890  16.623 -0.6515  0.7973 -0.2503
12752TIP3    H259748   0.001   2.825  16.492 -0.4087 -0.9369  0.5270
12753TIP3   OH259749   3.193   5.214  11.270 -0.1468 -0.0069  0.4847
12753TIP3    H159750   3.157   5.133  11.306  0.4396 -0.7308 -0.5547
12753TIP3    H259751   3.247   5.250  11.341  0.6960 -1.2238  0.4702
12754TIP3   OH259752   3.430   4.653   2.233  0.2828  0.4452  0.2097
12754TIP3    H159753   3.410   4.641   2.140  0.3166  1.4628  0.0609
12754TIP3    H259754   3.449   4.565   2.266  1.3411  0.2156 -0.9999
12755TIP3   OH259755   4.589   3.055  14.460  0.1217 -0.0399  0.8212
12755TIP3    H159756   4.501   3.054  14.423  0.0830  1.4023  0.8685
12755TIP3    H259757   4.597   2.971  14.505  0.3214 -2.0925 -2.8177
12756TIP3   OH259758   0.437   4.604   0.941  0.3272  0.7498 -0.1541
12756TIP3    H159759   0.432   4.682   0.997  0.2025  0.0059  0.8704
12756TIP3    H259760   0.382   4.539   0.984 -1.3653  0.8003 -2.1744
12757TIP3   OH259761   1.659   6.492   0.149  0.1391 -0.0572  0.2032
12757TIP3    H159762   1.595   6.421   0.143 -1.6625  1.6128 -0.8050
12757TIP3    H259763   1.742   6.451   0.122 -0.6468 -2.0167  0.6362
12758TIP3   OH259764   1.537   6.364   5.923 -0.2870  0.6700  1.0833
12758TIP3    H159765   1.571   6.352   6.011 -0.1468 -0.5298  0.8829
12758TIP3    H259766   1.442   6.369   5.934 -0.1897  1.8054  1.4243
12759TIP3   OH259767   4.701   4.293  11.603  0.1520  0.1029  0.1364
12759TIP3    H159768   4.634   4.362  11.598  0.1406  0.0339 -0.6903
12759TIP3    H259769   4.683   4.249  11.686 -2.4088 -1.4983 -1.1745
12760TIP3   OH259770   1.139   2.651   1.167 -0.6821  0.5474  0.2675
12760TIP3    H159771   1.078   2.722   1.145  0.6539  2.2480  1.8615
12760TIP3    H259772   1.152   2.660   1.261 -1.0509 -2.3107  0.6201
12761TIP3   OH259773   2.290   1.467   6.451  0.4943 -0.8112  0.3883
12761TIP3    H159774   2.383   1.461   6.473  0.3175  1.3939  1.8106
12761TIP3    H259775   2.260   1.549   6.490 -2.0813 -1.5095  0.0081
12762TIP3   OH259776   6.373   2.192  14.387 -0.3343 -0.3481 -0.2765
12762TIP3    H159777   6.354   2.152  14.302  0.8097 -0.3081 -0.5673
12762TIP3    H259778   6.379   2.119  14.448 -0.0396 -0.4778 -0.4565
12763TIP3   OH259779   0.044   3.863  14.279 -0.5438  0.2676 -0.1534
12763TIP3    H159780   0.133   3.847  14.247 -0.2990  0.7946  0.2545
12763TIP3    H259781  -0.011   3.805  14.227  0.0671 -0.2266 -0.2534
12764TIP3   OH259782   5.023   2.781  16.697 -0.4293 -0.0556  0.2623
12764TIP3    H159783   5.098   2.839  16.685 -0.0873  0.0499  2.7115
12764TIP3    H259784   5.037   2.710  16.634  0.6694  0.9880 -0.6945
12765TIP3   OH259785   5.259   3.437  15.854 -0.2500  0.2377  0.1971
12765TIP3    H159786   5.223   3.351  15.834 -2.0902  1.4600 -1.9972
12765TIP3    H259787   5.189   3.483  15.900  0.5386  0.7599  0.9073
12766TIP3   OH259788   4.602   4.794   4.556 -0.6010  0.0896 -0.1909
12766TIP3    H159789   4.606   4.816   4.463 -1.7902 -0.6280 -0.4179
12766TIP3    H259790   4.556   4.867   4.597 -2.9757 -1.0862 -0.6766
12767TIP3   OH259791   3.513   0.495   3.458 -1.0781 -0.4800  0.8570
12767TIP3    H159792   3.465   0.577   3.447 -0.2855  0.1757  2.1259
12767TIP3    H259793   3.455   0.428   3.424 -0.7587  0.8656 -2.4582
12768TIP3   OH259794   5.085   2.018  11.973  0.3954  0.1060 -0.6279
12768TIP3    H159795   5.041   2.048  12.052  3.5091  2.5387  0.3087
12768TIP3    H259796   5.098   1.925  11.987  1.0955  0.5407  1.8717
12769TIP3   OH259797   4.775   0.348   4.479 -0.3869 -0.0932  0.4453
12769TIP3    H159798   4.790   0.350   4.384  0.5800  1.0957  0.6184
12769TIP3    H259799   4.737   0.433   4.499 -1.0201 -0.5177  1.0661
12770TIP3   OH259800   0.572   1.803   4.939  0.3920  0.3208 -0.5316
12770TIP3    H159801   0.622   1.762   4.868  1.4997 -0.4765  0.6985
12770TIP3    H259802   0.482   1.805   4.905 -0.1365 -4.9846  0.0738
12771TIP3   OH259803   4.314   6.775  15.510  0.2550  0.2589 -0.4834
12771TIP3    H159804   4.263   6.823  15.444  2.8377  2.0567 -1.2686
12771TIP3    H259805   4.356   6.705  15.461  1.1334  0.7967 -0.5168
12772TIP3   OH259806   2.314   3.491  10.316 -0.4386 -0.4685 -0.3724
12772TIP3    H159807   2.271   3.577  10.312  0.6552  0.2236  2.1855
12772TIP3    H259808   2.408   3.511  10.314 -0.1790 -1.7046 -0.9886
12773TIP3   OH259809   1.151   5.650   5.306 -0.5064 -0.5927  0.6070
12773TIP3    H159810   1.112   5.565   5.326 -0.8375  0.0566  2.8608
12773TIP3    H259811   1.116   5.709   5.373  0.6133  1.0567 -0.2243
12774TIP3   OH259812   4.778   2.009   1.619  0.1601  0.3574 -0.2489
12774TIP3    H159813   4.733   2.094   1.612 -1.5162 -0.5094 -0.2575
12774TIP3    H259814   4.786   1.979   1.528 -0.3886 -0.0648 -0.1605
12775TIP3   OH259815   4.751   5.122  10.819 -0.3474 -0.1893  0.4167
12775TIP3    H159816   4.714   5.130  10.906 -0.0410 -0.2396  0.5510
12775TIP3    H259817   4.813   5.049  10.825  1.3883  1.2769  0.7503
12776TIP3   OH259818   2.615   6.413  16.446 -0.5724 -0.0707 -0.3110
12776TIP3    H159819   2.701   6.392  16.412 -0.3745  0.3810 -0.0937
12776TIP3    H259820   2.602   6.506  16.423 -1.4784 -0.4443 -1.3588
12777TIP3   OH259821   1.015   3.178   5.791 -0.1851 -0.0510  0.5336
12777TIP3    H159822   1.042   3.171   5.700 -1.4785 -0.5178  0.1668
12777TIP3    H259823   1.090   3.145   5.841  1.1308  1.6831 -0.2615
12778TIP3   OH259824   0.836   2.563   5.717  0.8466  0.2440 -0.0516
12778TIP3    H159825   0.748   2.597   5.732  0.2896 -0.9207 -0.5881
12778TIP3    H259826   0.824   2.468   5.707  1.7310  0.3638 -3.0144
12779TIP3   OH259827   6.635   6.376   0.944  0.1984  0.0273 -0.2549
12779TIP3    H159828   6.670   6.287   0.937 -0.5110 -0.1955 -1.0005
12779TIP3    H259829   6.566   6.380   0.878  2.6603  2.3208 -2.7864
12780TIP3   OH259830   4.452   1.952   4.823  0.0402 -0.7254  0.3994
12780TIP3    H159831   4.477   1.982   4.736 -0.7890 -0.0433  0.3841
12780TIP3    H259832   4.418   1.864   4.809 -2.5395  0.3566 -0.3748
12781TIP3   OH259833   6.634   3.244   2.467  0.2737 -0.1847 -0.2148
12781TIP3    H159834   6.711   3.223   2.519  0.2030  0.8560  0.3102
12781TIP3    H259835   6.559   3.222   2.523  0.1804 -1.6548 -0.9049
12782TIP3   OH259836   0.744   1.585  14.485 -0.3456 -0.2354  0.1922
12782TIP3    H159837   0.724   1.665  14.436 -0.5561  0.0424  0.7211
12782TIP3    H259838   0.837   1.570  14.469 -0.1791  0.4157  0.5125
12783TIP3   OH259839   0.964   4.512  14.381 -0.4675 -0.1011  0.1469
12783TIP3    H159840   0.876   4.475  14.378 -0.5400 -0.0801  1.7744
12783TIP3    H259841   1.020   4.443  14.345 -1.1562 -0.0358 -1.0872
12784TIP3   OH259842   2.987   1.006  15.517 -0.4281 -0.6007  0.4319
12784TIP3    H159843   2.993   1.095  15.552 -2.5969 -0.3916  0.3167
12784TIP3    H259844   3.075   0.989  15.482 -0.5966  2.3481 -1.6326
12785TIP3   OH259845   4.039   1.178   4.505  0.7757  0.0935  0.9077
12785TIP3    H159846   3.962   1.187   4.448  0.4971 -1.7792  0.9488
12785TIP3    H259847   4.035   1.254   4.563 -1.2939 -0.1989  1.1873
12786TIP3   OH259848   0.421   2.672   0.257  0.2698  0.2986 -0.4842
12786TIP3    H159849   0.451   2.596   0.306  2.2747  1.6943  0.4993
12786TIP3    H259850   0.499   2.724   0.242 -1.1814  2.5525 -0.4987
12787TIP3   OH259851   2.816   3.551   4.679 -0.1653  0.1414 -0.0249
12787TIP3    H159852   2.757   3.539   4.605 -0.8888  1.8840  0.2363
12787TIP3    H259853   2.758   3.568   4.753  0.6298  1.6165  0.2830
12788TIP3   OH259854   0.843   4.314  17.067 -0.0112 -0.2619 -0.0602
12788TIP3    H159855   0.869   4.390  17.014 -1.8446  1.0047  0.8060
12788TIP3    H259856   0.747   4.311  17.059 -0.0991 -1.4496  1.3121
12789TIP3   OH259857   5.700   0.877   5.089  0.2723 -0.0615  0.5225
12789TIP3    H159858   5.655   0.911   5.166  0.7581  1.3113  0.2059
12789TIP3    H259859   5.646   0.802   5.061 -0.9364  0.5902  1.0742
12790TIP3   OH259860   5.963   1.715  16.079  0.4344 -0.1959  0.4027
12790TIP3    H159861   6.050   1.690  16.109 -0.1952 -1.2317  1.4141
12790TIP3    H259862   5.915   1.633  16.074 -0.0074  0.1626 -1.7775
12791TIP3   OH259863   1.052   0.539  15.617  0.2672 -0.3816 -0.0409
12791TIP3    H159864   1.047   0.496  15.532 -2.3144  0.7384 -0.5031
12791TIP3    H259865   1.113   0.611  15.605 -1.0757  0.5747 -1.3490
12792TIP3   OH259866   4.509   5.407   4.878  0.4732 -0.0554 -0.1491
12792TIP3    H159867   4.490   5.369   4.792  2.5938 -1.1578 -0.1485
12792TIP3    H259868   4.510   5.332   4.937  0.9476  0.4589  0.4943
12793TIP3   OH259869   5.259   4.754   3.103 -0.1807  0.3405  1.0635
12793TIP3    H159870   5.279   4.692   3.173  0.3829  0.3736  0.9377
12793TIP3    H259871   5.336   4.752   3.046  0.3292  1.9617  1.6469
12794TIP3   OH259872   0.994   4.016  11.137  0.0843  0.2178  0.2029
12794TIP3    H159873   1.085   4.018  11.168  0.2885  0.3948 -0.3999
12794TIP3    H259874   0.991   3.942  11.077 -0.3395 -0.1935  0.7387
12795TIP3   OH259875   4.277   3.421   4.763 -0.2708  0.1639 -0.2543
12795TIP3    H159876   4.289   3.335   4.801 -0.6413  0.8952  1.5798
12795TIP3    H259877   4.347   3.429   4.698  1.7997 -0.2496  1.8603
12796TIP3   OH259878   2.772   5.188   5.630 -0.0510 -0.0464 -0.0565
12796TIP3    H159879   2.707   5.136   5.581 -0.2067  1.2252 -1.2650
12796TIP3    H259880   2.727   5.211   5.711 -0.2877 -1.0841  0.1137
12797TIP3   OH259881   0.411   1.478   0.816  0.5945  0.1251 -0.6499
12797TIP3    H159882   0.348   1.523   0.759 -2.5859 -0.7498  1.9878
12797TIP3    H259883   0.439   1.402   0.766  0.1668  0.9745 -2.2022
12798TIP3   OH259884   0.029   0.358  17.261  0.7250 -0.2976 -0.0121
12798TIP3    H159885  -0.020   0.410  17.197 -0.0016 -0.1719  0.6400
12798TIP3    H259886   0.069   0.422  17.319 -1.2857 -0.4741  1.6112
12799TIP3   OH259887   4.608   5.290   4.038  0.4939  0.2198  0.0954
12799TIP3    H159888   4.547   5.243   4.094  0.5969 -1.2425 -1.0017
12799TIP3    H259889   4.621   5.375   4.082 -0.8488 -0.1887  1.2948
12800TIP3   OH259890   3.529   2.591   0.426  0.1010 -0.0058 -0.0256
12800TIP3    H159891   3.576   2.658   0.377  0.7654 -0.2873  0.2204
12800TIP3    H259892   3.439   2.623   0.431  0.1824  0.3528 -0.8259
12801TIP3   OH259893   6.644   2.971  13.179  0.3413 -0.6617 -0.2315
12801TIP3    H159894   6.613   3.050  13.135  0.6603  1.1263  2.6893
12801TIP3    H259895   6.681   2.918  13.108 -2.2812  0.5691 -2.6175
12802TIP3   OH259896   0.528   2.514  10.962 -0.2825  0.1025  0.4373
12802TIP3    H159897   0.556   2.597  11.000  2.7789  1.1843 -3.7800
12802TIP3    H259898   0.589   2.449  10.998 -0.1198  0.3920  0.6779
12803TIP3   OH259899   6.790   1.173  11.201 -0.1446 -0.6846  0.0229
12803TIP3    H159900   6.803   1.252  11.149  0.5710  0.0230  1.2486
12803TIP3    H259901   6.768   1.105  11.137  0.9472  0.1098 -1.2241
12804TIP3   OH259902   5.560   0.977   5.316  0.2046 -0.9942  0.5661
12804TIP3    H159903   5.631   1.033   5.347  0.7804 -2.4512  1.9023
12804TIP3    H259904   5.483   1.034   5.318  0.9840  0.0709  0.8364
12805TIP3   OH259905   4.321   2.495  15.599 -0.0797 -0.1396 -0.1492
12805TIP3    H159906   4.351   2.416  15.643  1.4046  0.6247  0.2174
12805TIP3    H259907   4.394   2.520  15.543 -0.4336  1.1421 -0.0425
12806TIP3   OH259908   1.516   0.346   1.323  0.3364 -0.0935  0.0130
12806TIP3    H159909   1.456   0.420   1.325  0.2457 -0.2166  1.9095
12806TIP3    H259910   1.509   0.305   1.409  3.2916  0.0335  0.3960
12807TIP3   OH259911   0.555   1.179   4.749  0.2653 -0.2423  0.1080
12807TIP3    H159912   0.578   1.133   4.830 -1.7931  0.0784  0.9034
12807TIP3    H259913   0.602   1.263   4.756  0.9498 -0.6480  0.4599
12808TIP3   OH259914   1.899   5.124  13.743 -0.0402  0.2688 -0.3547
12808TIP3    H159915   1.948   5.188  13.795  1.5260 -0.6873 -0.6216
12808TIP3    H259916   1.885   5.167  13.659  1.6739  0.0077 -0.8017
12809TIP3   OH259917   1.501   5.573  12.995 -0.5201 -0.4598 -0.0394
12809TIP3    H159918   1.593   5.550  13.012 -0.4081 -0.1756 -0.2545
12809TIP3    H259919   1.468   5.501  12.941 -0.7171 -1.0854  0.8936
12810TIP3   OH259920   1.393   1.844   3.556 -0.4377 -0.0706 -0.0740
12810TIP3    H159921   1.418   1.757   3.587 -1.2598 -0.3358 -0.1625
12810TIP3    H259922   1.356   1.888   3.633 -3.3585 -1.0565 -0.8576
12811TIP3   OH259923   6.041   2.121   5.512  0.2011 -0.0778 -0.2170
12811TIP3    H159924   6.057   2.156   5.600  2.7468  0.7231 -0.9495
12811TIP3    H259925   6.011   2.031   5.527 -1.1817  0.6363  1.5083
12812TIP3   OH259926   2.367   5.770  13.585  0.5443  0.4504 -0.4582
12812TIP3    H159927   2.340   5.679  13.597  0.6266  0.6128  0.9935
12812TIP3    H259928   2.390   5.800  13.673  1.5966  1.5342 -1.0947
12813TIP3   OH259929   0.914   1.204  14.522  0.5773  0.6360  0.1183
12813TIP3    H159930   0.824   1.171  14.523  1.0043 -0.5670  2.4724
12813TIP3    H259931   0.904   1.298  14.542 -0.2174  0.7883 -0.9154
12814TIP3   OH259932   4.001   4.871  16.380  0.6522  1.0638 -0.6189
12814TIP3    H159933   3.942   4.872  16.305  1.7143  1.8761 -1.4689
12814TIP3    H259934   3.945   4.852  16.455 -0.3871 -0.0013 -1.6501
12815TIP3   OH259935   4.345   1.967   0.666  0.0803 -0.7819  0.2391
12815TIP3    H159936   4.349   2.059   0.638 -1.4716 -1.2597 -1.6647
12815TIP3    H259937   4.437   1.941   0.676  0.5601  0.6489 -0.3449
12816TIP3   OH259938   6.257   1.390  13.438 -0.1016  0.0930  0.5941
12816TIP3    H159939   6.187   1.327  13.453  0.4686 -0.3821  1.2502
12816TIP3    H259940   6.337   1.344  13.461  0.5440  0.2376 -1.3541
12817TIP3   OH259941   4.890   1.988   5.714  0.0355 -0.4082  0.2846
12817TIP3    H159942   4.981   2.011   5.734 -0.2744  0.2117  1.0104
12817TIP3    H259943   4.874   2.024   5.627 -0.1162  1.2166  0.9703
12818TIP3   OH259944   5.815   4.354  13.012 -0.3378 -0.6904  0.2052
12818TIP3    H159945   5.773   4.387  13.091 -2.7716  1.0080 -1.7385
12818TIP3    H259946   5.827   4.431  12.957  2.1151 -1.7059 -0.7784
12819TIP3   OH259947   0.785   0.583   4.185  0.0494 -0.0276  0.0432
12819TIP3    H159948   0.807   0.542   4.101  0.4840 -0.2916  0.2843
12819TIP3    H259949   0.717   0.647   4.163  1.5070  1.2581 -0.8196
12820TIP3   OH259950   1.749   3.796   3.935 -0.2386 -0.1894 -0.9501
12820TIP3    H159951   1.767   3.814   4.027 -0.6523  1.1330 -1.1034
12820TIP3    H259952   1.834   3.779   3.896 -0.2426 -2.6536  0.0410
12821TIP3   OH259953   2.846   0.875  14.042  0.0388  0.2686  0.3367
12821TIP3    H159954   2.913   0.828  14.091  0.0745  0.1668  0.1878
12821TIP3    H259955   2.810   0.810  13.982  1.1551  0.8417 -0.9656
12822TIP3   OH259956   6.384   5.895  14.015  0.1935  0.1191 -0.0365
12822TIP3    H159957   6.327   5.965  14.046  1.4133  0.5118  1.4165
12822TIP3    H259958   6.419   5.926  13.932 -0.6858  0.4438 -0.2844
12823TIP3   OH259959   2.234   6.039   1.392 -0.3172  0.1298  0.0407
12823TIP3    H159960   2.139   6.052   1.390  0.0098  3.3771  1.7078
12823TIP3    H259961   2.249   5.981   1.466 -0.9627  0.1796  0.2098
12824TIP3   OH259962   1.601   1.651   2.896  0.3418  0.4702  0.5339
12824TIP3    H159963   1.515   1.613   2.879  0.2175  0.2316  1.6879
12824TIP3    H259964   1.621   1.702   2.817 -1.3527  1.4537  0.7341
12825TIP3   OH259965   6.388   0.603   1.761 -0.3934  0.4561 -0.6038
12825TIP3    H159966   6.315   0.569   1.708 -1.0087  1.0200 -0.1271
12825TIP3    H259967   6.351   0.680   1.804  1.1338  2.0892 -2.1270
12826TIP3   OH259968   1.859   3.019  13.599  0.0366  0.1009  0.2072
12826TIP3    H159969   1.910   3.086  13.552  1.4899 -1.2650 -0.2047
12826TIP3    H259970   1.831   2.958  13.531  0.3002 -0.7205  0.8261
12827TIP3   OH259971   6.660   4.692   5.468  0.2026  0.1264 -0.0622
12827TIP3    H159972   6.679   4.625   5.533 -0.2712 -0.2682 -0.3240
12827TIP3    H259973   6.651   4.643   5.386 -3.9149  0.0410  0.3777
12828TIP3   OH259974   4.785   3.749  11.160  0.8691  0.0677 -0.0466
12828TIP3    H159975   4.840   3.824  11.180  1.0232 -0.5667  2.0051
12828TIP3    H259976   4.846   3.680  11.132  1.0318 -0.2710  1.1146
12829TIP3   OH259977   0.256   0.139   2.234 -0.5754  0.1437 -0.0496
12829TIP3    H159978   0.341   0.181   2.227 -0.3939 -0.4519 -1.6634
12829TIP3    H259979   0.251   0.109   2.325  0.1125  1.8684  0.5687
12830TIP3   OH259980   2.578   1.503   1.900  0.1111  0.0893 -0.8447
12830TIP3    H159981   2.585   1.410   1.921  0.6016  0.7171  2.0680
12830TIP3    H259982   2.659   1.524   1.855 -0.5202 -1.1247 -2.5864
12831TIP3   OH259983   4.452   6.444   1.549  0.0525  0.1131  0.8080
12831TIP3    H159984   4.385   6.393   1.503  0.7987  0.4441 -0.6595
12831TIP3    H259985   4.470   6.518   1.491  1.4602  0.1962  1.3278
12832TIP3   OH259986   2.744   4.771   1.670 -0.1372  0.0146  0.3761
12832TIP3    H159987   2.697   4.688   1.661  0.3653 -0.3378  0.9315
12832TIP3    H259988   2.676   4.837   1.680 -0.5272 -0.3807  0.3336
12833TIP3   OH259989   6.168   1.349  12.500  0.4576  0.3619  0.3084
12833TIP3    H159990   6.153   1.432  12.455  1.2415  0.1511 -0.3489
12833TIP3    H259991   6.100   1.346  12.567  1.8646  2.6491  1.9044
12834TIP3   OH259992   4.001   2.053  16.475 -0.3706  0.4837 -0.3174
12834TIP3    H159993   4.062   2.112  16.520  0.6036 -1.8493  1.5735
12834TIP3    H259994   3.920   2.059  16.525  0.2388 -0.9592  0.8900
12835TIP3   OH259995   1.294   3.765  12.584  0.3235 -0.0010  0.2569
12835TIP3    H159996   1.220   3.711  12.611  0.7834  0.0433  1.6784
12835TIP3    H259997   1.306   3.746  12.491 -1.5680  0.1306 -0.0190
12836TIP3   OH259998   3.118   2.359   4.390  0.1014  0.1689  0.1147
12836TIP3    H159999   3.136   2.387   4.480 -1.6991  1.9385 -0.0468
12836TIP3    H260000   3.024   2.376   4.378 -0.2421 -2.4755 -1.2491
12837TIP3   OH260001   0.881   5.180  14.636 -0.2616  0.0257  0.0474
12837TIP3    H160002   0.884   5.085  14.624  1.7412  0.2270 -1.1895
12837TIP3    H260003   0.788   5.201  14.631 -0.5974 -1.6512 -1.4701
12838TIP3   OH260004   2.571   4.547  15.530  0.4423  0.3211  0.5251
12838TIP3    H160005   2.503   4.559  15.465 -0.5728  0.8620  1.6692
12838TIP3    H260006   2.636   4.492  15.487 -2.0415 -2.5761  0.3485
12839TIP3   OH260007   1.101   2.482  12.328 -0.5730  0.7017  0.0804
12839TIP3    H160008   1.080   2.575  12.318 -0.1488  0.8531  0.5295
12839TIP3    H260009   1.020   2.436  12.308 -0.5148  1.1171 -1.1512
12840TIP3   OH260010   0.717   0.353   4.779 -0.3266  0.4619 -0.1615
12840TIP3    H160011   0.628   0.388   4.777 -0.7137 -0.5486 -1.8395
12840TIP3    H260012   0.773   0.429   4.792 -1.4336  1.0749  1.2111
12841TIP3   OH260013   1.454   4.634   1.489  0.1130  0.5822 -0.0193
12841TIP3    H160014   1.422   4.602   1.405  0.0610 -1.2371  0.6625
12841TIP3    H260015   1.384   4.612   1.551  0.6049  0.9518  0.6796
12842TIP3   OH260016   5.382   2.825  17.173 -0.0622 -0.3886 -0.2031
12842TIP3    H160017   5.404   2.776  17.093 -0.3489 -0.7554 -0.0601
12842TIP3    H260018   5.338   2.760  17.229  1.8158 -0.6547  1.0358
12843TIP3   OH260019   6.645   4.310   1.009  0.0905  0.1299 -0.4845
12843TIP3    H160020   6.717   4.285   0.951 -0.9288  0.2786 -1.8392
12843TIP3    H260021   6.600   4.381   0.963 -0.1135  0.9629  0.9723
12844TIP3   OH260022   3.629   2.813   0.308 -0.1932  0.6153 -0.7420
12844TIP3    H160023   3.722   2.837   0.317 -0.5585  1.2920  1.6897
12844TIP3    H260024   3.597   2.867   0.236  1.0676  1.1129 -0.9477
12845TIP3   OH260025   6.292   1.005   4.757 -0.0898 -0.0628  0.1973
12845TIP3    H160026   6.318   1.017   4.666 -0.0876 -0.9603  0.0694
12845TIP3    H260027   6.372   1.021   4.807  0.0040  0.0447  0.0110
12846TIP3   OH260028   6.241   2.862   3.037 -0.2161  0.8741  0.9966
12846TIP3    H160029   6.247   2.909   2.954 -0.7312  0.5051  0.7504
12846TIP3    H260030   6.222   2.930   3.102  0.4827  1.2062  0.8617
12847TIP3   OH260031   1.080   2.359  16.357  0.0830 -0.3627 -0.2667
12847TIP3    H160032   1.004   2.416  16.370 -0.4992 -0.6305 -2.3570
12847TIP3    H260033   1.151   2.405  16.403 -0.6898  1.3282 -0.7062
12848TIP3   OH260034   0.084   0.077   1.320 -0.4197 -0.7215  0.0205
12848TIP3    H160035   0.137   0.151   1.289  0.2166 -0.5841  1.4189
12848TIP3    H260036  -0.006   0.105   1.307 -0.1794  0.1651  0.2349
12849TIP3   OH260037   6.027   4.901   0.791  0.4388  0.1126  0.2454
12849TIP3    H160038   6.098   4.920   0.729 -0.0328 -1.3253 -0.7651
12849TIP3    H260039   5.970   4.978   0.786  1.0554  0.5435 -0.1917
12850TIP3   OH260040   1.833   3.466  12.858  0.0766  0.4355 -0.2706
12850TIP3    H160041   1.926   3.461  12.835  0.3553  1.4743  0.6101
12850TIP3    H260042   1.832   3.510  12.943 -1.2391  0.5569 -0.3493
12851TIP3   OH260043   2.776   5.976   3.830  0.1731 -0.0394 -0.0823
12851TIP3    H160044   2.855   6.017   3.795  0.5060 -0.1229  0.5659
12851TIP3    H260045   2.748   5.915   3.762 -0.1631  1.0397 -0.9288
12852TIP3   OH260046   5.225   2.971  13.180 -0.0521 -0.3530 -1.5583
12852TIP3    H160047   5.205   3.001  13.091  0.0841  2.0882 -0.7842
12852TIP3    H260048   5.191   3.040  13.237  1.0113 -1.2928  0.2471
12853TIP3   OH260049   1.923   4.954   5.173 -0.1214 -0.1958  0.0174
12853TIP3    H160050   1.979   4.952   5.096 -2.6356 -0.4395 -1.8611
12853TIP3    H260051   1.889   4.865   5.181 -1.3797  0.2981  0.2643
12854TIP3   OH260052   2.262   5.780  11.847  0.2370  0.1212  0.2731
12854TIP3    H160053   2.224   5.828  11.773  2.0683 -0.2946 -0.9949
12854TIP3    H260054   2.188   5.733  11.886 -1.0421  1.6082 -0.3110
12855TIP3   OH260055   4.515   6.819  15.659 -0.4749  0.1200 -0.5537
12855TIP3    H160056   4.462   6.795  15.584 -0.8438 -1.9323  0.3466
12855TIP3    H260057   4.525   6.914  15.652  0.7312 -0.2183 -3.9753
12856TIP3   OH260058   4.211   1.958   2.587 -0.0300 -0.4795 -0.1818
12856TIP3    H160059   4.220   1.952   2.491 -1.7136 -0.3882 -0.3503
12856TIP3    H260060   4.276   2.024   2.613  2.4457 -2.5350 -0.9213
12857TIP3   OH260061   4.884   3.437  11.182  0.0147  0.6731  1.1826
12857TIP3    H160062   4.813   3.420  11.120 -0.1541  1.7472  1.0673
12857TIP3    H260063   4.942   3.498  11.135  1.7499 -1.2595  0.7480
12858TIP3   OH260064   0.262   4.644   0.355 -0.6173  0.0668 -0.2461
12858TIP3    H160065   0.198   4.686   0.297 -0.0961 -0.1355 -0.9890
12858TIP3    H260066   0.260   4.695   0.435 -0.5727  1.0322 -0.8492
12859TIP3   OH260067   2.270   5.298  12.590  0.3997 -0.4620 -0.2424
12859TIP3    H160068   2.342   5.354  12.562  0.9003 -1.9591 -2.0560
12859TIP3    H260069   2.304   5.251  12.666  1.6845 -1.8213 -1.6258
12860TIP3   OH260070   1.202   2.914   4.250  0.2575 -0.5461 -0.1460
12860TIP3    H160071   1.271   2.848   4.259  1.0315  0.3051  0.2331
12860TIP3    H260072   1.204   2.963   4.332 -0.3607 -0.0880 -0.3958
12861TIP3   OH260073   5.826   2.362   6.147 -0.2373  0.7865  0.1505
12861TIP3    H160074   5.813   2.282   6.096  0.4840  1.0886 -0.5281
12861TIP3    H260075   5.874   2.333   6.225 -1.5459  0.2878  0.7735
12862TIP3   OH260076   6.531   4.681   6.302  0.4490  0.6250  0.1464
12862TIP3    H160077   6.517   4.774   6.282 -1.3924  0.6771  1.4859
12862TIP3    H260078   6.476   4.634   6.239 -1.1969  0.6014  1.5444
12863TIP3   OH260079   0.496   4.157   6.068 -0.1051  0.0026 -0.4279
12863TIP3    H160080   0.498   4.089   6.000 -0.8610  1.8351 -2.3070
12863TIP3    H260081   0.509   4.108   6.149 -2.6774 -2.6707 -1.5160
12864TIP3   OH260082   4.800   2.308   0.070 -0.0162  0.3572  0.2984
12864TIP3    H160083   4.770   2.372   0.005 -1.2652  1.7346  2.1597
12864TIP3    H260084   4.890   2.288   0.044 -0.8196  0.1044 -2.4153
12865TIP3   OH260085   6.235   4.747   1.291 -0.3613  0.0031 -0.3568
12865TIP3    H160086   6.145   4.729   1.320  0.0865 -1.9549 -0.1535
12865TIP3    H260087   6.225   4.813   1.222 -1.7714  1.5105  1.2486
12866TIP3   OH260088   5.419   1.136   5.492 -0.1669  0.1443 -0.6529
12866TIP3    H160089   5.437   1.054   5.538 -1.7640 -0.4062 -0.9961
12866TIP3    H260090   5.457   1.204   5.549 -0.3979 -0.6801  0.5019
12867TIP3   OH260091   4.459   2.605   0.092  0.3184 -0.1493 -0.5179
12867TIP3    H160092   4.451   2.648   0.007  1.9576 -0.2024 -0.7098
12867TIP3    H260093   4.397   2.531   0.087  1.4773 -1.0414 -2.2204
12868TIP3   OH260094   1.249   5.150  12.352 -0.0734  0.5685 -0.3667
12868TIP3    H160095   1.159   5.138  12.322 -1.0599  1.4180  2.1377
12868TIP3    H260096   1.276   5.234  12.315  0.0839 -0.1615 -1.9644
12869TIP3   OH260097   1.893   5.909   2.165 -0.1666  0.5039 -0.2352
12869TIP3    H160098   1.948   5.831   2.166 -0.6150  0.1880  0.0400
12869TIP3    H260099   1.930   5.966   2.232 -1.0449 -0.3184  0.9699
12870TIP3   OH260100   0.982   4.812   4.487  0.5471 -0.3945 -0.0325
12870TIP3    H160101   0.905   4.757   4.497  2.0947 -2.7830 -0.6701
12870TIP3    H260102   1.055   4.754   4.510  2.3242  1.0413 -1.9296
12871TIP3   OH260103   2.628   3.683  11.505 -0.2856 -0.1158  0.1496
12871TIP3    H160104   2.569   3.703  11.432  0.0379 -0.7845 -0.2966
12871TIP3    H260105   2.578   3.624  11.561  0.1849 -1.2011 -0.5582
12872TIP3   OH260106   3.219   0.772   0.647  0.6549  0.4143  0.0464
12872TIP3    H160107   3.278   0.754   0.574  0.4408 -0.4372  0.0858
12872TIP3    H260108   3.160   0.840   0.614  0.7342  0.2272 -0.4754
12873TIP3   OH260109   2.466   0.381   0.545 -0.0931 -0.0919 -0.1464
12873TIP3    H160110   2.401   0.312   0.531  1.4174 -1.4702 -0.4449
12873TIP3    H260111   2.480   0.383   0.639 -0.6253  0.2828 -0.0693
12874TIP3   OH260112   0.766   1.271   3.487  0.3205  0.1258  0.0337
12874TIP3    H160113   0.770   1.201   3.422  0.3532 -0.4340  0.6376
12874TIP3    H260114   0.766   1.226   3.571  0.4913  0.8575  0.4298
12875TIP3   OH260115   4.708   0.290   6.208  0.1485  0.2121  0.5214
12875TIP3    H160116   4.735   0.284   6.300 -0.9959  1.5492  0.9473
12875TIP3    H260117   4.778   0.340   6.166  0.2021  0.4095  0.8457
12876TIP3   OH260118   1.604   5.789   6.107 -0.2635  0.4334 -0.0346
12876TIP3    H160119   1.674   5.793   6.173 -0.6946 -0.9602  0.5235
12876TIP3    H260120   1.650   5.797   6.024  0.3240  1.8485  0.3956
12877TIP3   OH260121   3.630   5.568  15.174  0.5984 -0.5381  0.1963
12877TIP3    H160122   3.721   5.598  15.179  0.1937  1.1846 -2.0541
12877TIP3    H260123   3.632   5.495  15.111  0.2716  0.2094 -0.6930
12878TIP3   OH260124   0.463   0.107   1.445  0.2031  0.3961 -0.3400
12878TIP3    H160125   0.507   0.036   1.398  1.4223  1.4288 -0.8089
12878TIP3    H260126   0.453   0.074   1.534 -0.0593 -0.7042 -0.7618
12879TIP3   OH260127   0.299   0.652  16.314 -0.5862  0.4075 -0.1155
12879TIP3    H160128   0.287   0.579  16.253  1.9498 -1.0291  0.9980
12879TIP3    H260129   0.238   0.634  16.386 -1.4565  0.5180 -0.8221
12880TIP3   OH260130   0.428   5.345   3.731  0.1628 -0.2369  0.3636
12880TIP3    H160131   0.447   5.410   3.799  0.9237  0.0779 -0.1533
12880TIP3    H260132   0.333   5.351   3.719 -0.1495 -1.0573  2.1652
12881TIP3   OH260133   5.132   1.951  10.528 -0.0363 -0.1847  0.5553
12881TIP3    H160134   5.110   1.862  10.501 -2.4497  0.9641 -1.4201
12881TIP3    H260135   5.207   1.974  10.473  0.6618 -1.0153  1.1455
12882TIP3   OH260136   0.405   6.617   6.694 -0.3588 -0.3920 -0.2936
12882TIP3    H160137   0.394   6.535   6.646  0.4559  0.0957 -1.3191
12882TIP3    H260138   0.316   6.652   6.702 -0.4731 -0.3364 -1.6945
12883TIP3   OH260139   1.112   1.964  12.678 -0.4595  0.5417 -0.6068
12883TIP3    H160140   1.106   1.875  12.644 -1.6893  0.2155  0.4203
12883TIP3    H260141   1.155   2.014  12.609 -0.2661 -0.7336 -1.4140
12884TIP3   OH260142   5.772   1.958  16.687  0.1129  0.0175  0.9449
12884TIP3    H160143   5.849   1.913  16.721 -0.7970 -2.4239 -0.1164
12884TIP3    H260144   5.807   2.034  16.640  1.7509 -0.2181  1.7727
12885TIP3   OH260145   2.498   1.117  14.112  0.3160  0.0253 -0.0017
12885TIP3    H160146   2.570   1.105  14.050 -0.0240 -0.5313 -0.2919
12885TIP3    H260147   2.480   1.211  14.109  1.9544  0.3812  1.1214
12886TIP3   OH260148   0.847   4.420  15.212 -0.3987 -0.2830  0.1823
12886TIP3    H160149   0.770   4.433  15.266 -1.1871  1.2308 -1.2486
12886TIP3    H260150   0.827   4.465  15.130  1.4554 -1.0296 -0.7252
12887TIP3   OH260151   1.608   4.068  15.147  0.1999  0.3667 -0.1037
12887TIP3    H160152   1.622   4.076  15.242  0.3708  0.4791 -0.1387
12887TIP3    H260153   1.538   4.129  15.128 -1.0980 -0.9888  0.2468
12888TIP3   OH260154   2.578   1.992   1.249 -0.4200 -0.4577  0.0881
12888TIP3    H160155   2.492   1.982   1.289  0.4912 -0.7335  2.0435
12888TIP3    H260156   2.629   1.919   1.285  1.4336  1.3245  1.1764
12889TIP3   OH260157   4.204   3.658   1.257  0.4362 -0.3629  0.4286
12889TIP3    H160158   4.149   3.728   1.292  0.0037 -0.7375  0.5074
12889TIP3    H260159   4.224   3.685   1.167  1.2211  0.4143  0.8215
12890TIP3   OH260160   3.265   2.200  14.773 -0.5531 -0.0417 -0.0672
12890TIP3    H160161   3.227   2.112  14.763  1.0996 -0.6599 -1.0905
12890TIP3    H260162   3.253   2.241  14.687  1.0930 -0.2624 -0.4202
12891TIP3   OH260163   2.052   3.032  15.571  0.2766  0.2450 -1.0525
12891TIP3    H160164   2.109   3.039  15.648 -0.8419 -1.2319 -0.0419
12891TIP3    H260165   2.108   2.996  15.502  0.7246 -0.6679 -0.2295
12892TIP3   OH260166   3.874   2.970  11.035 -0.0400  0.1884 -0.0847
12892TIP3    H160167   3.917   2.901  10.985  0.2309 -0.7738  1.4540
12892TIP3    H260168   3.862   2.933  11.123 -0.5073  1.8432  0.5751
12893TIP3   OH260169   3.415   3.644  16.557  0.5626  0.3556  0.4857
12893TIP3    H160170   3.387   3.693  16.479 -0.9528  1.2943  1.5975
12893TIP3    H260171   3.505   3.618  16.537  0.4668  1.2563 -1.2573
12894TIP3   OH260172   5.072   1.500  11.591 -0.2985 -0.4733  0.2227
12894TIP3    H160173   4.988   1.459  11.611 -0.7367 -0.6086 -1.7716
12894TIP3    H260174   5.073   1.509  11.495  0.7522  2.0815  0.4100
12895TIP3   OH260175   0.840   1.385  17.109  1.1257  0.4402  0.3796
12895TIP3    H160176   0.799   1.449  17.051  0.7870  1.6872  1.9824
12895TIP3    H260177   0.917   1.355  17.061  0.1964  0.5680 -1.2188
12896TIP3   OH260178   6.490   2.405  14.513 -0.0168  0.0135  0.1429
12896TIP3    H160179   6.478   2.315  14.481  1.0930 -0.0935  0.0068
12896TIP3    H260180   6.432   2.458  14.458  0.9881 -0.3352 -1.2845
12897TIP3   OH260181   2.701   2.892  15.320  0.5504  0.5151 -0.3162
12897TIP3    H160182   2.720   2.840  15.398  1.2321  0.0423 -0.7899
12897TIP3    H260183   2.614   2.864  15.292 -0.2719  1.6619  1.0464
12898TIP3   OH260184   5.596   4.584  15.366  0.2179  0.0763 -0.0234
12898TIP3    H160185   5.609   4.552  15.455 -1.7516 -0.6865  0.0034
12898TIP3    H260186   5.606   4.679  15.373  0.8493 -0.0512  0.8557
12899TIP3   OH260187   2.704   1.766   5.726  0.1188 -0.3613 -0.4409
12899TIP3    H160188   2.710   1.720   5.643 -2.9099  0.2635 -1.0389
12899TIP3    H260189   2.768   1.722   5.782 -2.1780 -4.9624 -1.1669
12900TIP3   OH260190   2.102   0.541  17.215 -0.0876 -0.7910 -0.2051
12900TIP3    H160191   2.150   0.459  17.230 -0.3016 -1.1184 -1.2269
12900TIP3    H260192   2.125   0.565  17.125 -0.5332 -0.0771 -0.1274
12901TIP3   OH260193   4.112   6.411  14.041  0.7586  0.0733 -0.0508
12901TIP3    H160194   4.144   6.409  14.131 -0.7151  1.6845  0.5252
12901TIP3    H260195   4.146   6.493  14.006 -3.9525  2.6513  1.0786
12902TIP3   OH260196   3.737   5.662  15.727 -0.0684 -0.2599  0.6709
12902TIP3    H160197   3.812   5.698  15.776  0.9215 -0.6691 -0.5129
12902TIP3    H260198   3.683   5.737  15.707  0.8251  0.2655  0.1943
12903TIP3   OH260199   0.383   0.836   3.905  0.5261  0.1234 -0.5756
12903TIP3    H160200   0.386   0.930   3.926  0.5218  0.1947 -0.8848
12903TIP3    H260201   0.289   0.817   3.897  0.4699 -0.1879  0.7084
12904TIP3   OH260202   3.448   2.052   0.435  0.2785 -0.2335  0.4666
12904TIP3    H160203   3.439   2.101   0.354  0.0218  0.6797  1.0358
12904TIP3    H260204   3.500   1.975   0.412  0.2791  0.0682 -0.5349
12905TIP3   OH260205   0.650   4.172   4.655  0.4330  0.5299  0.1740
12905TIP3    H160206   0.688   4.090   4.623 -2.4538  0.1524 -2.5297
12905TIP3    H260207   0.586   4.145   4.720  1.2610  0.8379  1.1312
12906TIP3   OH260208   2.193   5.973  11.655 -0.2901  0.3071  0.1525
12906TIP3    H160209   2.121   6.033  11.673 -2.0748 -0.8494 -2.7852
12906TIP3    H260210   2.259   6.027  11.612 -0.7346  0.7264 -0.0038
12907TIP3   OH260211   2.213   6.624   2.473 -0.1504 -0.3350  0.5720
12907TIP3    H160212   2.237   6.652   2.384  1.7891  0.1460  1.2219
12907TIP3    H260213   2.253   6.538   2.483 -2.9949 -1.7952 -0.0964
12908TIP3   OH260214   0.619   5.214   3.946  0.1155 -0.3371 -0.3469
12908TIP3    H160215   0.562   5.214   3.869  0.9924 -0.7197 -1.0076
12908TIP3    H260216   0.558   5.210   4.020 -0.8344  2.4274 -0.9156
12909TIP3   OH260217   4.344   0.303   5.988 -0.2380 -0.2777 -0.4181
12909TIP3    H160218   4.309   0.372   5.932 -0.0191  1.1592  1.1846
12909TIP3    H260219   4.269   0.271   6.037 -0.1274 -0.3725 -0.3094
12910TIP3   OH260220   2.398   4.801  15.874  0.2988 -0.1057  0.0080
12910TIP3    H160221   2.430   4.714  15.896  1.1981  0.0968 -0.4975
12910TIP3    H260222   2.423   4.814  15.783  0.8875  1.0047  0.3234
12911TIP3   OH260223   0.911   3.833  13.921 -0.0536 -0.2515 -0.5195
12911TIP3    H160224   0.923   3.921  13.885  0.2605  0.3337  0.9728
12911TIP3    H260225   0.998   3.794  13.916  0.4399  0.5222  1.3207
12912TIP3   OH260226   5.250   6.312   2.398 -0.2417  0.5375 -0.4771
12912TIP3    H160227   5.212   6.333   2.483  0.8329 -0.3735  0.2243
12912TIP3    H260228   5.242   6.217   2.390  1.9008  0.3213 -0.3053
12913TIP3   OH260229   3.695   3.527   3.783  0.1291 -0.4307 -0.3581
12913TIP3    H160230   3.672   3.495   3.870 -0.6268 -0.2258 -0.4775
12913TIP3    H260231   3.647   3.470   3.723  0.3014 -0.2922 -0.6282
12914TIP3   OH260232   3.415   0.160  17.202  0.6062 -0.4454 -0.4636
12914TIP3    H160233   3.366   0.241  17.211  0.2323 -0.9366  2.8241
12914TIP3    H260234   3.353   0.098  17.163 -0.6325 -0.3659  1.3103
12915TIP3   OH260235   4.435   2.300  13.301  0.5688 -0.0276  0.1418
12915TIP3    H160236   4.472   2.286  13.214 -2.3271  1.5635 -1.4091
12915TIP3    H260237   4.503   2.347  13.349  1.9303 -0.3200 -1.4530
12916TIP3   OH260238   1.229   0.574   3.039 -0.1978 -0.1654 -0.0840
12916TIP3    H160239   1.251   0.613   3.123 -0.5345 -0.7616  0.2822
12916TIP3    H260240   1.282   0.622   2.975  0.3343  0.0332  0.5090
12917TIP3   OH260241   3.642   4.277   3.729  0.4833 -0.5199  0.3046
12917TIP3    H160242   3.725   4.318   3.705  0.0089  0.7215  0.7419
12917TIP3    H260243   3.614   4.324   3.808 -0.3357 -1.3189  0.4951
12918TIP3   OH260244   3.541   3.862  11.021 -0.2294  0.2571 -0.6244
12918TIP3    H160245   3.490   3.941  11.006 -1.1900 -0.4968 -1.3726
12918TIP3    H260246   3.476   3.793  11.035  0.5892 -0.5575 -0.7548
12919TIP3   OH260247   6.454   5.440  11.037 -0.6220  0.1034  0.2530
12919TIP3    H160248   6.509   5.389  10.977 -0.5590 -0.5970  0.9039
12919TIP3    H260249   6.368   5.400  11.030 -0.9017  0.7751 -0.2538
12920TIP3   OH260250   5.178   0.539   0.304 -0.0438  0.2546  0.5769
12920TIP3    H160251   5.263   0.500   0.323  1.2747  1.0704 -3.1303
12920TIP3    H260252   5.195   0.633   0.301 -1.7565  0.6663  2.7272
12921TIP3   OH260253   3.541   1.330  13.201  0.5760 -0.0758 -0.0038
12921TIP3    H160254   3.458   1.373  13.221  0.5761 -0.8648  1.8245
12921TIP3    H260255   3.518   1.259  13.142  0.5037  2.0534 -2.6158
12922TIP3   OH260256   5.280   6.098  16.956  0.3804 -0.4934 -0.0753
12922TIP3    H160257   5.248   6.111  17.045  3.3380 -2.3346  1.3527
12922TIP3    H260258   5.273   6.004  16.941  3.7840 -0.8350 -0.0998
12923TIP3   OH260259   6.707   6.106   1.445  0.4122  0.3260 -0.0113
12923TIP3    H160260   6.798   6.076   1.440  0.8962  1.3177  2.1081
12923TIP3    H260261   6.701   6.176   1.380  1.2742  0.5150  0.1103
12924TIP3   OH260262   0.583   4.102   6.593 -0.4329 -0.0262  0.2231
12924TIP3    H160263   0.511   4.041   6.576  0.4279 -0.6057 -1.5386
12924TIP3    H260264   0.544   4.189   6.585 -1.1449 -0.3389  0.2763
12925TIP3   OH260265   2.222   4.499  11.609  0.0497 -0.3749  0.2750
12925TIP3    H160266   2.294   4.501  11.545 -0.2584  0.6926 -0.0534
12925TIP3    H260267   2.199   4.407  11.617 -0.7246 -0.4309 -2.1002
12926TIP3   OH260268   5.704   3.921  10.622  0.4294  0.9860 -0.6761
12926TIP3    H160269   5.754   3.843  10.602 -2.4227 -1.2077  0.3373
12926TIP3    H260270   5.655   3.940  10.542 -2.0460 -0.8247  0.3335
12927TIP3   OH260271   2.280   2.625   0.623  0.1455  0.2188  0.1233
12927TIP3    H160272   2.256   2.675   0.545 -0.5790  1.9846  1.4638
12927TIP3    H260273   2.200   2.577   0.646  0.1886  0.1438  0.1172
12928TIP3   OH260274   6.553   2.952  12.331  0.4358 -0.7938 -0.0836
12928TIP3    H160275   6.592   2.983  12.413 -0.1912  0.2259 -0.1556
12928TIP3    H260276   6.620   2.968  12.265  0.1327  0.4471 -0.1168
12929TIP3   OH260277   0.748   3.989   0.857 -0.5361 -0.0940  0.0530
12929TIP3    H160278   0.750   3.977   0.762 -0.7504  0.1488  0.0151
12929TIP3    H260279   0.732   3.902   0.892 -0.2518 -0.2191 -0.1264
12930TIP3   OH260280   0.529   0.727  16.171 -0.2218 -0.5325  0.2725
12930TIP3    H160281   0.479   0.700  16.248 -1.9737 -0.5903 -0.8584
12930TIP3    H260282   0.462   0.754  16.107  1.1521 -1.1826 -1.4952
12931TIP3   OH260283   2.575   2.045  13.871 -0.1779  0.3469 -0.3627
12931TIP3    H160284   2.595   2.125  13.822 -1.0145  0.1754 -0.9894
12931TIP3    H260285   2.523   2.075  13.946  1.9728  0.7395  1.0277
12932TIP3   OH260286   0.111   3.903   5.365 -0.2705  0.3851 -0.5178
12932TIP3    H160287   0.103   3.810   5.388  2.9370  0.1600 -0.1021
12932TIP3    H260288   0.080   3.949   5.442  1.2395 -0.3745  0.5759
12933TIP3   OH260289   3.157   3.158   2.671 -0.1577 -0.1425  0.1551
12933TIP3    H160290   3.086   3.110   2.712 -0.1320 -0.3497 -0.0470
12933TIP3    H260291   3.182   3.224   2.737  0.8081 -1.3663  1.0579
12934TIP3   OH260292   3.533   0.438  16.864 -0.3293  0.2829 -0.6949
12934TIP3    H160293   3.554   0.474  16.779  2.6462 -1.2265 -0.6514
12934TIP3    H260294   3.456   0.382  16.848 -0.3298  0.6971 -2.1884
12935TIP3   OH260295   0.692   1.799   2.975  0.2875  0.2978  0.3561
12935TIP3    H160296   0.733   1.741   3.040  0.1287 -0.0505  0.1478
12935TIP3    H260297   0.700   1.886   3.013 -0.4324  0.0187  1.1824
12936TIP3   OH260298   2.710   4.284  14.763  0.2786  0.8245  0.4562
12936TIP3    H160299   2.651   4.339  14.712  1.0362  1.3461  0.1369
12936TIP3    H260300   2.738   4.216  14.702 -2.7765 -1.5658  1.5771
12937TIP3   OH260301   2.610   1.531   0.796  0.1133  0.0095 -0.4053
12937TIP3    H160302   2.586   1.573   0.878  1.4952  2.5448 -1.2365
12937TIP3    H260303   2.595   1.598   0.729  0.8820 -1.3510 -1.9962
12938TIP3   OH260304   1.610   0.416   2.177  0.0296 -0.2487 -0.0096
12938TIP3    H160305   1.546   0.413   2.106 -0.6213  0.3608  0.5331
12938TIP3    H260306   1.590   0.340   2.231 -0.3463  0.0355  0.2512
12939TIP3   OH260307   1.222   0.317   2.319  0.0933  0.2219  0.0631
12939TIP3    H160308   1.188   0.312   2.408 -1.4537 -1.8670 -0.6293
12939TIP3    H260309   1.306   0.271   2.322  0.3151  0.6552  0.5465
12940TIP3   OH260310   1.706   6.200   0.713 -0.4252 -0.0650  0.0774
12940TIP3    H160311   1.700   6.118   0.665  1.3592  0.1015 -0.4555
12940TIP3    H260312   1.621   6.209   0.755 -1.2537 -1.3117 -1.2703
12941TIP3   OH260313   3.431   1.750   0.387  0.3435  0.3834  0.7330
12941TIP3    H160314   3.412   1.744   0.481  0.0930  0.6381  0.6979
12941TIP3    H260315   3.380   1.680   0.347  0.4168  0.3025  0.7812
12942TIP3   OH260316   0.617   6.468   0.169  0.2748  0.3522  1.0612
12942TIP3    H160317   0.646   6.381   0.194  1.7411  0.0850 -1.4207
12942TIP3    H260318   0.672   6.528   0.220  1.7092 -0.1845  0.1807
12943TIP3   OH260319   6.297   4.458  13.715 -0.3530  0.4940 -0.2030
12943TIP3    H160320   6.241   4.501  13.651 -1.7058 -0.0275  0.5841
12943TIP3    H260321   6.318   4.373  13.677 -1.1631  0.1811  0.0433
12944TIP3   OH260322   2.233   2.732  11.566  0.1335 -0.3102 -0.6090
12944TIP3    H160323   2.253   2.642  11.541  1.8981 -0.4842  1.2733
12944TIP3    H260324   2.304   2.784  11.529  1.2298 -0.2221  1.5048
12945TIP3   OH260325   3.200   1.518  14.985  0.6315  0.0562  0.6532
12945TIP3    H160326   3.255   1.456  14.937  0.2007  1.0193 -1.1388
12945TIP3    H260327   3.128   1.537  14.924 -1.4208 -0.7904  2.7442
12946TIP3   OH260328   0.868   5.492   0.715  0.8214  0.1729  0.2801
12946TIP3    H160329   0.819   5.411   0.732  0.3479  0.5789  0.8993
12946TIP3    H260330   0.860   5.542   0.797  0.6570  1.0784 -0.2819
12947TIP3   OH260331   1.973   6.347  12.344 -0.4610 -0.0210 -0.0514
12947TIP3    H160332   2.000   6.262  12.309 -0.8114 -1.4113  2.9379
12947TIP3    H260333   2.024   6.411  12.294  1.2275 -2.0728 -1.0294
12948TIP3   OH260334   4.653   4.630  14.157 -0.4954  0.2197  0.3550
12948TIP3    H160335   4.643   4.601  14.066 -1.9019  0.3326  0.4640
12948TIP3    H260336   4.744   4.610  14.179  0.8521  3.2400 -2.1621
12949TIP3   OH260337   1.868   5.531  12.618  0.6612  0.7882  0.4908
12949TIP3    H160338   1.869   5.555  12.525  1.2271 -0.7222  0.0852
12949TIP3    H260339   1.856   5.614  12.665  1.5092  1.6960 -0.8805
12950TIP3   OH260340   2.982   6.171  13.867  0.6575  0.0625  1.0985
12950TIP3    H160341   2.986   6.230  13.943  1.2586  0.9960  0.3648
12950TIP3    H260342   3.037   6.214  13.801 -2.7403  1.1556 -1.1624
12951TIP3   OH260343   1.955   0.963  15.233  0.0703 -0.4162 -0.1949
12951TIP3    H160344   1.870   0.927  15.208  0.1099 -1.1996  0.7743
12951TIP3    H260345   1.936   1.018  15.309  0.4918 -0.9477  0.2975
12952TIP3   OH260346   6.627   0.079   0.795  0.1908  0.2841  0.1374
12952TIP3    H160347   6.625   0.074   0.699  1.2626  0.1337  0.1129
12952TIP3    H260348   6.634  -0.013   0.823 -0.2189  0.3218  0.3617
12953TIP3   OH260349   2.047   3.454  15.240  0.0187  0.0704  0.4222
12953TIP3    H160350   2.066   3.376  15.188 -0.0529  0.1919  0.2111
12953TIP3    H260351   2.082   3.526  15.187 -2.8026  0.5102 -0.9494
12954TIP3   OH260352   3.619   1.447  14.057 -0.3115  0.0798 -0.1326
12954TIP3    H160353   3.524   1.436  14.049 -0.2357 -1.7092  1.1085
12954TIP3    H260354   3.651   1.442  13.966 -1.3690  0.3920 -0.5269
12955TIP3   OH260355   6.425   5.190  11.763  0.3325 -0.0437 -0.5298
12955TIP3    H160356   6.446   5.280  11.736  2.6035 -0.5439 -0.4979
12955TIP3    H260357   6.393   5.148  11.683 -1.4856  0.9830 -0.3756
12956TIP3   OH260358   5.868   4.820   4.336  0.4112 -0.6573  0.0371
12956TIP3    H160359   5.883   4.824   4.430 -0.6190  0.4330  0.1723
12956TIP3    H260360   5.944   4.864   4.298 -0.6455  1.7429  0.5494
12957TIP3   OH260361   0.050   5.679  15.267 -0.1574  0.6629  0.2427
12957TIP3    H160362  -0.021   5.621  15.296 -1.1487  1.7746  0.0923
12957TIP3    H260363   0.005   5.751  15.223  1.1395  0.7882 -0.9115
12958TIP3   OH260364   5.874   4.378   2.819 -0.1740  0.2528  0.0573
12958TIP3    H160365   5.954   4.327   2.820 -0.6950 -0.5662  0.2513
12958TIP3    H260366   5.841   4.375   2.909 -1.7849 -1.6092 -0.5559
12959TIP3   OH260367   5.185   1.650   0.544 -0.0240 -0.3293  0.2216
12959TIP3    H160368   5.150   1.567   0.513  2.9658 -1.4813 -0.1815
12959TIP3    H260369   5.191   1.640   0.639  0.8090 -0.7569  0.1225
12960TIP3   OH260370   6.757   2.585  15.460  0.0109  0.1156 -0.2522
12960TIP3    H160371   6.841   2.552  15.491  0.6457 -0.0819 -2.1071
12960TIP3    H260372   6.695   2.565  15.530  1.3540 -0.5037  0.7640
12961TIP3   OH260373   4.406   1.182   2.313  0.1691  0.5298 -0.1221
12961TIP3    H160374   4.491   1.198   2.272  0.1268 -1.8459 -1.2243
12961TIP3    H260375   4.388   1.089   2.297 -2.9801  1.1447 -0.6141
12962TIP3   OH260376   2.604   1.170   6.333  0.1022  0.4673  0.0631
12962TIP3    H160377   2.579   1.085   6.369 -0.9886  0.7572  0.0072
12962TIP3    H260378   2.591   1.160   6.238 -0.6976  0.9163  0.1258
12963TIP3   OH260379   2.366   0.811   3.643 -0.1653  0.2118 -0.0517
12963TIP3    H160380   2.419   0.865   3.702 -2.6119  3.3430 -0.6037
12963TIP3    H260381   2.430   0.773   3.582  1.7603  1.3992  1.1715
12964TIP3   OH260382   0.851   5.793  12.174 -0.5665  0.6209  0.5416
12964TIP3    H160383   0.930   5.776  12.224 -0.3374  0.3929  0.1059
12964TIP3    H260384   0.785   5.735  12.212 -0.6172  1.0409  1.1145
12965TIP3   OH260385   2.850   4.512   2.121  0.1135 -0.4976 -0.0953
12965TIP3    H160386   2.790   4.471   2.059 -1.6514  1.2401  0.4008
12965TIP3    H260387   2.793   4.549   2.188  1.9477 -1.9215  2.3334
12966TIP3   OH260388   3.834   4.962   4.585  0.0808 -0.5831 -0.2546
12966TIP3    H160389   3.813   4.894   4.649 -0.2547 -1.6568 -1.4588
12966TIP3    H260390   3.765   5.027   4.596  0.2597 -0.5649  0.7502
12967TIP3   OH260391   5.211   0.693  15.140 -0.6421 -0.0630  0.3098
12967TIP3    H160392   5.191   0.782  15.113  0.5070 -0.3873 -1.7133
12967TIP3    H260393   5.125   0.654  15.160 -1.3279  0.8427 -0.8409
12968TIP3   OH260394   1.680   0.219   3.706  0.6932 -0.7525 -0.0841
12968TIP3    H160395   1.687   0.157   3.778  3.7944 -0.5891 -0.1668
12968TIP3    H260396   1.714   0.301   3.743 -0.5983  0.1201 -0.8288
12969TIP3   OH260397   1.141   3.732  14.837 -0.0532 -0.0941  0.4323
12969TIP3    H160398   1.217   3.765  14.886 -0.3422  1.2622 -0.0227
12969TIP3    H260399   1.066   3.772  14.879 -0.2233  2.3050 -2.0100
12970TIP3   OH260400   1.731   4.376   5.144  0.2006  0.0158  0.0644
12970TIP3    H160401   1.682   4.314   5.089  0.0564 -1.4490  1.7849
12970TIP3    H260402   1.690   4.461   5.127 -0.7163 -0.6376 -1.0654
12971TIP3   OH260403   0.753   5.437   1.155  0.2663 -0.0454 -0.0440
12971TIP3    H160404   0.680   5.417   1.214 -0.4740 -1.5345 -1.4326
12971TIP3    H260405   0.776   5.527   1.175 -3.1808  1.0865 -0.8979
12972TIP3   OH260406   5.914   2.071   0.997  0.0970  0.2180  0.1829
12972TIP3    H160407   5.874   2.121   1.068 -0.9253  0.2158 -0.3846
12972TIP3    H260408   5.996   2.038   1.034  1.3122  3.1611  0.2620
12973TIP3   OH260409   4.318   2.575   1.787 -0.5648 -0.1646  0.0369
12973TIP3    H160410   4.310   2.501   1.846 -0.8327  0.1387  0.3824
12973TIP3    H260411   4.314   2.652   1.844  0.1167  0.1080 -0.2685
12974TIP3   OH260412   5.868   4.803   0.050  0.3730  0.7236 -0.2700
12974TIP3    H160413   5.826   4.883   0.017  0.5828  1.6778  1.6537
12974TIP3    H260414   5.962   4.820   0.040  0.3660 -0.3623 -2.2420
12975TIP3   OH260415   6.006   4.452   3.941 -0.2598 -1.2157  0.0638
12975TIP3    H160416   5.936   4.502   3.900  0.5855  0.1154  0.1914
12975TIP3    H260417   6.009   4.485   4.031  1.5073 -0.1482 -0.3527
12976TIP3   OH260418   6.401   5.115   1.958 -0.2365 -0.0258 -0.1996
12976TIP3    H160419   6.428   5.031   1.994  1.5446  0.5527 -0.1049
12976TIP3    H260420   6.354   5.157   2.030  2.4910  0.7344  1.2417
12977TIP3   OH260421   4.407   5.490   6.473 -0.0176  0.7884  0.2391
12977TIP3    H160422   4.499   5.500   6.496 -0.1520 -0.4757  1.3904
12977TIP3    H260423   4.401   5.523   6.383  1.8152 -0.3185 -0.3189
12978TIP3   OH260424   4.005   2.176  14.805 -0.5586 -0.7322  0.1405
12978TIP3    H160425   4.068   2.202  14.873  1.4153 -2.1044 -1.1372
12978TIP3    H260426   3.975   2.259  14.768 -1.6899  0.0551  2.6524
12979TIP3   OH260427   6.087   4.993   4.247 -0.3277 -0.2899 -0.0378
12979TIP3    H160428   6.091   5.062   4.314 -1.1158 -1.2292  1.0125
12979TIP3    H260429   6.172   4.949   4.252 -0.6433 -0.8087  0.8520
12980TIP3   OH260430   3.719   0.647  14.036 -0.2707  0.0169 -0.8665
12980TIP3    H160431   3.755   0.567  13.999  0.3251  0.0154 -0.2834
12980TIP3    H260432   3.634   0.621  14.072 -0.3012 -0.2437 -1.1262
12981TIP3   OH260433   5.485   6.763  15.237 -0.2309 -0.8197 -0.3281
12981TIP3    H160434   5.569   6.718  15.247 -0.3289 -1.2537 -1.3707
12981TIP3    H260435   5.479   6.820  15.313  0.7516 -1.2059  0.0470
12982TIP3   OH260436   0.545   3.037   3.741  0.4387  0.5228  0.0961
12982TIP3    H160437   0.479   3.025   3.673 -0.5826  0.5202  1.0759
12982TIP3    H260438   0.624   2.996   3.706 -0.5627 -1.0330 -0.3457
12983TIP3   OH260439   4.735   0.033  12.605  0.1117 -0.2162  0.5722
12983TIP3    H160440   4.666   0.034  12.671 -3.4733 -0.5025 -2.9844
12983TIP3    H260441   4.713  -0.041  12.548  1.1034  2.0268 -2.8808
12984TIP3   OH260442   0.790   5.413  10.697  0.1400  0.1811  0.6667
12984TIP3    H160443   0.804   5.358  10.774  0.1565 -1.5357 -0.5303
12984TIP3    H260444   0.878   5.432  10.664  0.0766 -0.4324  0.1445
12985TIP3   OH260445   2.696   4.071  13.045 -0.1160  0.5881 -0.5110
12985TIP3    H160446   2.740   4.155  13.059  0.1338  0.2444  0.7825
12985TIP3    H260447   2.766   4.009  13.028 -0.2904  0.5989 -1.2829
12986TIP3   OH260448   4.976   1.427  10.999 -0.2420  0.5208  0.1613
12986TIP3    H160449   4.934   1.478  11.069  2.6266  1.3227  1.3925
12986TIP3    H260450   4.906   1.372  10.964 -1.9977  0.8428  2.9867
12987TIP3   OH260451   0.827   4.582   4.466  0.0035  0.8305  0.0002
12987TIP3    H160452   0.850   4.530   4.543  2.4299 -0.0681 -1.2643
12987TIP3    H260453   0.784   4.519   4.407  0.8373  0.8081 -0.5872
12988TIP3   OH260454   6.734   3.411  14.249  0.2579  0.1262  0.1648
12988TIP3    H160455   6.655   3.418  14.303 -0.2139 -1.6575 -0.2754
12988TIP3    H260456   6.805   3.436  14.308 -0.3580 -0.8721  1.3504
12989TIP3   OH260457   3.996   3.466   2.852 -0.4836 -0.6292 -0.2251
12989TIP3    H160458   4.009   3.559   2.835 -2.6383 -0.5057 -1.3513
12989TIP3    H260459   3.916   3.462   2.905 -1.3509 -1.9508 -1.6094
12990TIP3   OH260460   0.128   4.075  13.857 -0.2656 -0.6564 -0.3665
12990TIP3    H160461   0.120   3.994  13.907 -3.3196 -1.0483 -1.3864
12990TIP3    H260462   0.132   4.144  13.923  1.7705 -1.5599  0.5000
12991TIP3   OH260463   6.708   2.427   2.425  0.6297 -0.0631 -0.7336
12991TIP3    H160464   6.731   2.508   2.380  1.1122  0.6843  0.8157
12991TIP3    H260465   6.612   2.425   2.422  0.6090  0.6690 -0.6123
12992TIP3   OH260466   5.495   5.347   4.109 -0.0636 -0.8235 -0.4144
12992TIP3    H160467   5.481   5.323   4.017 -2.5996 -0.0740 -0.2733
12992TIP3    H260468   5.419   5.401   4.131  1.2649  0.2439  1.7057
12993TIP3   OH260469   3.841   5.755   2.803 -0.2973 -0.3896 -0.3466
12993TIP3    H160470   3.835   5.751   2.899 -1.7999 -0.7891 -0.4507
12993TIP3    H260471   3.841   5.849   2.784 -2.1151 -0.3278 -0.0741
12994TIP3   OH260472   4.171   1.762  11.844  0.0706 -0.0295  0.2852
12994TIP3    H160473   4.178   1.673  11.810  1.4776 -0.7047  2.2251
12994TIP3    H260474   4.203   1.818  11.773 -1.0965 -1.0371 -1.0514
12995TIP3   OH260475   0.598   1.400  15.150 -0.1809 -0.0036  0.5721
12995TIP3    H160476   0.693   1.404  15.143 -0.3067  0.1336 -1.0509
12995TIP3    H260477   0.567   1.481  15.110 -1.1180 -1.3399 -1.4611
12996TIP3   OH260478   2.546   2.077  14.909 -0.3250  0.0457  0.1848
12996TIP3    H160479   2.550   2.102  14.817 -0.5022 -0.7558 -0.0444
12996TIP3    H260480   2.453   2.060  14.925 -0.2220 -0.3441  0.3686
12997TIP3   OH260481   2.691   2.483  11.324 -0.0801 -0.4184 -0.1120
12997TIP3    H160482   2.671   2.403  11.372 -2.8785  0.5726  0.4650
12997TIP3    H260483   2.721   2.544  11.391 -0.4959 -0.1639 -0.1583
12998TIP3   OH260484   1.912   4.899   1.815 -0.1699  0.6500 -0.1438
12998TIP3    H160485   1.847   4.841   1.776 -0.4943  1.2071 -0.4289
12998TIP3    H260486   1.972   4.919   1.742  0.8445 -0.5871  0.3282
12999TIP3   OH260487   5.239   4.582   3.312  0.0039  0.5608 -0.0829
12999TIP3    H160488   5.174   4.643   3.348 -0.7932 -0.1993 -0.2258
12999TIP3    H260489   5.191   4.500   3.301  1.0778 -0.1033  0.1248
13000TIP3   OH260490   6.423   3.713  12.465 -0.1328 -0.2305 -0.5789
13000TIP3    H160491   6.333   3.705  12.496 -0.3650 -0.1828 -1.2474
13000TIP3    H260492   6.431   3.804  12.436 -0.0110 -0.3629 -0.9667
13001TIP3   OH260493   0.970   3.415   6.642 -0.0872  0.4460  0.1435
13001TIP3    H160494   0.969   3.351   6.713  0.8143  1.7715  1.3483
13001TIP3    H260495   1.018   3.371   6.571  0.1728 -0.3544  0.8120
13002TIP3   OH260496   3.501   3.676  14.462  0.6367  0.2283  0.4170
13002TIP3    H160497   3.466   3.588  14.445  4.6789 -1.2106 -0.9216
13002TIP3    H260498   3.493   3.687  14.557  1.1860 -2.0944  0.7594
13003TIP3   OH260499   4.040   5.791  12.057  0.0492 -0.6928  0.6427
13003TIP3    H160500   4.011   5.860  11.997 -0.8559 -3.5815 -2.4359
13003TIP3    H260501   4.123   5.761  12.020 -1.6855 -4.1432 -0.6871
13004TIP3   OH260502   0.072   6.652   4.955  0.1401 -0.3259 -0.1867
13004TIP3    H160503   0.100   6.561   4.953  0.6039 -0.2116  0.6019
13004TIP3    H260504  -0.012   6.651   5.000  0.5289 -0.2851  0.5644
13005TIP3   OH260505   5.972   2.660  16.119 -0.3617  0.0015  0.2638
13005TIP3    H160506   5.877   2.650  16.130 -0.5465  1.2556 -0.0469
13005TIP3    H260507   5.990   2.627  16.031 -0.8382  1.5784 -0.4537
13006TIP3   OH260508   5.572   6.509   4.736 -0.0062  0.4792  0.2494
13006TIP3    H160509   5.590   6.461   4.655  1.3121  0.3755  0.6035
13006TIP3    H260510   5.610   6.455   4.805 -1.0533  0.6103  0.9366
13007TIP3   OH260511   3.026   3.498   3.663  0.3116 -0.3641 -0.1057
13007TIP3    H160512   2.961   3.482   3.731  0.9543 -0.5705  0.4733
13007TIP3    H260513   3.047   3.592   3.671  2.7845 -1.0426  2.1931
13008TIP3   OH260514   5.511   0.027  10.698  0.2142  0.3478 -0.4052
13008TIP3    H160515   5.445  -0.006  10.758  1.5248 -0.6509  0.5065
13008TIP3    H260516   5.592  -0.017  10.723  0.8717  0.1661 -2.6731
13009TIP3   OH260517   2.862   2.085  17.270  0.4436  0.0171  0.6699
13009TIP3    H160518   2.832   2.083  17.179  0.9863  3.6637  0.3245
13009TIP3    H260519   2.837   2.172  17.302  0.5935 -1.0678  3.9127
13010TIP3   OH260520   0.932   0.095  12.540 -0.3707 -0.1331 -0.0083
13010TIP3    H160521   0.950   0.072  12.630 -1.8791  2.6213  1.0919
13010TIP3    H260522   1.002   0.055  12.489  1.0277 -0.9366  2.4897
13011TIP3   OH260523   3.301   1.756   3.114  0.1434 -0.2434  0.2123
13011TIP3    H160524   3.349   1.765   3.196  0.3321  0.6692  0.0024
13011TIP3    H260525   3.362   1.713   3.054  0.0730 -0.7308  0.4891
13012TIP3   OH260526   4.724   3.337  16.130 -0.1656  0.4842 -0.6440
13012TIP3    H160527   4.787   3.274  16.097  1.6931  1.6439  0.6192
13012TIP3    H260528   4.673   3.288  16.196  0.9035  0.1411 -0.0593
13013TIP3   OH260529   1.639   5.808   2.132  0.5519 -0.2536  0.4054
13013TIP3    H160530   1.729   5.834   2.151  0.8555 -0.4541 -0.7731
13013TIP3    H260531   1.587   5.886   2.151  1.2929  0.7505 -1.6651
13014TIP3   OH260532   2.263   4.970  14.589 -0.6466  0.2444  0.0027
13014TIP3    H160533   2.301   4.951  14.503 -0.3504 -0.4987  0.2922
13014TIP3    H260534   2.252   5.065  14.589  2.1843  0.6128  0.2984
13015TIP3   OH260535   6.749   4.178   0.802 -0.4344 -0.1001 -0.4446
13015TIP3    H160536   6.685   4.110   0.781  0.1250 -0.3675 -1.3051
13015TIP3    H260537   6.748   4.236   0.726 -0.7175  0.7053  0.1743
13016TIP3   OH260538   0.724   3.791   2.493  0.1040 -0.1709 -0.9234
13016TIP3    H160539   0.762   3.874   2.522  2.8274 -1.7321  0.1849
13016TIP3    H260540   0.637   3.814   2.461  0.8116  3.1019 -0.6521
13017TIP3   OH260541   0.870   2.273  15.400 -0.4929 -0.2671  0.5356
13017TIP3    H160542   0.804   2.312  15.343  0.2086  1.5469  0.9370
13017TIP3    H260543   0.923   2.347  15.430  1.2411 -1.6018  0.8446
13018TIP3   OH260544   0.286   3.729  16.598 -0.1278 -0.0973  0.0602
13018TIP3    H160545   0.293   3.778  16.516  0.8104  1.5491  1.0920
13018TIP3    H260546   0.201   3.753  16.634  0.6893  1.5313  0.9922
13019TIP3   OH260547   6.548   5.157  13.134  0.1412  0.3766  0.3803
13019TIP3    H160548   6.530   5.175  13.042 -1.6986  0.1830  0.6984
13019TIP3    H260549   6.463   5.137  13.172  0.9381  0.0930  2.0497
13020TIP3   OH260550   6.495   3.743   4.864  0.3364  0.1131  0.2464
13020TIP3    H160551   6.418   3.745   4.808  0.4639  1.5774  0.0882
13020TIP3    H260552   6.515   3.835   4.881  1.9955 -0.2403  0.3579
13021TIP3   OH260553   4.067   6.704   3.461 -0.2911 -0.2405 -0.0611
13021TIP3    H160554   4.073   6.729   3.369 -0.6238 -0.3976 -0.1266
13021TIP3    H260555   3.980   6.733   3.489 -0.4963 -0.8854 -0.0124
13022TIP3   OH260556   2.910   0.416   5.929 -0.1838  0.0511 -0.3322
13022TIP3    H160557   2.827   0.426   5.976 -0.2246 -1.0430 -0.1484
13022TIP3    H260558   2.885   0.373   5.847  0.3523 -1.4944  0.2960
13023TIP3   OH260559   0.295   2.678   3.142  0.0416  0.1033  0.0874
13023TIP3    H160560   0.327   2.722   3.063 -0.2869  1.9167  0.9448
13023TIP3    H260561   0.215   2.634   3.114  0.0079  0.6128 -0.6351
13024TIP3   OH260562   3.420   5.609  15.597 -0.6454 -0.3894 -0.0454
13024TIP3    H160563   3.438   5.516  15.581  1.4088  0.0252 -0.2680
13024TIP3    H260564   3.463   5.655  15.525  0.4430  0.8704  1.3694
13025TIP3   OH260565   5.555   5.924   0.918 -0.0042 -0.3712  0.5957
13025TIP3    H160566   5.604   5.856   0.872  0.9128 -0.5386  1.7627
13025TIP3    H260567   5.465   5.916   0.887  0.6692 -0.1754 -1.4687
13026TIP3   OH260568   6.595   2.657  13.493 -0.2818 -0.1819  0.6982
13026TIP3    H160569   6.603   2.710  13.572 -0.0182  1.0701 -0.1521
13026TIP3    H260570   6.676   2.606  13.490 -0.0700  0.1395  0.9737
13027TIP3   OH260571   6.456   4.456  12.998  0.5909  0.4087  0.7404
13027TIP3    H160572   6.367   4.424  13.009 -0.0778  1.8923 -0.3137
13027TIP3    H260573   6.498   4.438  13.083 -1.4618  2.0539  2.1675
13028TIP3   OH260574   1.600   5.809  11.402  0.0453  0.0655 -0.4527
13028TIP3    H160575   1.515   5.837  11.435 -0.1458  0.7727 -1.5249
13028TIP3    H260576   1.627   5.879  11.342  1.3749 -0.1529 -0.1238
13029TIP3   OH260577   1.462   3.443   0.974 -0.1413 -0.3526  0.6682
13029TIP3    H160578   1.516   3.431   1.052  0.5759 -2.2662 -0.0857
13029TIP3    H260579   1.443   3.537   0.972  0.0734 -0.2225  2.9667
13030TIP3   OH260580   5.637   5.318   5.775  0.1416 -0.2557 -0.3838
13030TIP3    H160581   5.618   5.234   5.816 -0.4781 -1.1017 -2.3341
13030TIP3    H260582   5.611   5.383   5.840  1.8289 -1.5572  1.6749
13031TIP3   OH260583   6.138   0.922   6.271  0.5527  0.6216 -0.3589
13031TIP3    H160584   6.201   0.972   6.219  0.5650 -0.2836 -1.2403
13031TIP3    H260585   6.186   0.842   6.294  0.2625  0.6507  0.3504
13032TIP3   OH260586   2.636   5.518   2.249 -0.6998 -0.1660 -0.1986
13032TIP3    H160587   2.580   5.554   2.318 -0.6152  1.9670 -1.1978
13032TIP3    H260588   2.683   5.594   2.215 -0.0660 -1.3407 -1.9904
13033TIP3   OH260589   5.612   3.011   2.103  0.3872 -0.6923 -0.6025
13033TIP3    H160590   5.597   2.980   2.014 -0.3608  0.5688 -0.9288
13033TIP3    H260591   5.540   3.071   2.120  1.7489  0.8031  0.0326
13034TIP3   OH260592   5.819   0.551   5.971  0.2524  0.4630 -0.4821
13034TIP3    H160593   5.836   0.588   6.058  0.2007 -0.4418 -0.0742
13034TIP3    H260594   5.826   0.625   5.911  0.9863  0.9657  0.2157
13035TIP3   OH260595   2.406   5.690   0.200  0.6906 -0.2232  0.5637
13035TIP3    H160596   2.444   5.646   0.124  2.3690  0.8928  0.7347
13035TIP3    H260597   2.402   5.622   0.267 -0.8171 -1.2211 -0.5032
13036TIP3   OH260598   4.300   0.396  13.821 -0.4066 -0.5543 -0.1108
13036TIP3    H160599   4.292   0.319  13.877  0.6279 -0.3618  0.3157
13036TIP3    H260600   4.316   0.468  13.881 -0.7929 -0.0975 -0.5525
13037TIP3   OH260601   3.701   5.680  16.065 -0.0962  0.4816 -0.2405
13037TIP3    H160602   3.674   5.736  15.992  0.3935  0.0473 -0.7546
13037TIP3    H260603   3.795   5.696  16.074  0.3082 -1.2454 -1.2490
13038TIP3   OH260604   1.282   2.824   0.180  0.7712  0.4414 -0.1721
13038TIP3    H160605   1.347   2.801   0.247 -0.1698  2.5049  1.5244
13038TIP3    H260606   1.237   2.901   0.216 -1.7164 -0.1463 -1.8983
13039TIP3   OH260607   4.913   0.708   3.150 -0.2893  0.1403 -0.1184
13039TIP3    H160608   4.890   0.720   3.057 -2.4694  0.4836  0.4408
13039TIP3    H260609   5.009   0.710   3.151 -0.2555  2.0869 -2.1259
13040TIP3   OH260610   1.640   6.233  11.928  0.2853  0.2508  0.1842
13040TIP3    H160611   1.659   6.290  12.002  0.7007  0.3084  0.0320
13040TIP3    H260612   1.697   6.264  11.857 -0.1128  0.2002 -0.1612
13041TIP3   OH260613   3.252   0.766   0.013 -0.1465 -0.3990  0.3918
13041TIP3    H160614   3.311   0.713  -0.041 -0.5649 -0.7162  0.2411
13041TIP3    H260615   3.179   0.789  -0.046  0.2173  0.6690  0.3486
13042TIP3   OH260616   4.211   5.894  14.903 -0.1959  0.4829  0.5233
13042TIP3    H160617   4.256   5.817  14.868  1.1510  1.4974 -0.0227
13042TIP3    H260618   4.119   5.880  14.882 -0.1948 -1.7055  1.7939
13043TIP3   OH260619   3.718   1.432  10.528 -0.0505  0.4358 -0.0652
13043TIP3    H160620   3.651   1.473  10.473  0.6993  1.4992 -0.1830
13043TIP3    H260621   3.771   1.381  10.467 -0.8033 -0.5018  0.0441
13044TIP3   OH260622   5.307   2.456  14.349  0.0619 -0.6836 -0.5070
13044TIP3    H160623   5.234   2.517  14.355  0.4582 -0.3208  0.6978
13044TIP3    H260624   5.266   2.371  14.335 -0.4969 -0.1654 -2.1060
13045TIP3   OH260625   6.420   1.396  11.339  0.2281  0.1737 -0.1998
13045TIP3    H160626   6.413   1.322  11.279 -0.5356 -1.0754  1.3908
13045TIP3    H260627   6.348   1.385  11.401  0.4723  1.9068  0.4375
13046TIP3   OH260628   2.760   2.670  14.158  0.2480  0.0038 -0.9780
13046TIP3    H160629   2.771   2.600  14.222 -1.9429  1.9191  1.6482
13046TIP3    H260630   2.844   2.716  14.159 -0.1595  0.7706  1.5555
13047TIP3   OH260631   1.233   2.521   5.458 -0.3687 -0.4575  0.0618
13047TIP3    H160632   1.171   2.560   5.397  0.3939  1.4389  0.4553
13047TIP3    H260633   1.318   2.530   5.415  0.5031  2.9245  2.2417
13048TIP3   OH260634   0.060   2.235  12.714 -0.3997 -0.1040 -0.2193
13048TIP3    H160635   0.008   2.160  12.742 -0.3017 -0.1800 -0.2372
13048TIP3    H260636   0.052   2.298  12.785 -0.2193 -0.2636 -0.0528
13049TIP3   OH260637   3.976   4.966  14.679  0.4564 -0.4197  0.6264
13049TIP3    H160638   3.930   4.919  14.749  0.2964  0.5016  1.1444
13049TIP3    H260639   4.067   4.971  14.708  1.0861 -2.9089 -0.7461
13050TIP3   OH260640   1.993   6.537   2.046 -0.3425  0.0503 -0.5103
13050TIP3    H160641   2.075   6.533   1.996  0.6216  0.4704  1.0165
13050TIP3    H260642   1.982   6.630   2.067 -1.4621  0.0545 -1.1188
13051TIP3   OH260643   6.680   3.448  13.967  0.1894 -0.0838 -0.3863
13051TIP3    H160644   6.725   3.477  14.047  2.9548 -2.9143 -0.8186
13051TIP3    H260645   6.625   3.375  13.996  0.7998 -0.7798 -0.9827
13052TIP3   OH260646   1.759   3.979   0.364  0.1998  0.0741 -0.0411
13052TIP3    H160647   1.780   3.887   0.353 -0.9092 -0.2243  0.2769
13052TIP3    H260648   1.790   4.001   0.452  0.0924 -0.0945  0.0370
13053TIP3   OH260649   0.805   4.507  11.390 -0.1122  0.1441  0.5290
13053TIP3    H160650   0.891   4.526  11.428  0.4624 -1.0175 -0.1720
13053TIP3    H260651   0.823   4.485  11.299 -1.1065 -0.5279  0.4841
13054TIP3   OH260652   6.318   5.342   4.656 -0.0531 -0.0306 -1.1147
13054TIP3    H160653   6.284   5.432   4.653  1.5886  0.7079  0.8829
13054TIP3    H260654   6.411   5.352   4.634  0.5360 -0.9893  0.8947
13055TIP3   OH260655   2.130   4.300   0.553 -0.0265 -0.2787  0.6055
13055TIP3    H160656   2.140   4.386   0.593 -1.7659 -0.3079  1.1531
13055TIP3    H260657   2.079   4.315   0.473  0.7627 -0.6384  0.0213
13056TIP3   OH260658   0.037   3.584   0.080 -0.4557  0.1200 -0.5200
13056TIP3    H160659   0.055   3.569  -0.013 -2.4669 -2.4475 -0.5559
13056TIP3    H260660   0.116   3.556   0.125  0.5455  1.3960 -1.4243
13057TIP3   OH260661   2.028   2.664  15.282 -0.7999  0.5762  0.3375
13057TIP3    H160662   2.006   2.598  15.348 -0.6379  1.1949  1.0062
13057TIP3    H260663   2.056   2.612  15.206 -1.7579 -0.1489  0.4735
13058TIP3   OH260664   6.555   4.385  17.138 -1.2812 -0.0266  0.0930
13058TIP3    H160665   6.564   4.339  17.055  0.6763 -1.8579  1.2548
13058TIP3    H260666   6.613   4.460  17.131 -1.7788  0.3074 -0.4979
13059TIP3   OH260667   0.919   6.744   3.071 -0.4763 -0.1421 -0.3697
13059TIP3    H160668   0.965   6.741   3.155 -1.1616  0.9066  0.0660
13059TIP3    H260669   0.858   6.671   3.074  1.4213 -1.8124 -1.1320
13060TIP3   OH260670   3.632   2.381  17.055  0.0965 -0.2322 -0.0473
13060TIP3    H160671   3.657   2.440  16.984  1.7940 -1.2537 -0.3315
13060TIP3    H260672   3.541   2.402  17.073  0.2448  1.4508 -1.1439
13061TIP3   OH260673   6.053   5.638   0.418 -0.8815  0.3419 -0.2497
13061TIP3    H160674   6.105   5.616   0.495 -0.1822 -1.1629 -1.1337
13061TIP3    H260675   6.111   5.693   0.365 -0.8781  0.2361 -0.3541
13062TIP3   OH260676   1.039   2.217   1.542 -0.0155 -0.4439  0.2352
13062TIP3    H160677   1.047   2.189   1.633 -0.7645  1.8906  1.0529
13062TIP3    H260678   0.949   2.196   1.518  0.2056 -1.1323 -0.0000
13063TIP3   OH260679   1.188   4.703   5.807  0.3491  0.8155 -0.1216
13063TIP3    H160680   1.260   4.722   5.747  1.1243  0.9006  0.8191
13063TIP3    H260681   1.173   4.609   5.797  2.0401  0.3733  1.2402
13064TIP3   OH260682   4.646   5.843   5.741  0.9032 -0.2602  0.0394
13064TIP3    H160683   4.628   5.898   5.817  0.3863 -1.1500  0.5673
13064TIP3    H260684   4.616   5.895   5.666  0.1394  0.0511  0.5529
13065TIP3   OH260685   3.340   3.189  13.022 -0.1949 -0.9303  0.0809
13065TIP3    H160686   3.385   3.201  12.938  3.2027 -1.4387  1.7289
13065TIP3    H260687   3.375   3.259  13.078 -2.8396 -0.2490  0.9345
13066TIP3   OH260688   5.771   2.799   0.151  0.0913  0.6430  0.3385
13066TIP3    H160689   5.691   2.850   0.137 -0.0225  0.6681  1.0495
13066TIP3    H260690   5.750   2.712   0.119 -0.3909  0.5159  1.0084
13067TIP3   OH260691   2.567   4.601  10.504 -0.1569 -0.0623 -0.2236
13067TIP3    H160692   2.661   4.603  10.489  0.3596 -1.9848  2.3415
13067TIP3    H260693   2.537   4.522  10.460 -0.6389  0.7101 -1.2997
13068TIP3   OH260694   5.568   1.596   2.688  0.0899 -0.2851  0.3655
13068TIP3    H160695   5.544   1.601   2.780 -1.0131  0.0524  0.0674
13068TIP3    H260696   5.661   1.575   2.688  0.1740  0.0906  1.5534
13069TIP3   OH260697   0.270   5.449   6.048  0.3310 -0.2869 -0.2806
13069TIP3    H160698   0.193   5.449   5.991  0.2515  1.7875 -0.2205
13069TIP3    H260699   0.234   5.465   6.136  0.9835  3.6268 -0.6121
13070TIP3   OH260700   6.748   5.196   0.741 -0.6922 -0.4121  0.2988
13070TIP3    H160701   6.829   5.150   0.716 -0.3914  1.1972 -1.8110
13070TIP3    H260702   6.758   5.211   0.835  1.3853 -0.4292  0.1161
13071TIP3   OH260703   0.262   4.404   4.930 -0.4630 -0.9885  0.2403
13071TIP3    H160704   0.358   4.397   4.937 -0.2930  0.2391 -0.8110
13071TIP3    H260705   0.241   4.366   4.845 -0.8678 -0.8485  0.2758
13072TIP3   OH260706   2.226   1.009   3.484  0.5506  0.1590 -0.1319
13072TIP3    H160707   2.173   0.932   3.507 -0.8758  1.1601 -0.0590
13072TIP3    H260708   2.281   1.023   3.561  0.2729 -0.3118  0.1594
13073TIP3   OH260709   4.521   6.371  17.099  0.4114  0.6426 -0.1566
13073TIP3    H160710   4.451   6.391  17.161  1.2024  1.2078  0.5647
13073TIP3    H260711   4.560   6.290  17.132  0.6013  0.7492 -0.1233
13074TIP3   OH260712   6.564   5.428  11.308 -0.6243 -0.0685 -0.5083
13074TIP3    H160713   6.644   5.389  11.274 -1.4904 -3.1457  0.8289
13074TIP3    H260714   6.516   5.457  11.231  0.9512  0.1690 -1.4196
13075TIP3   OH260715   0.629   5.457   3.584  0.1477  0.2462  0.2296
13075TIP3    H160716   0.561   5.412   3.634  0.1686  1.8997  1.8117
13075TIP3    H260717   0.591   5.542   3.563  0.8984  0.3224 -0.8654
13076TIP3   OH260718   0.548   2.359   1.816 -0.0902 -0.3221  0.1965
13076TIP3    H160719   0.632   2.379   1.858  0.2727  1.7460 -1.4023
13076TIP3    H260720   0.560   2.273   1.776  1.2889 -0.0212 -0.0450
13077TIP3   OH260721   1.739   0.906   2.197 -0.0438 -0.3306 -0.5102
13077TIP3    H160722   1.688   0.827   2.211  0.3654 -0.7875 -1.5291
13077TIP3    H260723   1.788   0.889   2.116  1.0485  0.4318 -0.0259
13078TIP3   OH260724   2.535   1.271  11.206 -0.6919  0.5098 -0.5997
13078TIP3    H160725   2.522   1.232  11.293  1.2507  2.6946  0.7349
13078TIP3    H260726   2.448   1.271  11.167 -1.4338 -1.4312  0.9367
13079TIP3   OH260727   1.460   5.056   6.718  0.3051  0.4136  0.1609
13079TIP3    H160728   1.513   4.976   6.717 -0.3238 -0.0865  2.2858
13079TIP3    H260729   1.376   5.029   6.681  0.3110  0.2327  0.2733
13080TIP3   OH260730   1.372   4.822  16.979  0.1894  0.3573  0.1919
13080TIP3    H160731   1.346   4.913  16.962 -3.1811 -0.5106  0.3571
13080TIP3    H260732   1.334   4.773  16.906  0.6048 -1.1465  0.9802
13081TIP3   OH260733   4.777   6.494   1.256  0.5286  0.0986 -0.7063
13081TIP3    H160734   4.845   6.557   1.281  1.3985 -0.0740 -2.5617
13081TIP3    H260735   4.811   6.410   1.286  0.0009  0.3001  0.5229
13082TIP3   OH260736   5.088   0.337   5.400 -0.2107 -0.1944  0.1555
13082TIP3    H160737   5.174   0.316   5.436 -0.0409  0.8418  0.3716
13082TIP3    H260738   5.028   0.329   5.474 -0.5555 -2.4278 -0.3268
13083TIP3   OH260739   2.354   1.319  17.002  0.2607 -0.0276  0.1909
13083TIP3    H160740   2.275   1.372  16.990 -0.4033 -0.6792  1.5046
13083TIP3    H260741   2.322   1.228  17.000  1.1058 -0.3198 -0.1577
13084TIP3   OH260742   5.720   4.138  15.375  0.0047 -0.8184  0.3584
13084TIP3    H160743   5.767   4.208  15.422  1.3282 -1.4200 -0.0489
13084TIP3    H260744   5.662   4.185  15.315  1.2463 -0.0445 -0.2749
13085TIP3   OH260745   1.569   1.436   1.416 -0.4138 -0.5469 -0.3206
13085TIP3    H160746   1.496   1.382   1.385 -1.2409  0.6125 -0.4454
13085TIP3    H260747   1.529   1.498   1.476  0.6944 -0.7256  0.6197
13086TIP3   OH260748   1.773   5.595   3.920 -0.0160  0.7882  0.3149
13086TIP3    H160749   1.687   5.598   3.962  0.9135  0.7089  2.2666
13086TIP3    H260750   1.823   5.666   3.961  1.0660  0.4062 -0.3159
13087TIP3   OH260751   6.726   6.424   0.612 -0.0707 -0.4301 -0.1553
13087TIP3    H160752   6.666   6.431   0.687 -0.2101 -2.2192 -0.0847
13087TIP3    H260753   6.671   6.392   0.541  0.0509  1.3290 -1.0623
13088TIP3   OH260754   6.491   3.177   5.146 -0.1907 -0.1234  0.0256
13088TIP3    H160755   6.534   3.103   5.103  0.8360  0.0097  0.8034
13088TIP3    H260756   6.402   3.147   5.165  0.4003 -1.3493  0.8648
13089TIP3   OH260757   2.845   1.794   0.084 -0.7773  0.1679  0.2099
13089TIP3    H160758   2.894   1.871   0.055 -0.0650 -1.0162 -1.8182
13089TIP3    H260759   2.818   1.816   0.174  1.2267  1.9018  0.4449
13090TIP3   OH260760   3.312   3.798   1.539  0.1309  0.3553  0.4479
13090TIP3    H160761   3.395   3.805   1.586  0.6610 -0.3641 -0.3723
13090TIP3    H260762   3.317   3.715   1.492 -0.5611  0.8605 -0.5489
13091TIP3   OH260763   4.701   2.311  13.620  0.2777 -0.8903 -0.0868
13091TIP3    H160764   4.737   2.224  13.606 -0.3147 -1.1924  0.2570
13091TIP3    H260765   4.775   2.370  13.607  0.4359 -1.3630 -1.4484
13092TIP3   OH260766   2.935   2.693   2.149 -0.2526 -0.6850  0.1544
13092TIP3    H160767   2.991   2.701   2.072 -0.9151  2.8961 -0.0337
13092TIP3    H260768   2.987   2.730   2.220 -2.1606  2.3249  0.0549
13093TIP3   OH260769   1.549   6.092  13.040  0.1270  0.2834 -0.1987
13093TIP3    H160770   1.600   6.172  13.053  1.3706 -0.5878  0.3893
13093TIP3    H260771   1.496   6.084  13.120  3.5193 -1.9766  2.0100
13094TIP3   OH260772   2.252   6.360  13.941  0.6025  0.0521 -0.5225
13094TIP3    H160773   2.186   6.357  14.010  0.7175  3.3193 -0.1969
13094TIP3    H260774   2.332   6.327  13.982 -0.0403 -0.8816 -0.0003
13095TIP3   OH260775   1.886   6.504   1.581  0.2861  0.5596  0.0166
13095TIP3    H160776   1.921   6.451   1.652 -2.2893  0.3635  1.2222
13095TIP3    H260777   1.855   6.440   1.517 -0.5689  0.6469  0.3356
13096TIP3   OH260778   4.888   0.699  16.206 -0.6466  0.6792  0.0561
13096TIP3    H160779   4.798   0.667  16.218 -0.5895  0.2947 -0.5066
13096TIP3    H260780   4.943   0.636  16.252 -0.6743  0.9804  0.5012
13097TIP3   OH260781   2.566   4.810  14.527 -0.2840  0.0756 -0.2506
13097TIP3    H160782   2.655   4.775  14.530 -0.4082 -0.2344 -0.0519
13097TIP3    H260783   2.576   4.903  14.510  0.1227  0.2213  0.7350
13098TIP3   OH260784   3.574   1.662   4.300  0.1349  0.2129  0.2230
13098TIP3    H160785   3.533   1.600   4.360  0.8091  0.6199  1.1268
13098TIP3    H260786   3.502   1.712   4.263 -0.1573  1.4059  2.3303
13099TIP3   OH260787   0.711   3.557   0.648 -0.1495  0.2432 -0.0442
13099TIP3    H160788   0.721   3.507   0.728 -1.8217  0.1283  0.1165
13099TIP3    H260789   0.683   3.492   0.583  1.7525  0.2266 -0.8800
13100TIP3   OH260790   3.251   5.082   2.515  0.8848 -0.1033  0.5332
13100TIP3    H160791   3.164   5.118   2.532  1.6871  1.0568  2.2511
13100TIP3    H260792   3.234   4.999   2.470 -1.0733  0.6529 -0.1671
13101TIP3   OH260793   0.400   0.751  12.194  0.4156  0.5887 -0.4574
13101TIP3    H160794   0.330   0.728  12.255 -1.5685  1.6666 -2.2536
13101TIP3    H260795   0.455   0.813  12.242 -0.3100  0.3496  0.7015
13102TIP3   OH260796   2.643   5.032  13.243  0.3822  0.7368 -0.3042
13102TIP3    H160797   2.634   5.112  13.192 -0.9102 -0.0792 -1.3715
13102TIP3    H260798   2.653   4.963  13.178 -0.6933 -0.2470  0.5615
13103TIP3   OH260799   4.039   3.243  14.106 -0.4618  0.0182 -0.1396
13103TIP3    H160800   4.067   3.329  14.138 -0.5207  0.2212 -0.6398
13103TIP3    H260801   4.087   3.181  14.160  0.5657  0.3624 -0.6507
13104TIP3   OH260802   5.371   6.054  15.258 -0.0149 -0.2157 -0.2108
13104TIP3    H160803   5.403   5.973  15.298 -0.8098  0.3196  1.5660
13104TIP3    H260804   5.286   6.030  15.221 -0.8216  0.0786  1.4057
13105TIP3   OH260805   2.003   4.365   1.343 -0.3355 -0.3012 -0.1891
13105TIP3    H160806   2.002   4.326   1.430  1.1348  1.3697  0.6175
13105TIP3    H260807   1.911   4.378   1.321 -0.7451 -1.8609  0.5999
13106TIP3   OH260808   6.186   4.207  15.869  0.1365  0.4222 -0.3434
13106TIP3    H160809   6.269   4.159  15.867  0.5489  1.1207 -0.1244
13106TIP3    H260810   6.132   4.159  15.932  0.1827 -0.3423 -0.8807
13107TIP3   OH260811   3.934   1.022   5.480  0.3841  0.3372  0.2751
13107TIP3    H160812   3.851   1.069   5.489  0.1876  0.2329 -0.9451
13107TIP3    H260813   3.925   0.973   5.399  0.4438 -2.1139  1.7113
13108TIP3   OH260814   4.417   1.503   1.115  0.2511  0.4276  0.0495
13108TIP3    H160815   4.428   1.416   1.075  0.0464  0.4180  0.0137
13108TIP3    H260816   4.327   1.503   1.148  0.0246  0.8822 -0.5691
13109TIP3   OH260817   0.964   6.397  10.920 -0.1196 -0.0214 -0.2142
13109TIP3    H160818   0.960   6.429  11.010  0.4962 -2.2546  0.6636
13109TIP3    H260819   1.045   6.345  10.917 -0.3472 -0.3058 -1.9257
13110TIP3   OH260820   3.919   4.494   4.123  0.6809  0.2760  0.0308
13110TIP3    H160821   3.842   4.547   4.143  0.1973 -0.8007  1.1105
13110TIP3    H260822   3.887   4.425   4.066  0.6559 -0.6461  1.1289
13111TIP3   OH260823   5.507   0.676   5.015  0.5138 -0.1610 -0.4496
13111TIP3    H160824   5.432   0.657   5.073  0.9338 -0.4608 -0.0024
13111TIP3    H260825   5.471   0.667   4.927  0.5278 -2.3957 -0.2607
13112TIP3   OH260826   6.509   2.185  15.263  0.0564  0.4456 -0.6919
13112TIP3    H160827   6.516   2.280  15.259 -1.3798  0.5820 -0.1865
13112TIP3    H260828   6.589   2.157  15.308 -1.4218  1.7645  3.0072
13113TIP3   OH260829   3.445   6.205   3.356  0.1561  0.5324 -0.3603
13113TIP3    H160830   3.385   6.151   3.304  0.0242  0.1991  0.1449
13113TIP3    H260831   3.513   6.144   3.386  0.0164  0.6494  0.1945
13114TIP3   OH260832   1.828   4.093   2.075  0.3077  0.0254  0.2887
13114TIP3    H160833   1.885   4.026   2.112  0.6482  0.1344 -0.0330
13114TIP3    H260834   1.834   4.080   1.980 -0.0512  0.1625  0.2446
13115TIP3   OH260835   4.353   0.841  14.649  0.2444 -0.4076 -0.2138
13115TIP3    H160836   4.318   0.923  14.684 -2.8256 -1.0215 -1.6658
13115TIP3    H260837   4.316   0.773  14.705  1.0701 -0.9421 -0.3066
13116TIP3   OH260838   1.442   4.556  16.810 -0.0452  0.7149  0.2143
13116TIP3    H160839   1.404   4.537  16.897  1.1197 -0.0260  0.5698
13116TIP3    H260840   1.370   4.595  16.761 -1.3330 -0.7907  0.8427
13117TIP3   OH260841   3.043   4.666  16.827 -0.0760  0.4804 -0.6781
13117TIP3    H160842   3.096   4.717  16.888 -3.8797  2.2140  1.3858
13117TIP3    H260843   3.067   4.575  16.844  1.1484  1.1329  1.2314
13118TIP3   OH260844   0.086   2.847  11.838  0.4109 -0.0485  0.3173
13118TIP3    H160845   0.047   2.904  11.771  2.2374  0.1878 -0.5881
13118TIP3    H260846   0.088   2.761  11.797 -0.6987 -0.4007  1.0012
13119TIP3   OH260847   3.539   1.633  15.688  0.0166 -0.5042 -1.0043
13119TIP3    H160848   3.619   1.667  15.730 -0.3524 -0.3351 -0.4261
13119TIP3    H260849   3.568   1.554  15.643  0.3354 -0.9541 -0.0277
13120TIP3   OH260850   4.430   3.099  15.219  0.0645  0.1269  0.1858
13120TIP3    H160851   4.400   3.013  15.189  1.0474 -0.6014  1.2357
13120TIP3    H260852   4.522   3.086  15.242  0.2278  1.4656  0.3412
13121TIP3   OH260853   6.244   0.155   3.822 -0.1299  0.3572 -0.0131
13121TIP3    H160854   6.309   0.103   3.776 -0.7883 -0.9524  0.5015
13121TIP3    H260855   6.213   0.219   3.757 -0.2362 -0.7313 -1.0471
13122TIP3   OH260856   3.811   6.557  14.974 -0.0879  0.2909  0.3217
13122TIP3    H160857   3.836   6.478  15.023 -0.6740  0.2647  0.5953
13122TIP3    H260858   3.870   6.559  14.899 -1.7755 -1.8987 -1.1525
13123TIP3   OH260859   0.950   5.119   5.065 -0.0777 -0.1304 -0.6831
13123TIP3    H160860   0.974   5.080   5.150  1.5181 -0.3958 -1.2414
13123TIP3    H260861   0.854   5.118   5.065 -0.0925 -0.6724  0.8736
13124TIP3   OH260862   3.283   5.014  14.467 -0.2908 -0.0018 -0.3328
13124TIP3    H160863   3.190   5.033  14.484 -0.7362  0.1681 -2.7368
13124TIP3    H260864   3.328   5.096  14.487 -0.6767 -0.0112  0.6206
13125TIP3   OH260865   6.719   0.767  16.364 -0.1820 -1.1470 -1.0319
13125TIP3    H160866   6.661   0.804  16.430  0.1287 -0.9235 -0.8819
13125TIP3    H260867   6.668   0.770  16.283  0.4226  1.2668 -1.3902
13126TIP3   OH260868   1.070   0.328  14.866  0.1497 -0.3601 -0.3489
13126TIP3    H160869   1.091   0.411  14.909  0.1826  0.0836 -1.2172
13126TIP3    H260870   1.074   0.348  14.773  0.5224 -1.4277 -0.5681
13127TIP3   OH260871   0.120   0.294   4.965  0.5308 -0.3664  0.3324
13127TIP3    H160872   0.098   0.226   5.029  0.2295 -0.5797  0.0012
13127TIP3    H260873   0.038   0.340   4.949  0.7816  0.2310  0.7314
13128TIP3   OH260874   2.597   5.236   6.457  0.7107 -1.1090 -0.0951
13128TIP3    H160875   2.688   5.208   6.447  0.1700 -2.6801 -0.7724
13128TIP3    H260876   2.586   5.252   6.550  1.5286 -1.4465  0.0588
13129TIP3   OH260877   1.829   3.669  17.046  0.1263 -0.1095  0.2438
13129TIP3    H160878   1.880   3.612  17.104  0.8445  0.4575  0.1842
13129TIP3    H260879   1.828   3.622  16.962  0.6160 -0.0950  0.2281
13130TIP3   OH260880   4.079   3.081   5.550 -0.3661  0.3045  0.0501
13130TIP3    H160881   4.168   3.064   5.580 -0.7765  0.3211  1.2888
13130TIP3    H260882   4.088   3.152   5.486  0.8448 -1.5975 -1.9745
13131TIP3   OH260883   6.464   4.138   3.899 -0.3732  0.1655 -0.4387
13131TIP3    H160884   6.496   4.227   3.886  2.1586 -0.7442 -0.6156
13131TIP3    H260885   6.475   4.096   3.814 -3.0085  0.0714 -0.7926
13132TIP3   OH260886   3.071   2.032  12.934 -0.0907 -0.3390  0.4587
13132TIP3    H160887   3.148   2.082  12.962 -0.2213  0.1104  0.0257
13132TIP3    H260888   2.997   2.090  12.952  0.0411  1.4387 -3.9579
13133TIP3   OH260889   3.617   1.337   2.301 -0.5338  0.3069 -0.2517
13133TIP3    H160890   3.559   1.352   2.226 -1.0258 -0.5785 -0.0618
13133TIP3    H260891   3.559   1.304   2.369  0.3718 -1.7180 -0.4274
13134TIP3   OH260892   2.370   2.331   4.301  0.2963  0.5083  0.7604
13134TIP3    H160893   2.358   2.409   4.247  0.9760 -0.2956 -0.5842
13134TIP3    H260894   2.284   2.314   4.338 -0.3867  0.6368 -0.6995
13135TIP3   OH260895   2.537   5.830   1.891 -0.1872  0.0625  0.1428
13135TIP3    H160896   2.576   5.743   1.886  0.8364  0.5136  0.0970
13135TIP3    H260897   2.612   5.890   1.884 -0.9032  0.9418 -0.0155
13136TIP3   OH260898   2.297   2.190   0.380 -0.4107 -0.1461  0.3823
13136TIP3    H160899   2.204   2.196   0.403  0.1359  0.9327  2.3643
13136TIP3    H260900   2.315   2.273   0.336  0.4666  1.2496  3.2604
13137TIP3   OH260901   4.773   3.605   0.957  0.0323 -0.4898  0.9118
13137TIP3    H160902   4.733   3.688   0.980  0.9597  0.3382 -0.4070
13137TIP3    H260903   4.785   3.609   0.862 -1.5889 -2.8645  0.5469
13138TIP3   OH260904   6.501   0.582  15.937  0.2576  0.5508 -0.2252
13138TIP3    H160905   6.424   0.526  15.935  0.5323  0.1263  0.9021
13138TIP3    H260906   6.494   0.631  16.019  1.0016  0.7683 -0.2847
13139TIP3   OH260907   2.789   4.374  11.250  0.0155  0.8427  0.2575
13139TIP3    H160908   2.838   4.456  11.261  0.0290  0.7324  1.0144
13139TIP3    H260909   2.826   4.335  11.171  0.1263  1.4885 -0.0111
13140TIP3   OH260910   5.800   2.373   3.021  0.1028  0.1099  0.2126
13140TIP3    H160911   5.728   2.310   3.023 -0.3820  0.6603  0.1302
13140TIP3    H260912   5.787   2.427   3.098  0.3544  0.2941  0.1272
13141TIP3   OH260913   2.182   0.409  11.378  0.3565  0.2062  0.0413
13141TIP3    H160914   2.129   0.447  11.449  1.1142 -0.4418  0.9735
13141TIP3    H260915   2.242   0.349  11.423  0.4877 -0.6109 -1.2204
13142TIP3   OH260916   6.013   5.527  11.541 -0.3996  0.5103 -0.1587
13142TIP3    H160917   6.038   5.470  11.614 -3.6015  1.5417  1.8260
13142TIP3    H260918   6.046   5.614  11.566  1.7407  0.1995 -1.7323
13143TIP3   OH260919   4.497   6.123  12.222  0.3397  0.4409 -0.8015
13143TIP3    H160920   4.501   6.158  12.310 -0.2230 -0.6750 -0.3186
13143TIP3    H260921   4.564   6.055  12.220  0.2450  0.3559 -1.1845
13144TIP3   OH260922   2.855   3.831  13.107 -0.5037  0.6376 -0.1439
13144TIP3    H160923   2.799   3.759  13.136  1.6769 -1.4077 -0.7934
13144TIP3    H260924   2.916   3.845  13.180 -0.0952  0.9381 -0.5361
13145TIP3   OH260925   4.725   3.261   2.439 -0.1980  0.6311  0.2612
13145TIP3    H160926   4.678   3.297   2.514 -1.3672 -0.4790  0.0905
13145TIP3    H260927   4.817   3.264   2.465 -0.6889 -1.1491  2.3929
13146TIP3   OH260928   5.012   3.057  14.286  0.0261 -0.2735  0.5747
13146TIP3    H160929   4.968   3.141  14.291  1.7748  0.7122 -0.0287
13146TIP3    H260930   4.988   3.022  14.200  3.2275  1.9394 -1.3455
13147TIP3   OH260931   2.551   4.495  11.667  0.1184  0.1932  0.2839
13147TIP3    H160932   2.546   4.527  11.757  0.2387 -0.4191  0.5094
13147TIP3    H260933   2.499   4.415  11.667  1.8184 -0.9361  0.3020
13148TIP3   OH260934   0.041   3.840   3.649  0.0394 -0.1984  0.3160
13148TIP3    H160935   0.077   3.927   3.631  0.6245 -0.5875 -0.4078
13148TIP3    H260936   0.097   3.806   3.719  0.1609 -0.2198  0.2080
13149TIP3   OH260937   0.932   6.568  13.654  0.1276 -0.4321  0.0473
13149TIP3    H160938   1.001   6.543  13.715 -0.2267 -0.8147  0.2883
13149TIP3    H260939   0.943   6.663  13.643 -0.0951 -0.2887  1.0495
13150TIP3   OH260940   1.226   1.975  16.955 -0.8026 -0.3620 -0.4641
13150TIP3    H160941   1.189   1.989  17.042  0.2570  0.1333 -0.0905
13150TIP3    H260942   1.284   2.050  16.940  0.7034 -1.5346 -0.6840
13151TIP3   OH260943   2.599   5.097  14.422  0.3585 -0.1147  0.1583
13151TIP3    H160944   2.657   5.170  14.398  1.4927 -0.9879  0.1744
13151TIP3    H260945   2.552   5.077  14.341  2.3354 -1.4009 -0.7288
13152TIP3   OH260946   0.291   6.204  16.830  0.0084 -0.4118 -0.0723
13152TIP3    H160947   0.265   6.295  16.845 -0.2966 -0.2387 -1.5759
13152TIP3    H260948   0.225   6.170  16.770  0.4716 -1.4499  0.0051
13153TIP3   OH260949   1.764   5.135   5.042  0.0592 -0.2654 -0.5409
13153TIP3    H160950   1.707   5.178   5.105 -1.3870 -2.2576 -0.4608
13153TIP3    H260951   1.813   5.071   5.093 -1.1427 -1.9186 -1.4044
13154TIP3   OH260952   2.129   5.557   1.785 -0.1482  0.5682 -0.0309
13154TIP3    H160953   2.178   5.616   1.842  1.3778 -0.7030  0.0082
13154TIP3    H260954   2.166   5.572   1.698 -1.2825  1.2541 -0.4034
13155TIP3   OH260955   1.617   1.204   3.491  0.2418  0.5451 -0.0833
13155TIP3    H160956   1.617   1.190   3.396 -1.0966 -0.7401  0.0938
13155TIP3    H260957   1.660   1.288   3.503  0.2480  0.8029 -1.8468
13156TIP3   OH260958   2.640   6.284  16.043  0.2201 -0.4537 -0.1055
13156TIP3    H160959   2.551   6.297  16.075  0.1812  2.0249 -1.1108
13156TIP3    H260960   2.630   6.234  15.962 -0.2420 -0.3774 -0.0960
13157TIP3   OH260961   5.526   2.962   5.020 -0.4724 -0.0625  0.4247
13157TIP3    H160962   5.560   3.049   5.041 -1.3983  0.1985  0.8891
13157TIP3    H260963   5.435   2.978   4.994 -0.5126 -0.8425  0.0723
13158TIP3   OH260964   0.086   5.256  14.741  0.4976  0.2728  0.0593
13158TIP3    H160965   0.094   5.185  14.806  0.4955  0.9780  0.8316
13158TIP3    H260966   0.161   5.243  14.683  0.3173 -0.5613 -0.0044
13159TIP3   OH260967   5.005   2.944  15.555  0.9330  0.2531  0.0964
13159TIP3    H160968   5.043   2.861  15.585  1.0477  0.1131 -0.4326
13159TIP3    H260969   5.074   2.984  15.503  0.9261  0.7505  0.4686
13160TIP3   OH260970   4.428   1.814   3.121 -0.3224 -0.3578 -0.2331
13160TIP3    H160971   4.336   1.789   3.121 -0.2556 -0.7457 -2.4192
13160TIP3    H260972   4.474   1.735   3.091  0.7164 -0.1638  0.8128
13161TIP3   OH260973   3.117   3.658  16.624  0.3704 -0.3091 -0.2822
13161TIP3    H160974   3.208   3.628  16.623  0.8206  1.0239 -0.3839
13161TIP3    H260975   3.070   3.593  16.571  1.6657  0.2386 -2.1653
13162TIP3   OH260976   2.573   3.819   3.311 -0.1774  0.1369  0.1864
13162TIP3    H160977   2.478   3.811   3.309 -0.1073 -0.5269 -0.6882
13162TIP3    H260978   2.603   3.734   3.345  0.0368  0.8880  1.9219
13163TIP3   OH260979   1.229   6.752  12.962 -0.0284 -0.7618  0.2465
13163TIP3    H160980   1.296   6.750  13.030  0.8435  1.5253 -0.4873
13163TIP3    H260981   1.207   6.844  12.953 -2.8395 -1.4203  0.0114
13164TIP3   OH260982   3.473   3.621  11.641  0.0225  0.1008 -0.4196
13164TIP3    H160983   3.499   3.703  11.681 -1.5127 -0.0524  0.9137
13164TIP3    H260984   3.417   3.646  11.567 -2.3037  0.2203  1.3376
13165TIP3   OH260985   3.086   6.336   4.495 -0.9029  0.0274  0.3413
13165TIP3    H160986   3.037   6.255   4.512  0.0533 -0.5637  0.3788
13165TIP3    H260987   3.159   6.332   4.557 -0.5722  0.6707 -0.0046
13166TIP3   OH260988   2.164   3.695  17.143  0.5555  0.2376 -0.4458
13166TIP3    H160989   2.222   3.630  17.183 -0.0931 -1.2070 -1.7913
13166TIP3    H260990   2.131   3.746  17.217  1.1033 -0.9486  0.6454
13167TIP3   OH260991   0.577   3.480  12.742 -0.0748  0.0457 -0.2153
13167TIP3    H160992   0.553   3.556  12.689  0.2777  0.2213 -0.1237
13167TIP3    H260993   0.639   3.432  12.687  0.6354  0.4630  0.2203
13168TIP3   OH260994   0.458   0.504   4.416 -0.7185  0.0190 -0.3389
13168TIP3    H160995   0.487   0.595   4.426  2.3813 -1.0218  0.6110
13168TIP3    H260996   0.408   0.504   4.335  0.6219  2.2593 -1.2189
13169TIP3   OH260997   1.698   5.453  14.724  0.2255 -0.3086  0.1264
13169TIP3    H160998   1.625   5.482  14.670  0.5723 -1.0008 -0.7217
13169TIP3    H260999   1.761   5.416  14.662  0.4400 -1.4921  1.0426
13170TIP3   OH261000   1.114   5.945   3.165 -0.2276 -0.3354 -0.2347
13170TIP3    H161001   1.146   5.899   3.242  0.0749 -0.5189 -0.4722
13170TIP3    H261002   1.155   5.901   3.091  0.0635  0.3084 -0.4636
13171TIP3   OH261003   6.732   3.907   4.005 -0.5537 -0.1418 -0.6426
13171TIP3    H161004   6.809   3.862   4.039 -1.3652 -0.5921  0.6274
13171TIP3    H261005   6.658   3.856   4.036 -1.4467  1.4327 -0.1010
13172TIP3   OH261006   4.167   2.402  13.275 -0.2189 -0.4987  0.4490
13172TIP3    H161007   4.149   2.464  13.204 -0.5512 -0.7930  0.2765
13172TIP3    H261008   4.234   2.446  13.329  0.9532 -0.7885 -0.7321
13173TIP3   OH261009   4.906   3.911   3.498  0.6455  0.2510 -0.1558
13173TIP3    H161010   5.000   3.914   3.518  0.0566 -0.8550  2.9015
13173TIP3    H261011   4.895   3.977   3.429  3.2210  2.3880  1.3638
13174TIP3   OH261012   4.859   1.016   2.864 -0.3287  0.9488  0.1713
13174TIP3    H161013   4.788   1.052   2.811  0.9582  0.1586 -2.1660
13174TIP3    H261014   4.861   0.923   2.841  2.2359  1.1885 -0.7405
13175TIP3   OH261015   5.781   5.445  15.622 -0.1732 -0.5067  0.1780
13175TIP3    H161016   5.767   5.370  15.681 -0.3816  1.4923  2.7523
13175TIP3    H261017   5.866   5.428  15.583 -0.0477 -1.9187  0.9997
13176TIP3   OH261018   4.888   2.175  15.944  0.3381  0.3765 -0.5312
13176TIP3    H161019   4.866   2.201  16.034  0.9196  0.0405 -0.2812
13176TIP3    H261020   4.901   2.257  15.898 -0.7483  0.5598 -0.5088
13177TIP3   OH261021   3.798   0.169   2.318  0.0555  0.5140 -0.9852
13177TIP3    H161022   3.891   0.180   2.338 -0.4204  1.0466  1.1449
13177TIP3    H261023   3.788   0.076   2.299  0.6078 -0.0670  1.3708
13178TIP3   OH261024   4.700   4.235  16.757  0.0185 -0.0000  0.1535
13178TIP3    H161025   4.637   4.274  16.818 -0.7742 -0.6743 -0.2293
13178TIP3    H261026   4.755   4.178  16.812 -0.7716 -0.7026  0.2195
13179TIP3   OH261027   4.348   0.717  16.083  0.1538 -0.1898 -0.3347
13179TIP3    H161028   4.309   0.670  16.157 -0.5641  1.8771  0.6213
13179TIP3    H261029   4.392   0.792  16.123 -0.0030  0.8004 -1.9998
13180TIP3   OH261030   3.834   0.814  12.631 -0.0091  0.0548  0.4189
13180TIP3    H161031   3.792   0.753  12.691 -0.8910 -1.1920 -1.4219
13180TIP3    H261032   3.763   0.870  12.600  0.0015 -0.8317 -1.2477
13181TIP3   OH261033   4.026   4.132  12.713  0.1339 -0.2111 -0.2021
13181TIP3    H161034   3.946   4.184  12.708 -0.1744 -0.6840 -0.2918
13181TIP3    H261035   4.085   4.172  12.649  0.1910  0.5063  0.2936
13182TIP3   OH261036   6.594   3.125  11.443  0.4066  0.4684  0.5733
13182TIP3    H161037   6.637   3.048  11.406 -0.9760  1.0540 -2.3450
13182TIP3    H261038   6.652   3.198  11.419 -0.5006  0.8507 -0.4957
13183TIP3   OH261039   3.725   4.522  14.154 -0.3530 -1.2301  0.4265
13183TIP3    H161040   3.709   4.525  14.059 -1.0973  1.7078  0.6037
13183TIP3    H261041   3.778   4.600  14.171 -0.6670 -1.4684  2.5153
13184TIP3   OH261042   3.194   3.828   5.731  0.2500 -0.1239 -0.2288
13184TIP3    H161043   3.153   3.891   5.790 -1.3302  1.1482 -2.6159
13184TIP3    H261044   3.185   3.744   5.777 -0.7264  0.8733  1.4579
13185TIP3   OH261045   6.256   1.783   0.567 -0.4590 -0.3289 -0.7196
13185TIP3    H161046   6.167   1.748   0.566  0.0986 -1.7544 -2.8959
13185TIP3    H261047   6.312   1.706   0.571  0.7178  0.5462  0.1424
13186TIP3   OH261048   2.549   4.501  16.822  0.1389 -0.0705 -0.0027
13186TIP3    H161049   2.513   4.515  16.909  2.5759 -2.1499  1.4156
13186TIP3    H261050   2.500   4.427  16.787  2.1616 -2.1467  1.4558
13187TIP3   OH261051   1.610   1.449  15.041 -0.3515  0.0313 -0.0942
13187TIP3    H161052   1.588   1.360  15.014 -1.1135  0.3353 -0.4870
13187TIP3    H261053   1.671   1.437  15.114  1.0833 -0.7920 -1.3929
13188TIP3   OH261054   1.731   0.768  11.110 -0.0346 -0.0485 -0.2365
13188TIP3    H161055   1.676   0.828  11.061  0.0412  0.0785 -0.1671
13188TIP3    H261056   1.670   0.704  11.147 -0.3550  1.1975  1.4276
13189TIP3   OH261057   1.283   1.310   1.172  0.2361 -0.2674 -0.0677
13189TIP3    H161058   1.248   1.236   1.123 -2.4008  1.1250 -0.4071
13189TIP3    H261059   1.289   1.278   1.262  1.8398 -1.7551 -0.6768
13190TIP3   OH261060   5.349   0.931  12.270  0.4741 -0.0356 -0.0505
13190TIP3    H161061   5.387   0.855  12.313  1.6376  0.4308 -0.2318
13190TIP3    H261062   5.261   0.903  12.244  1.8536 -2.2152 -2.5809
13191TIP3   OH261063   4.493   6.662   2.416  0.3466 -0.4979 -0.1934
13191TIP3    H161064   4.443   6.633   2.492 -0.0971 -2.5100 -1.2212
13191TIP3    H261065   4.536   6.742   2.445 -0.8388 -0.5349  1.7620
13192TIP3   OH261066   6.580   2.385   5.880 -0.1193  0.0679  0.2102
13192TIP3    H161067   6.606   2.294   5.868 -0.1724  0.1886 -0.9075
13192TIP3    H261068   6.659   2.430   5.909 -0.6254 -0.7468  2.9663
13193TIP3   OH261069   1.885   5.977   3.208 -0.0401  0.7532  0.7777
13193TIP3    H161070   1.842   5.999   3.125 -2.9878 -0.4698  1.9184
13193TIP3    H261071   1.979   5.985   3.189 -0.6636  1.0712 -2.5035
13194TIP3   OH261072   0.928   4.242   2.340  0.2713  0.3363 -0.4526
13194TIP3    H161073   1.013   4.283   2.359  0.1224  1.7276 -2.6036
13194TIP3    H261074   0.866   4.315   2.341 -0.4353 -0.2272 -1.6532
13195TIP3   OH261075   6.663   5.651   1.041 -0.2075  0.8274  0.7561
13195TIP3    H161076   6.579   5.606   1.041  1.0793 -1.7146  0.4229
13195TIP3    H261077   6.697   5.636   1.130  1.6957 -1.8367 -0.3521
13196TIP3   OH261078   4.458   4.885  16.953 -0.2101  0.4110 -0.4081
13196TIP3    H161079   4.537   4.894  16.900 -1.1369  3.0029 -1.4452
13196TIP3    H261080   4.478   4.933  17.034  0.1087 -0.9486  0.3331
13197TIP3   OH261081   6.280   6.732  15.706 -0.0605  0.5187  0.0211
13197TIP3    H161082   6.268   6.742  15.612  4.1025  1.8328 -0.4396
13197TIP3    H261083   6.234   6.807  15.745 -2.0480 -0.1929 -0.8636
13198TIP3   OH261084   2.600   3.581   3.389  0.3049  0.0662  0.5049
13198TIP3    H161085   2.584   3.577   3.483 -0.7834  2.3320  0.4527
13198TIP3    H261086   2.514   3.565   3.349  0.5931 -0.0400 -0.0828
13199TIP3   OH261087   1.032   0.268  14.004 -0.2758  1.0552  0.0266
13199TIP3    H161088   0.972   0.236  13.937 -0.0080 -0.5450  0.5405
13199TIP3    H261089   1.003   0.226  14.085  0.3556  1.7730  0.6390
13200TIP3   OH261090   6.751   1.535  12.153  0.2390 -0.1409  0.0168
13200TIP3    H161091   6.701   1.586  12.089  1.1655 -1.4981 -1.8288
13200TIP3    H261092   6.695   1.460  12.173 -0.3053  0.5964  1.2621
13201TIP3   OH261093   6.046   2.269   0.761  0.7954  0.2664 -0.2574
13201TIP3    H161094   6.118   2.286   0.700  1.4203  0.3752  0.4987
13201TIP3    H261095   5.984   2.340   0.746  1.6905  1.1782  0.3443
13202TIP3   OH261096   2.040   2.538  13.278  0.3224  0.3241 -0.4745
13202TIP3    H161097   2.120   2.552  13.330 -0.7373  0.0468  1.2775
13202TIP3    H261098   1.993   2.621  13.284 -0.9920 -0.4971  1.1573
13203TIP3   OH261099   1.640   6.511   2.221 -0.1192  0.0559 -0.1411
13203TIP3    H161100   1.606   6.594   2.187 -1.0072  0.3804  1.4940
13203TIP3    H261101   1.708   6.537   2.283 -0.8164 -0.4019  0.8299
13204TIP3   OH261102   4.455   4.223  15.670 -0.2529 -0.1278  0.0186
13204TIP3    H161103   4.428   4.232  15.579 -0.6144 -2.4454 -0.1218
13204TIP3    H261104   4.397   4.156  15.707 -1.2441  1.9598  2.4357
13205TIP3   OH261105   6.740   0.001   5.386  0.1196 -0.0007  0.5818
13205TIP3    H161106   6.729   0.052   5.305  0.2084 -1.1978 -0.1866
13205TIP3    H261107   6.789  -0.077   5.359 -1.0920 -1.1017  1.5198
13206TIP3   OH261108   1.206   6.170  13.857 -1.0459  0.1553 -0.2762
13206TIP3    H161109   1.138   6.116  13.817  1.6178 -2.5430 -1.3215
13206TIP3    H261110   1.266   6.191  13.786  0.8797 -0.1667  1.2005
13207TIP3   OH261111   0.090   6.247  13.002 -0.2273  0.3580  0.4225
13207TIP3    H161112   0.124   6.252  13.092  0.4274 -0.7461  0.2429
13207TIP3    H261113   0.100   6.336  12.968  1.1501  0.3873  0.8658
13208TIP3   OH261114   2.513   0.439   0.805  0.1187  0.3453 -0.0579
13208TIP3    H161115   2.553   0.440   0.892 -1.5450  2.8135  0.7071
13208TIP3    H261116   2.419   0.443   0.822 -0.2211  0.7641 -1.9726
13209TIP3   OH261117   6.146   3.006   1.956 -0.3377 -0.2847 -0.1434
13209TIP3    H161118   6.057   3.002   1.990  0.1017  1.7640  1.2855
13209TIP3    H261119   6.141   3.068   1.883  0.1208  0.5712  0.5557
13210TIP3   OH261120   5.446   0.328   3.322 -0.0787 -0.8209 -0.4621
13210TIP3    H161121   5.501   0.338   3.245 -0.4070 -0.4702 -0.6534
13210TIP3    H261122   5.365   0.290   3.289  0.2129 -1.7466 -0.1167
13211TIP3   OH261123   2.444   6.771   3.499 -0.6109  0.0804  0.4899
13211TIP3    H161124   2.404   6.794   3.415  1.4524 -0.0203 -0.5425
13211TIP3    H261125   2.536   6.757   3.479 -0.2303 -0.6977  2.6483
13212TIP3   OH261126   2.107   4.297   2.127 -0.3439 -0.1967  0.0605
13212TIP3    H161127   2.111   4.294   2.031  2.4432  2.0747  0.0450
13212TIP3    H261128   2.050   4.372   2.146  1.9785  1.6166  0.1093
13213TIP3   OH261129   5.812   4.895   3.911  0.4285 -0.6414 -0.1341
13213TIP3    H161130   5.753   4.940   3.972  0.9724 -0.0842 -0.0131
13213TIP3    H261131   5.892   4.947   3.914  0.8470 -1.2776 -0.4593
13214TIP3   OH261132   6.323   2.050  11.314 -0.2999  0.3791  0.1729
13214TIP3    H161133   6.253   1.997  11.352  1.1804 -1.3719  0.5528
13214TIP3    H261134   6.367   1.991  11.252  3.0003  0.2818  2.4795
13215TIP3   OH261135   4.659   1.531   4.242  0.0982  0.4347  0.3312
13215TIP3    H161136   4.580   1.479   4.260 -0.4538  1.0411 -0.3098
13215TIP3    H261137   4.674   1.580   4.323 -0.1191  0.2355  0.4922
13216TIP3   OH261138   3.724   0.343   4.151  0.1050  0.6140  0.3517
13216TIP3    H161139   3.773   0.337   4.233  1.7833  0.8531 -0.6201
13216TIP3    H261140   3.697   0.253   4.132  0.4460  0.4293  0.7396
13217TIP3   OH261141   0.143   4.783   4.447  0.1232  0.5917 -0.2744
13217TIP3    H161142   0.076   4.717   4.428  2.3013 -1.9639  0.5595
13217TIP3    H261143   0.118   4.818   4.532 -0.5787  0.2007 -0.3139
13218TIP3   OH261144   3.593   0.961   1.063 -0.4420  0.5301  0.2464
13218TIP3    H161145   3.617   0.872   1.036  0.3530  0.0680  2.4095
13218TIP3    H261146   3.499   0.966   1.048 -0.2614 -0.1558 -1.2925
13219TIP3   OH261147   6.366   3.825  16.870  0.0293  0.2259 -0.1161
13219TIP3    H161148   6.304   3.884  16.827  0.2994 -0.0585 -0.9084
13219TIP3    H261149   6.328   3.738  16.861  0.1052  0.1628  0.1784
13220TIP3   OH261150   2.100   5.291   2.876 -0.3410  0.1009 -0.1367
13220TIP3    H161151   2.170   5.248   2.925  0.2649  0.8959 -0.2975
13220TIP3    H261152   2.133   5.295   2.786 -0.8895 -0.1574 -0.3481
13221TIP3   OH261153   4.604   1.453   2.706  0.2340 -0.0024 -0.0910
13221TIP3    H161154   4.602   1.380   2.768  0.1754 -0.7734 -0.9844
13221TIP3    H261155   4.524   1.443   2.655 -0.3735  1.3905  0.5647
13222TIP3   OH261156   4.010   4.366   2.760 -0.1224 -0.3064  0.5619
13222TIP3    H161157   4.105   4.368   2.777 -0.0270  0.5897 -0.0449
13222TIP3    H261158   4.001   4.310   2.683  0.2256  2.0429 -1.2348
13223TIP3   OH261159   3.951   2.046  13.708 -0.0028  0.5578 -0.7429
13223TIP3    H161160   4.025   2.099  13.677 -0.3570  0.5689 -1.5880
13223TIP3    H261161   3.954   2.054  13.803  1.4567  0.0588 -0.7339
13224TIP3   OH261162   2.939   5.503  16.647  0.3110  0.3025  0.2351
13224TIP3    H161163   2.952   5.410  16.665 -1.3241  0.3721  1.9366
13224TIP3    H261164   3.027   5.541  16.649  0.8064 -0.8702  1.5016
13225TIP3   OH261165   3.068   3.239   6.319 -0.3480 -0.1450  0.6480
13225TIP3    H161166   3.126   3.295   6.268  0.8006 -1.5426  0.3798
13225TIP3    H261167   3.093   3.150   6.294 -2.6695 -0.7768  0.4615
13226TIP3   OH261168   0.155   5.473   0.839  0.0656  0.4112  0.0575
13226TIP3    H161169   0.219   5.402   0.847  0.9269  0.8322 -2.6364
13226TIP3    H261170   0.072   5.434   0.865  1.1538 -0.5073  2.3048
13227TIP3   OH261171   1.560   3.832   2.664  0.4868  0.3096 -0.1046
13227TIP3    H161172   1.482   3.787   2.698  0.2921 -0.1866 -1.1975
13227TIP3    H261173   1.530   3.921   2.647  0.4019  0.3711  0.3659
13228TIP3   OH261174   4.833   3.331  13.125  0.5157 -0.3223  0.6095
13228TIP3    H161175   4.888   3.399  13.164  0.4294 -0.7967  1.5889
13228TIP3    H261176   4.791   3.373  13.051  1.6264  0.2639  0.2941
13229TIP3   OH261177   0.135   0.759   6.026 -0.4798 -0.2840 -0.1543
13229TIP3    H161178   0.117   0.689   5.963  0.6104  0.3988 -1.2392
13229TIP3    H261179   0.221   0.737   6.062 -0.7075 -0.1889  0.4598
13230TIP3   OH261180   4.333   6.444  13.548  0.2422 -0.1477  0.0872
13230TIP3    H161181   4.376   6.501  13.484  0.3877  1.0737  1.2463
13230TIP3    H261182   4.385   6.455  13.628  0.0558 -1.6491  0.4239
13231TIP3   OH261183   0.988   3.058  15.096  0.4944  0.0581 -0.2213
13231TIP3    H161184   0.929   3.070  15.022 -1.3639 -0.8773  1.0864
13231TIP3    H261185   0.972   2.969  15.126  0.2309  0.8424  2.1192
13232TIP3   OH261186   3.007   1.595  14.814  0.3796  0.2685 -0.9219
13232TIP3    H161187   2.969   1.583  14.727  1.2627  0.6647 -1.3713
13232TIP3    H261188   2.953   1.541  14.872 -0.7318  0.6635 -1.5742
13233TIP3   OH261189   2.108   5.539  15.129 -0.3791  0.4789 -0.1773
13233TIP3    H161190   2.130   5.538  15.036  0.8078 -0.6279  0.1022
13233TIP3    H261191   2.173   5.482  15.170 -2.2824 -0.8824  1.0366
13234TIP3   OH261192   3.003   6.622  14.438 -0.1039 -0.2819  0.2543
13234TIP3    H161193   2.938   6.618  14.367  1.3151  0.4431 -1.1256
13234TIP3    H261194   3.073   6.678  14.403  0.8912 -0.3920  2.0210
13235TIP3   OH261195   5.229   3.255   4.651 -0.0201 -0.4723  0.1747
13235TIP3    H161196   5.270   3.341   4.660  0.9197 -0.8082 -0.7663
13235TIP3    H261197   5.161   3.268   4.585  0.1438 -0.4518  0.0089
13236TIP3   OH261198   2.699   0.943  11.840  0.0496 -0.3280  0.4348
13236TIP3    H161199   2.782   0.954  11.887  0.5019  4.1330 -1.1818
13236TIP3    H261200   2.643   1.014  11.873 -1.8412 -1.0412 -1.1330
13237TIP3   OH261201   4.602   3.761   0.333  0.2710  0.4838 -0.7590
13237TIP3    H161202   4.676   3.763   0.395 -0.0011  0.4884 -0.4334
13237TIP3    H261203   4.629   3.819   0.262  0.0856  1.4040 -0.0791
13238TIP3   OH261204   6.126   5.667   4.871 -0.0103  0.0779  0.0180
13238TIP3    H161205   6.089   5.740   4.821  0.9462 -0.1315 -1.0371
13238TIP3    H261206   6.113   5.691   4.962  0.0375  1.4423 -0.3124
13239TIP3   OH261207   0.382   6.244   2.045 -0.0753  0.3521 -0.1457
13239TIP3    H161208   0.371   6.338   2.031 -0.0590  0.6113  1.4519
13239TIP3    H261209   0.474   6.228   2.028  0.1988  0.8619  0.8524
13240TIP3   OH261210   3.179   3.632  14.850 -0.0317  0.3199 -0.0497
13240TIP3    H161211   3.170   3.543  14.885  0.5468 -0.0412 -0.7907
13240TIP3    H261212   3.145   3.689  14.919 -0.1788 -0.4635  0.5321
13241TIP3   OH261213   5.854   5.563  11.971  0.3012  0.1044 -0.4633
13241TIP3    H161214   5.800   5.616  11.913 -0.6726 -1.0794 -0.6505
13241TIP3    H261215   5.796   5.538  12.042  1.2914  0.9239  0.6705
13242TIP3   OH261216   2.055   4.249  12.185 -0.2498 -0.0943 -0.1255
13242TIP3    H161217   2.118   4.321  12.198  1.2722 -1.5258  0.6912
13242TIP3    H261218   2.072   4.219  12.096 -0.0670 -0.2113 -0.0512
13243TIP3   OH261219   4.456   1.391   4.372  0.2945 -0.3098  0.2526
13243TIP3    H161220   4.405   1.348   4.303  2.1928 -1.3561 -0.5376
13243TIP3    H261221   4.423   1.353   4.453  0.9106 -2.1859 -0.3466
13244TIP3   OH261222   3.842   4.105   3.318  0.2072 -0.0108  0.2902
13244TIP3    H161223   3.884   4.191   3.310  0.5604 -0.0511  1.6693
13244TIP3    H261224   3.835   4.091   3.412 -0.6140 -1.1289  0.0602
13245TIP3   OH261225   1.274   1.615   5.189  0.3679  0.7471 -0.6483
13245TIP3    H161226   1.267   1.535   5.137 -0.0136  1.5191 -1.7878
13245TIP3    H261227   1.349   1.662   5.152  1.0602  0.5794  0.5043
13246TIP3   OH261228   6.620   5.822   0.750  0.2988 -0.3750 -0.1321
13246TIP3    H161229   6.694   5.775   0.786  0.5893  0.0869 -0.1230
13246TIP3    H261230   6.654   5.864   0.670  0.0854 -0.0591 -0.0613
13247TIP3   OH261231   2.095   3.440  12.848 -0.1412 -0.3244 -0.2465
13247TIP3    H161232   2.118   3.349  12.829 -2.0227 -1.0234  0.7040
13247TIP3    H261233   2.134   3.457  12.934  0.1604 -0.2500 -0.3980
13248TIP3   OH261234   6.542   5.606  15.616 -0.1516 -0.2494 -0.5282
13248TIP3    H161235   6.529   5.597  15.521 -0.7738 -0.4879 -0.4233
13248TIP3    H261236   6.537   5.701  15.632 -0.3620 -0.2334 -0.6880
13249TIP3   OH261237   2.877   2.772  13.333 -0.3244 -0.1479  0.7933
13249TIP3    H161238   2.820   2.711  13.286  0.3687  0.8209 -1.3578
13249TIP3    H261239   2.842   2.858  13.312 -0.6092  0.2633  2.9109
13250TIP3   OH261240   1.992   5.322  12.771 -0.1253  0.4311  0.5515
13250TIP3    H161241   2.063   5.315  12.707 -0.3105 -0.8809  0.4750
13250TIP3    H261242   1.924   5.371  12.725 -0.3085 -0.6084 -0.3183
13251TIP3   OH261243   4.137   2.456  16.841 -0.3471 -0.2504  0.5349
13251TIP3    H161244   4.217   2.405  16.848  0.2616  0.6328  0.1261
13251TIP3    H261245   4.161   2.544  16.870 -0.6515  0.5140 -1.4263
13252TIP3   OH261246   1.760   3.465   4.383  0.5397  0.4993  0.1705
13252TIP3    H161247   1.809   3.520   4.322  2.9893 -2.2066 -0.4219
13252TIP3    H261248   1.811   3.470   4.464 -0.7399  1.2561  0.9338
13253TIP3   OH261249   3.025   1.613  10.770 -0.2648 -0.0694  0.1381
13253TIP3    H161250   3.095   1.647  10.826 -0.5386 -0.2661  0.5964
13253TIP3    H261251   2.955   1.678  10.777  0.8518  1.4853 -2.3750
13254TIP3   OH261252   6.720   0.403   4.861 -0.0898 -0.4919  0.5788
13254TIP3    H161253   6.655   0.458   4.905  0.0685  2.1884 -2.3720
13254TIP3    H261254   6.668   0.345   4.805 -0.0476  0.0542 -0.0285
13255TIP3   OH261255   0.581   6.588  13.238 -0.1101 -0.0773 -0.4553
13255TIP3    H161256   0.513   6.541  13.287 -1.6253  0.1820 -2.2563
13255TIP3    H261257   0.661   6.571  13.287 -1.3737 -0.8589  1.4066
13256TIP3   OH261258   4.505   1.491  11.364  0.4444  0.2933 -0.3207
13256TIP3    H161259   4.465   1.409  11.334  0.7507  0.7704 -2.1099
13256TIP3    H261260   4.520   1.541  11.283  1.8050  1.4087  0.6029
13257TIP3   OH261261   0.437   0.128   5.394  0.1271 -0.0169 -0.6326
13257TIP3    H161262   0.525   0.092   5.380 -0.2724 -0.7487 -1.2650
13257TIP3    H261263   0.378   0.055   5.378 -0.6518  0.7223 -1.1645
13258TIP3   OH261264   3.730   1.206  16.113 -0.5884 -0.0524 -0.1589
13258TIP3    H161265   3.640   1.189  16.087 -0.7881  0.1373  0.3949
13258TIP3    H261266   3.731   1.298  16.140 -0.5767 -0.4420  1.2290
13259TIP3   OH261267   6.802   4.785   6.190 -0.1773 -0.1833 -0.3666
13259TIP3    H161268   6.822   4.876   6.170 -0.6396 -0.1667 -0.7653
13259TIP3    H261269   6.773   4.747   6.107  2.9327 -1.5124 -0.9014
13260TIP3   OH261270   4.072   1.057  17.229 -0.3668  0.0538  0.2963
13260TIP3    H161271   4.104   1.085  17.143  0.1150 -1.2478  0.0374
13260TIP3    H261272   4.034   1.136  17.267  0.2628  0.8704 -0.7234
13261TIP3   OH261273   3.103   1.305  14.442 -0.4741  0.0395  0.0409
13261TIP3    H161274   3.167   1.271  14.379 -1.1267 -0.4435 -0.3604
13261TIP3    H261275   3.028   1.247  14.434 -1.2125  0.9795  0.0744
13262TIP3   OH261276   6.196   4.949   5.410  0.4862  0.1900 -0.4362
13262TIP3    H161277   6.160   4.862   5.392 -0.4920  0.3310  0.7623
13262TIP3    H261278   6.258   4.935   5.481 -1.4851  0.8151  1.4762
13263TIP3   OH261279   4.476   5.303  11.428 -0.8135 -0.1008  0.2612
13263TIP3    H161280   4.449   5.316  11.337  1.5360 -0.8357 -0.5664
13263TIP3    H261281   4.465   5.209  11.443  1.6967 -0.5145 -0.2662
13264TIP3   OH261282   6.157   4.544  14.655  0.2743 -0.3431  0.2650
13264TIP3    H161283   6.124   4.618  14.706  1.6431  0.0560  0.5904
13264TIP3    H261284   6.112   4.468  14.693  0.9619 -0.0015  1.8032
13265TIP3   OH261285   3.575   0.178   5.249 -0.5327  0.3467  0.2928
13265TIP3    H161286   3.495   0.144   5.288  0.0099 -0.1456  0.9823
13265TIP3    H261287   3.623   0.100   5.219  0.1447  0.5635  0.7811
13266TIP3   OH261288   3.531   3.945  16.334  0.5489 -0.3421 -0.6318
13266TIP3    H161289   3.609   3.931  16.280  1.4536 -1.3049  0.8962
13266TIP3    H261290   3.564   3.988  16.413 -0.6378  0.2440 -0.4544
13267TIP3   OH261291   2.482   1.091   2.548  0.2776 -1.2800 -0.5050
13267TIP3    H161292   2.493   1.155   2.618 -0.9899 -1.8754  0.2798
13267TIP3    H261293   2.387   1.077   2.544  0.5475 -3.2604 -0.4828
13268TIP3   OH261294   5.888   2.710  13.520 -0.2111 -0.0979  0.0296
13268TIP3    H161295   5.913   2.658  13.596  0.2230  0.4458  0.2596
13268TIP3    H261296   5.970   2.745  13.487 -0.8173  3.7184  2.2617
13269TIP3   OH261297   0.305   0.942  13.343 -0.0668 -0.2961  0.4715
13269TIP3    H161298   0.259   0.992  13.275 -0.8392  0.1893  1.3469
13269TIP3    H261299   0.318   0.856  13.303 -1.0704 -0.2105 -0.0704
13270TIP3   OH261300   5.585   0.157   4.773 -0.0171 -0.0792 -0.3336
13270TIP3    H161301   5.498   0.189   4.795 -0.3896  0.2676 -2.2752
13270TIP3    H261302   5.624   0.135   4.858 -1.6702  0.5512  0.6151
13271TIP3   OH261303   4.088   0.426   4.206 -0.3387  0.4762 -0.7671
13271TIP3    H161304   4.020   0.413   4.272  1.0886  1.2436  0.8775
13271TIP3    H261305   4.112   0.518   4.214  2.1676 -0.1994 -0.0499
13272TIP3   OH261306   3.746   3.441  12.439  0.0251 -0.2011 -0.5528
13272TIP3    H161307   3.823   3.391  12.415  0.1022  0.2240 -1.2191
13272TIP3    H261308   3.759   3.527  12.399 -1.1394 -0.3635 -1.3120
13273TIP3   OH261309   4.174   0.380  14.133  0.4673  1.3951  0.2992
13273TIP3    H161310   4.120   0.447  14.092 -1.0082  0.1086  0.0778
13273TIP3    H261311   4.237   0.429  14.185 -0.4793  2.9586  0.0249
13274TIP3   OH261312   3.328   2.060  13.044  0.3316 -0.3448 -0.5503
13274TIP3    H161313   3.393   2.057  12.973  0.2434  0.0378 -0.6483
13274TIP3    H261314   3.374   2.025  13.120  1.3613  1.9390 -0.0680
13275TIP3   OH261315   1.121   1.824   4.730 -0.0101  0.6922  0.4020
13275TIP3    H161316   1.110   1.874   4.811  1.6042 -0.5170  1.3992
13275TIP3    H261317   1.216   1.813   4.721 -0.2731 -1.2043 -0.3817
13276TIP3   OH261318   5.999   3.283  10.899  0.1112  0.2772 -0.0178
13276TIP3    H161319   5.941   3.261  10.826 -1.7048 -1.1441  1.8064
13276TIP3    H261320   5.980   3.376  10.917 -0.6798  0.1672 -0.2591
13277TIP3   OH261321   1.903   3.172   0.285 -0.6418  0.4479  0.3745
13277TIP3    H161322   1.924   3.229   0.211 -0.1661 -0.0530  0.1274
13277TIP3    H261323   1.955   3.093   0.271 -0.4953  0.3804  1.2776
13278TIP3   OH261324   2.838   0.422  11.815  0.2291  0.0679  0.2331
13278TIP3    H161325   2.887   0.348  11.851 -1.2379 -0.6363  0.8085
13278TIP3    H261326   2.903   0.471  11.764  1.3432 -1.2905  0.3179
13279TIP3   OH261327   3.003   2.953  12.059 -0.3396 -0.2922 -0.3758
13279TIP3    H161328   2.944   3.023  12.086  0.9344  1.1498 -1.2935
13279TIP3    H261329   2.952   2.903  11.995  0.0535  2.0952 -2.6323
13280TIP3   OH261330   6.095   6.342  12.433 -0.8076  0.1000 -0.0196
13280TIP3    H161331   6.019   6.294  12.399 -0.3931 -0.5018 -0.1115
13280TIP3    H261332   6.084   6.431  12.400 -1.5531  0.0553  0.0952
13281TIP3   OH261333   2.465   0.859   3.947  0.4994 -0.2237 -0.6749
13281TIP3    H161334   2.518   0.798   3.999  0.8426  0.0460 -0.6993
13281TIP3    H261335   2.384   0.869   3.996  0.3642 -0.8571 -0.7776
13282TIP3   OH261336   3.425   0.004   0.793 -0.4977  0.0984 -0.0742
13282TIP3    H161337   3.420   0.015   0.698  0.3112  2.0525  0.0859
13282TIP3    H261338   3.515  -0.025   0.809 -0.6103 -0.1517  0.1125
13283TIP3   OH261339   6.507   2.543   0.029 -0.1058  0.4236 -0.0675
13283TIP3    H161340   6.438   2.598  -0.009 -0.8953 -1.6974 -1.8793
13283TIP3    H261341   6.459   2.474   0.075  0.7759 -1.0015 -1.2474
13284TIP3   OH261342   0.253   1.565  14.879  0.0561  0.7797 -0.2512
13284TIP3    H161343   0.328   1.625  14.885 -1.1353  2.5369 -2.2326
13284TIP3    H261344   0.280   1.501  14.814  0.5336  0.3325  0.3769
13285TIP3   OH261345   2.533   2.994   0.461  0.5937  0.0357  0.2183
13285TIP3    H161346   2.475   3.001   0.385  1.2060 -1.9178 -0.4509
13285TIP3    H261347   2.508   2.912   0.503  3.1809 -1.1376 -0.3834
13286TIP3   OH261348   4.199   3.636   5.676 -0.2513 -0.0554  0.2389
13286TIP3    H161349   4.252   3.601   5.748  0.4470  1.3752  0.4325
13286TIP3    H261350   4.238   3.598   5.597 -0.4491 -0.9026  0.5384
13287TIP3   OH261351   0.418   3.923  17.238 -0.0173  0.2106 -0.2052
13287TIP3    H161352   0.444   4.006  17.199  0.3400  0.0520 -0.3044
13287TIP3    H261353   0.434   3.934  17.331  2.7609 -0.7640 -0.5445
13288TIP3   OH261354   1.035   2.612   4.855  0.1962 -0.5835 -0.6680
13288TIP3    H161355   1.128   2.624   4.874 -0.2416  1.3782  0.2870
13288TIP3    H261356   0.991   2.684   4.900 -1.5702 -0.0959 -3.0640
13289TIP3   OH261357   3.263   3.373  11.998  0.9828 -0.1862  0.5318
13289TIP3    H161358   3.326   3.440  11.969 -0.6919  0.6593 -1.2784
13289TIP3    H261359   3.178   3.418  11.996  0.1781 -1.6110  1.9062
13290TIP3   OH261360   2.211   5.499  15.793 -0.4517 -0.2653 -0.1057
13290TIP3    H161361   2.160   5.542  15.725 -0.5838 -0.7354 -0.3095
13290TIP3    H261362   2.156   5.426  15.823  0.1605 -0.8779 -0.4477
13291TIP3   OH261363   3.989   3.455  11.142  0.1078  0.9313  0.5052
13291TIP3    H161364   4.025   3.413  11.220 -2.1656 -1.5810  0.2840
13291TIP3    H261365   3.897   3.471  11.164 -0.0709  2.0542 -0.9512
13292TIP3   OH261366   0.011   5.107  15.754 -0.1791  0.3071 -0.2919
13292TIP3    H161367   0.061   5.179  15.791  1.0466  0.2671 -1.8048
13292TIP3    H261368  -0.026   5.062  15.830  4.1238 -1.1610  1.1402
13293TIP3   OH261369   2.275   2.665  16.681  0.6160  0.1958 -0.3342
13293TIP3    H161370   2.249   2.652  16.772  0.8458  4.0156  0.3797
13293TIP3    H261371   2.193   2.674  16.634  0.5074  1.6433  0.1105
13294TIP3   OH261372   0.006   5.755  14.855  0.1572  0.2086 -0.6344
13294TIP3    H161373   0.021   5.831  14.911  0.8734 -1.0561  0.9375
13294TIP3    H261374  -0.088   5.740  14.857  0.3028 -0.5365  1.2096
13295TIP3   OH261375   6.196   2.171  12.955 -0.1417 -0.4467 -0.5348
13295TIP3    H161376   6.249   2.115  12.898  0.5976 -0.4311  0.1186
13295TIP3    H261377   6.125   2.115  12.985  1.1401 -1.3522  0.9027
13296TIP3   OH261378   3.714   2.154   0.016 -0.1617 -0.3229  0.2750
13296TIP3    H161379   3.624   2.123   0.022 -0.3067 -0.3516 -1.7492
13296TIP3    H261380   3.766   2.074   0.007  0.0439 -0.2960  1.2494
13297TIP3   OH261381   1.836   2.571  14.068  0.4284 -0.3440  0.2203
13297TIP3    H161382   1.916   2.613  14.100  0.2144  0.1629  0.0966
13297TIP3    H261383   1.797   2.532  14.146 -0.7917  2.0369  0.8463
13298TIP3   OH261384   0.019   0.692   3.097 -0.1896  0.1052 -0.7239
13298TIP3    H161385   0.024   0.597   3.091  1.5812  0.2289 -1.7467
13298TIP3    H261386  -0.074   0.712   3.092 -0.4990 -1.5043 -1.7901
13299TIP3   OH261387   4.872   4.565   3.539 -0.2691  0.3747  0.4929
13299TIP3    H161388   4.807   4.537   3.475 -0.8653  0.7634  0.9249
13299TIP3    H261389   4.886   4.489   3.595  2.0648 -0.7802 -1.5528
13300TIP3   OH261390   0.109   6.578  13.651 -0.0067  0.1797 -0.3912
13300TIP3    H161391   0.059   6.639  13.704  0.0896 -0.4409  0.4324
13300TIP3    H261392   0.198   6.612  13.652  0.0501  0.0276  0.0805
13301TIP3   OH261393   5.781   2.160   1.743 -0.5194  0.0162 -0.1291
13301TIP3    H161394   5.841   2.106   1.691  0.6673  0.3094  0.9040
13301TIP3    H261395   5.697   2.114   1.738  0.1855 -1.2955 -0.2391
13302TIP3   OH261396   0.522   6.728  15.930 -0.1169 -0.1104  0.6119
13302TIP3    H161397   0.602   6.701  15.977  0.4041  0.2458 -0.0611
13302TIP3    H261398   0.530   6.687  15.844 -1.7466 -1.9094  1.2762
13303TIP3   OH261399   4.017   3.015  16.111  0.4462 -0.1008  0.4140
13303TIP3    H161400   3.946   2.958  16.141  0.0313  0.5870  0.7279
13303TIP3    H261401   4.040   2.980  16.024  0.9204 -1.4187  1.0457
13304TIP3   OH261402   0.479   1.780  16.551 -0.2050  0.0879  0.2113
13304TIP3    H161403   0.393   1.810  16.581  1.2869  2.0603  2.7348
13304TIP3    H261404   0.526   1.861  16.529  1.8357 -0.7750  1.2682
13305TIP3   OH261405   2.702   6.374   4.644  0.2874 -0.3909  0.2588
13305TIP3    H161406   2.613   6.373   4.677  0.4134  1.6277  0.7623
13305TIP3    H261407   2.694   6.403   4.553  0.3415 -1.1964 -0.0018
13306TIP3   OH261408   6.286   4.269   5.906  0.0356 -0.1891 -0.3797
13306TIP3    H161409   6.379   4.247   5.901  0.0537 -0.0892 -0.4976
13306TIP3    H261410   6.241   4.184   5.908  0.1869 -0.2494  1.0581
13307TIP3   OH261411   4.820   3.046   3.570  0.1565 -0.0164 -0.0872
13307TIP3    H161412   4.897   3.102   3.584  0.5286 -0.4534 -0.3547
13307TIP3    H261413   4.821   3.028   3.476 -1.3556  1.5153 -0.4215
13308TIP3   OH261414   4.726   0.999  11.377 -0.3550 -0.0875 -0.0696
13308TIP3    H161415   4.674   1.078  11.366 -2.1454 -1.3796 -1.1401
13308TIP3    H261416   4.709   0.947  11.298 -0.9676 -2.5144  1.5906
13309TIP3   OH261417   6.300   1.400   4.749  0.5271 -0.4465 -0.3083
13309TIP3    H161418   6.342   1.377   4.666  0.0177  0.1767 -0.7469
13309TIP3    H261419   6.243   1.474   4.727  2.7460  1.8109  1.2314
13310TIP3   OH261420   0.004   1.828  14.568  0.2425 -0.1613 -0.2625
13310TIP3    H161421   0.062   1.754  14.583  1.3725  0.6737 -0.4288
13310TIP3    H261422  -0.007   1.868  14.655  1.2391  0.6280 -0.4853
13311TIP3   OH261423   0.766   3.320   1.122  0.1594  0.0853  0.1542
13311TIP3    H161424   0.823   3.256   1.165  0.1724  0.0060  0.0193
13311TIP3    H261425   0.679   3.303   1.157  0.2410  0.2950  0.4621
13312TIP3   OH261426   4.584   6.122  11.674 -0.1794 -0.6659 -0.0312
13312TIP3    H161427   4.544   6.047  11.629 -1.1340  0.0540 -0.4147
13312TIP3    H261428   4.544   6.198  11.632  2.3165  0.1243 -1.0887
13313TIP3   OH261429   4.666   5.170  11.077 -0.2388 -0.6326 -0.3892
13313TIP3    H161430   4.705   5.190  11.162  0.0337 -0.9387 -0.4368
13313TIP3    H261431   4.595   5.109  11.097 -1.3876  0.7475 -0.1939
13314TIP3   OH261432   5.956   0.056  13.747 -0.4189  0.0110 -0.0941
13314TIP3    H161433   6.003   0.103  13.816  0.1619  1.0592 -1.1866
13314TIP3    H261434   5.940  -0.031  13.784 -1.8165  1.1521  2.0916
13315TIP3   OH261435   0.223   5.171  12.057 -0.0711 -0.0404  0.1139
13315TIP3    H161436   0.251   5.224  11.983  0.5772 -1.4011 -0.6275
13315TIP3    H261437   0.214   5.233  12.130 -1.6459  1.4588 -1.3236
13316TIP3   OH261438   2.258   4.135  16.057 -0.0116 -0.2687 -0.1548
13316TIP3    H161439   2.270   4.083  15.977  0.2944  0.9170 -0.8934
13316TIP3    H261440   2.180   4.098  16.097  1.1388 -2.4042  0.2189
13317TIP3   OH261441   5.567   4.896   3.176 -0.4905 -0.7668 -0.6561
13317TIP3    H161442   5.592   4.987   3.160 -4.3267  0.4713 -0.0314
13317TIP3    H261443   5.602   4.877   3.264  2.8990 -0.9477 -1.9777
13318TIP3   OH261444   5.777   6.088   0.363 -0.0937  0.2484  0.1280
13318TIP3    H161445   5.788   6.092   0.268  1.0246 -0.0006  0.2438
13318TIP3    H261446   5.716   6.159   0.383 -0.0860  0.5054 -0.7332
13319TIP3   OH261447   0.957   1.008  13.256  0.4036  0.5591  0.6350
13319TIP3    H161448   0.931   1.085  13.306  2.1484  1.0350  0.8284
13319TIP3    H261449   1.052   1.007  13.259  0.4061 -2.2128  1.5311
13320TIP3   OH261450   0.349   5.282   5.340 -0.3577 -0.6959 -0.1256
13320TIP3    H161451   0.385   5.370   5.340  0.9326 -1.2112  0.7086
13320TIP3    H261452   0.271   5.288   5.285 -2.1533  1.7418  2.5110
13321TIP3   OH261453   6.092   6.458  13.006 -0.0439  0.0940  0.5673
13321TIP3    H161454   6.128   6.489  12.923 -2.6618  1.8548  0.0106
13321TIP3    H261455   6.026   6.393  12.980 -1.3474  1.1480  1.2132
13322TIP3   OH261456   1.206   5.754   4.475 -0.5112 -0.5789  0.7395
13322TIP3    H161457   1.241   5.827   4.424 -0.2064 -1.2974 -0.1188
13322TIP3    H261458   1.181   5.689   4.408  0.5312 -1.8203  1.5305
13323TIP3   OH261459   3.450   4.863  16.685 -0.1193  0.6751  0.1001
13323TIP3    H161460   3.497   4.946  16.684  1.2384 -0.0668 -1.2701
13323TIP3    H261461   3.448   4.836  16.593 -1.3675 -0.3516  0.4182
13324TIP3   OH261462   3.491   4.127  12.806 -0.5015 -0.1791  0.3078
13324TIP3    H161463   3.451   4.144  12.721  1.0305  0.6460 -0.2688
13324TIP3    H261464   3.446   4.186  12.866 -1.5742 -0.7491  0.0645
13325TIP3   OH261465   2.765   3.772  11.737  0.4798 -0.7382 -0.1045
13325TIP3    H161466   2.742   3.742  11.650  1.9440 -2.7899  0.1779
13325TIP3    H261467   2.822   3.848  11.722 -2.6600  1.5383 -0.8335
13326TIP3   OH261468   6.703   3.313  11.295  0.1308  0.0321 -0.1191
13326TIP3    H161469   6.762   3.246  11.258 -0.0737  0.6259 -1.5615
13326TIP3    H261470   6.762   3.381  11.329  0.4047 -1.6647  3.0034
13327TIP3   OH261471   1.358   4.939   3.304  0.3138 -0.8192 -0.3008
13327TIP3    H161472   1.396   4.964   3.388 -0.2553  0.5256 -0.4251
13327TIP3    H261473   1.306   4.861   3.323 -0.4433 -0.0645  0.7455
13328TIP3   OH261474   4.941   5.675  16.838 -0.0896 -0.5209  0.1495
13328TIP3    H161475   4.895   5.744  16.790  0.3584  0.2995  0.8793
13328TIP3    H261476   5.034   5.694  16.822  0.0237 -1.2340 -0.0303
13329TIP3   OH261477   1.657   0.247  14.472  0.5234 -0.0829 -0.1196
13329TIP3    H161478   1.574   0.276  14.510 -0.0265 -0.9787 -0.6052
13329TIP3    H261479   1.652   0.151  14.474  1.1401 -0.1453 -1.0124
13330TIP3   OH261480   3.844   0.036   3.498  0.0338 -0.1447  0.5132
13330TIP3    H161481   3.916   0.085   3.538  0.4144  0.1575 -0.5163
13330TIP3    H261482   3.766   0.089   3.513  0.5651  1.1684 -1.2708
13331TIP3   OH261483   5.876   4.036  10.399 -0.1481  0.2190  0.4330
13331TIP3    H161484   5.866   3.951  10.355  0.3001  0.0362  0.6794
13331TIP3    H261485   5.787   4.061  10.424 -0.3875  0.2609 -0.4653
13332TIP3   OH261486   0.024   2.873  16.137  0.6689  0.0040  0.1205
13332TIP3    H161487   0.091   2.860  16.203  2.2539 -1.3853 -1.7093
13332TIP3    H261488   0.045   2.958  16.098  0.6607  0.1068  0.3395
13333TIP3   OH261489   4.353   5.538  14.010 -0.1185 -0.0246 -0.4707
13333TIP3    H161490   4.325   5.481  14.082 -0.5942  0.7692 -0.0259
13333TIP3    H261491   4.378   5.620  14.052 -1.5009  0.8437 -1.3051
13334TIP3   OH261492   1.232   4.072   3.586  0.6333  0.8312 -0.3754
13334TIP3    H161493   1.285   4.093   3.662 -1.7149 -0.4073  1.7032
13334TIP3    H261494   1.293   4.037   3.522  2.4477  0.3958  1.5525
13335TIP3   OH261495   2.591   3.245   2.520 -0.0065  0.2473  0.0660
13335TIP3    H161496   2.545   3.161   2.517 -0.1163  0.3286 -0.7600
13335TIP3    H261497   2.578   3.277   2.609 -1.4721  0.2213 -0.1324
13336TIP3   OH261498   6.590   3.989   5.308 -0.1893  0.8780  1.0595
13336TIP3    H161499   6.583   3.913   5.366  1.3960 -0.6600 -0.7104
13336TIP3    H261500   6.506   4.035   5.318 -0.8930 -0.7045  2.6870
13337TIP3   OH261501   5.518   0.336  13.382  0.0706  0.1417  0.3226
13337TIP3    H161502   5.589   0.273  13.397  0.1552  0.0171 -0.5954
13337TIP3    H261503   5.557   0.402  13.325 -0.1842  0.7373  0.8308
13338TIP3   OH261504   2.509   0.485  14.599  0.2211  0.6943  0.3800
13338TIP3    H161505   2.451   0.543  14.647 -2.1459  1.7362 -3.5280
13338TIP3    H261506   2.579   0.542  14.566 -0.4245  0.7936 -0.8537
13339TIP3   OH261507   6.755   5.672   6.129  0.1231 -0.5984 -0.1469
13339TIP3    H161508   6.747   5.578   6.145  1.8868 -0.4389  1.9591
13339TIP3    H261509   6.842   5.695   6.162 -0.7519  1.9766  0.5107
13340TIP3   OH261510   0.302   3.247  11.912  0.1168  0.3024  0.4263
13340TIP3    H161511   0.359   3.306  11.961  1.0570  0.6637 -1.0607
13340TIP3    H261512   0.319   3.269  11.820 -1.1915 -0.7428 -0.0771
13341TIP3   OH261513   6.280   6.783  14.955 -0.5789 -0.2261  0.0012
13341TIP3    H161514   6.223   6.735  14.895 -0.8343 -1.3706  1.1189
13341TIP3    H261515   6.259   6.875  14.941  0.3034 -0.3751 -2.5883
13342TIP3   OH261516   1.699   6.459  12.839 -0.1378 -0.3194 -0.1284
13342TIP3    H161517   1.702   6.394  12.769 -0.5234 -0.5125  0.0333
13342TIP3    H261518   1.658   6.536  12.798 -1.2957 -0.7775  0.1630
13343TIP3   OH261519   4.948   1.245   1.319  0.0587 -0.4143  0.0118
13343TIP3    H161520   4.866   1.202   1.296  0.6283 -1.1509 -0.6811
13343TIP3    H261521   4.996   1.250   1.237  0.2323  1.0531  0.1982
13344TIP3   OH261522   6.642   0.077  16.237 -0.6647 -0.2415 -0.2321
13344TIP3    H161523   6.632   0.133  16.313  2.2374 -0.6178  0.4986
13344TIP3    H261524   6.633   0.135  16.162 -2.3840  0.3257  0.3822
13345TIP3   OH261525   5.156   2.588   5.680  0.3630  0.4998  0.2889
13345TIP3    H161526   5.123   2.522   5.740  0.4523  1.6254  1.5931
13345TIP3    H261527   5.195   2.538   5.608 -0.6791 -0.8456  0.6416
13346TIP3   OH261528   4.139   6.548   5.886 -0.2928 -0.0050  0.2614
13346TIP3    H161529   4.067   6.596   5.845  0.2364  1.8994  1.5063
13346TIP3    H261530   4.112   6.456   5.882 -2.4247  0.6107  0.0055
13347TIP3   OH261531   0.177   5.347   1.708  0.1159 -0.3928 -0.4263
13347TIP3    H161532   0.175   5.393   1.792  1.3684  0.3726 -0.8018
13347TIP3    H261533   0.085   5.331   1.687 -0.3096  1.4527 -0.0107
13348TIP3   OH261534   1.514   1.742  10.606  0.0833 -0.4819  0.2220
13348TIP3    H161535   1.608   1.735  10.592 -0.0358  1.8349 -2.0549
13348TIP3    H261536   1.489   1.659  10.647  2.7183 -2.0864 -1.3286
13349TIP3   OH261537   1.256   2.078  15.773  0.0117  0.8033  0.0293
13349TIP3    H161538   1.279   1.987  15.790 -1.4877  0.0836 -1.6236
13349TIP3    H261539   1.169   2.089  15.811  0.0810  1.4895  0.0072
13350TIP3   OH261540   0.585   2.979   0.759 -0.3656  0.0528  0.6777
13350TIP3    H161541   0.623   2.892   0.746 -0.5630  0.4344 -3.0251
13350TIP3    H261542   0.498   2.973   0.721 -0.2310  1.9835  0.0063
13351TIP3   OH261543   2.972   6.061  14.164  0.0989  0.0675 -0.0726
13351TIP3    H161544   2.949   5.968  14.169 -0.9665  0.3957  1.4773
13351TIP3    H261545   3.019   6.079  14.245  1.1515  0.6638 -0.8092
13352TIP3   OH261546   2.394   3.786   4.831 -0.1405 -0.2056  0.3613
13352TIP3    H161547   2.330   3.784   4.760 -0.1113  0.0015  0.3265
13352TIP3    H261548   2.409   3.880   4.845  0.1622 -0.2570  0.3627
13353TIP3   OH261549   6.022   5.328   3.402 -0.3209 -0.1529  0.0347
13353TIP3    H161550   6.097   5.269   3.395 -0.2450  0.0334 -0.8806
13353TIP3    H261551   6.056   5.408   3.442  0.0555  0.0750 -0.7404
13354TIP3   OH261552   0.742   1.737   5.959  0.3111  0.0799  0.0156
13354TIP3    H161553   0.690   1.683   6.018 -0.5897  0.8383 -0.0920
13354TIP3    H261554   0.701   1.726   5.873  1.5172 -0.8882 -0.4610
13355TIP3   OH261555   3.555   4.415   0.832 -0.2198  0.7083  0.8767
13355TIP3    H161556   3.640   4.457   0.843 -1.0098  1.9620  2.2771
13355TIP3    H261557   3.557   4.340   0.891 -0.2952  1.0727  1.3459
13356TIP3   OH261558   1.754   4.235  14.361 -0.2156 -0.4058 -0.1945
13356TIP3    H161559   1.683   4.214  14.301 -0.9137 -0.4042  0.6149
13356TIP3    H261560   1.792   4.316  14.327 -2.3513  1.0679  0.8796
13357TIP3   OH261561   6.439   3.546  14.926 -0.3581 -0.2872 -0.0938
13357TIP3    H161562   6.352   3.540  14.964 -0.1541 -2.2119  0.0920
13357TIP3    H261563   6.483   3.612  14.980 -0.8201 -1.3145  1.5927
13358TIP3   OH261564   3.934   0.380   5.196  0.6383  0.2112 -0.0393
13358TIP3    H161565   3.938   0.289   5.223  2.6552  0.3842  0.3306
13358TIP3    H261566   4.012   0.392   5.142 -0.2679  1.3979 -1.1149
13359TIP3   OH261567   0.704   3.414  15.601 -0.1400  0.2842 -0.1290
13359TIP3    H161568   0.753   3.449  15.676  2.2174 -1.7368 -0.6664
13359TIP3    H261569   0.665   3.334  15.634  1.1263 -0.7534 -1.0899
13360TIP3   OH261570   1.627   2.440   2.211  0.6561  0.1931 -0.3713
13360TIP3    H161571   1.572   2.361   2.210  0.3359  0.4005  0.4741
13360TIP3    H261572   1.598   2.490   2.135  0.0446  0.0461 -0.2358
13361TIP3   OH261573   5.871   2.699  14.188  0.3253  0.0289 -0.2611
13361TIP3    H161574   5.858   2.611  14.225 -0.2244 -0.1606 -0.8942
13361TIP3    H261575   5.824   2.757  14.247  0.5484 -0.1173  0.0656
13362TIP3   OH261576   4.636   3.776   4.068  0.4254  0.0143  0.1248
13362TIP3    H161577   4.724   3.741   4.081  0.4783  0.4086  0.9124
13362TIP3    H261578   4.601   3.785   4.157 -0.5047 -0.3765 -0.1898
13363TIP3   OH261579   2.481   1.106  16.760 -0.3307  0.6936  0.5715
13363TIP3    H161580   2.523   1.143  16.838 -0.9107  1.2520  0.6331
13363TIP3    H261581   2.535   1.031  16.736  0.0163  0.6917  1.3446
13364TIP3   OH261582   5.060   4.198   4.127  0.1945 -0.1369 -0.2869
13364TIP3    H161583   5.126   4.238   4.069  0.5046  1.1993  0.9424
13364TIP3    H261584   5.041   4.113   4.087  2.4298 -0.4075 -0.8451
13365TIP3   OH261585   0.213   5.361  12.333 -0.0949 -0.0695  0.5029
13365TIP3    H161586   0.184   5.452  12.330  0.2310  0.0061 -0.4233
13365TIP3    H261587   0.308   5.365  12.328 -0.0882 -0.4630  0.1982
13366TIP3   OH261588   3.289   3.634   2.308 -0.0188  0.2439  0.1642
13366TIP3    H161589   3.225   3.563   2.303 -0.7383  0.5372  3.8938
13366TIP3    H261590   3.237   3.713   2.317  0.7997  0.7018  1.0403
13367TIP3   OH261591   5.862   5.469   3.752 -0.6825 -0.3859 -0.3546
13367TIP3    H161592   5.842   5.383   3.716 -0.7038 -0.1283 -0.9605
13367TIP3    H261593   5.796   5.527   3.713 -1.2525 -0.2644  0.7781
13368TIP3   OH261594   2.209   6.411   1.873  0.1125  0.1483  0.3315
13368TIP3    H161595   2.181   6.482   1.815  2.0631 -0.1595 -1.0412
13368TIP3    H261596   2.159   6.335   1.844  2.7234 -0.5649 -2.5638
13369TIP3   OH261597   1.014   6.773  12.791  0.1974 -0.2939 -0.0331
13369TIP3    H161598   1.077   6.806  12.855  1.1707 -0.2713 -0.9924
13369TIP3    H261599   1.049   6.688  12.764 -0.8417 -0.8533  0.3531
13370TIP3   OH261600   0.152   5.798   3.981  0.5277  0.8336  0.3727
13370TIP3    H161601   0.108   5.725   4.024  1.2840  0.4534  0.5033
13370TIP3    H261602   0.181   5.854   4.053  2.5418 -0.2333  0.4027
13371TIP3   OH261603   2.854   5.126  16.179  0.2697 -0.4344 -0.2920
13371TIP3    H161604   2.939   5.090  16.154  0.5510  0.4301 -0.5925
13371TIP3    H261605   2.874   5.194  16.244 -0.2289 -0.5864  0.0244
13372TIP3   OH261606   0.035   6.179  11.384 -0.1176  0.2696 -0.3273
13372TIP3    H161607  -0.023   6.147  11.453  1.7392 -0.3192  1.0168
13372TIP3    H261608   0.008   6.132  11.305 -1.0871 -0.4028  0.3940
13373TIP3   OH261609   2.208   5.928  14.888  0.3340  0.0000 -0.1789
13373TIP3    H161610   2.218   5.953  14.980 -0.1593 -0.4449  0.0034
13373TIP3    H261611   2.156   5.999  14.850 -2.6053 -1.5548  0.7587
13374TIP3   OH261612   5.278   4.570  13.509 -0.0462  0.3921 -0.4788
13374TIP3    H161613   5.235   4.654  13.497 -2.6497 -0.7144  0.5941
13374TIP3    H261614   5.258   4.521  13.429 -0.5077 -0.0079 -0.1210
13375TIP3   OH261615   4.658   3.704  13.596  0.0898  0.0298  0.4339
13375TIP3    H161616   4.628   3.776  13.540  1.1484  0.7161  0.7330
13375TIP3    H261617   4.582   3.646  13.604 -0.1512  0.0686 -1.4717
13376TIP3   OH261618   3.582   5.126   2.372 -0.5181  0.1867  0.1394
13376TIP3    H161619   3.673   5.155   2.376 -1.0778  1.8535  1.1801
13376TIP3    H261620   3.581   5.043   2.420  0.7224 -0.6074 -1.1635
13377TIP3   OH261621   2.701   0.185   0.835 -0.1395 -0.2372 -0.5804
13377TIP3    H161622   2.773   0.203   0.775  0.3005 -0.7119 -0.1918
13377TIP3    H261623   2.691   0.266   0.886 -0.9326  0.3973 -1.7172
13378TIP3   OH261624   2.200   2.918   6.139  0.1462 -0.7118 -0.3609
13378TIP3    H161625   2.218   2.964   6.221  0.9409  0.5333 -1.2072
13378TIP3    H261626   2.275   2.859   6.127  0.4353 -0.3110 -0.5729
13379TIP3   OH261627   2.946   0.416   1.912 -0.4774 -0.6595  0.5749
13379TIP3    H161628   2.926   0.470   1.989  0.4277 -0.0301  0.3792
13379TIP3    H261629   2.860   0.390   1.878 -0.9825  1.7121 -0.0669
13380TIP3   OH261630   1.185   5.096   6.181 -0.9649 -0.1022 -0.2096
13380TIP3    H161631   1.113   5.046   6.220 -0.4617  1.2342  2.5139
13380TIP3    H261632   1.234   5.032   6.130 -1.0009 -2.1797  2.2849
13381TIP3   OH261633   6.193   3.077  12.155 -0.2168 -0.0644  0.0142
13381TIP3    H161634   6.216   3.168  12.134  1.8324 -0.1429  1.7566
13381TIP3    H261635   6.148   3.083  12.239  0.9403 -0.7730  0.6903
13382TIP3   OH261636   1.898   3.115  16.032 -0.2668  0.0347  0.2612
13382TIP3    H161637   1.899   3.098  15.938  0.9633  0.8117  0.1256
13382TIP3    H261638   1.817   3.165  16.047  0.4094  1.4578 -0.6841
13383TIP3   OH261639   2.286   4.107  13.019  0.3039  0.3985  0.3305
13383TIP3    H161640   2.351   4.091  12.951 -2.4288  2.3607 -2.9252
13383TIP3    H261641   2.270   4.201  13.015 -1.5938  0.1902  2.0664
13384TIP3   OH261642   4.492   5.783   4.138  0.2875  0.5845 -0.2116
13384TIP3    H161643   4.420   5.727   4.167 -0.3020  1.6651  0.4903
13384TIP3    H261644   4.535   5.734   4.069  0.5130 -1.2259  1.1815
13385TIP3   OH261645   6.262   1.628  16.452  0.5718  0.1741 -0.2545
13385TIP3    H161646   6.324   1.689  16.491  0.5897  0.2144 -0.3485
13385TIP3    H261647   6.252   1.658  16.361 -0.2119  0.6755 -0.0165
13386TIP3   OH261648   5.596   6.045   1.531  0.7045  0.1021 -0.1680
13386TIP3    H161649   5.675   6.097   1.517  0.2048  0.6108 -1.1373
13386TIP3    H261650   5.584   6.046   1.626  1.2391  0.9618 -0.1004
13387TIP3   OH261651   4.720   5.460   0.732  0.2821 -0.5870  0.5883
13387TIP3    H161652   4.779   5.532   0.754 -1.4006  0.7315  0.8482
13387TIP3    H261653   4.638   5.502   0.708 -0.6464 -2.4104  0.4621
13388TIP3   OH261654   6.110   2.698   5.164 -0.1095 -0.2714  0.1370
13388TIP3    H161655   6.044   2.645   5.209 -0.5550 -0.5297 -0.7996
13388TIP3    H261656   6.185   2.641   5.154 -0.5035 -0.6552 -0.6578
13389TIP3   OH261657   3.160   2.859  16.700  0.0540  0.0596 -0.0259
13389TIP3    H161658   3.249   2.849  16.735 -0.6864  1.1908  2.3328
13389TIP3    H261659   3.153   2.953  16.680 -0.6872  0.0375  0.1154
13390TIP3   OH261660   3.171   1.483  15.654  0.1859 -0.3969 -0.8988
13390TIP3    H161661   3.197   1.402  15.611 -0.0689 -0.0871 -1.6578
13390TIP3    H261662   3.165   1.461  15.747 -0.5928 -1.4361 -1.1868
13391TIP3   OH261663   0.471   0.959  13.645  0.6155  0.5136 -0.1285
13391TIP3    H161664   0.394   0.927  13.692 -0.5871  0.9992 -1.6959
13391TIP3    H261665   0.471   1.053  13.659  0.7090  0.5596 -0.4214
13392TIP3   OH261666   1.495   0.522   5.623 -0.3621  0.1450  0.6853
13392TIP3    H161667   1.538   0.437   5.631  0.0619  0.4546  1.7998
13392TIP3    H261668   1.502   0.561   5.711 -0.5042  1.3480  0.1735
13393TIP3   OH261669   4.670   2.810   4.035 -0.0495  0.4243  0.5861
13393TIP3    H161670   4.722   2.771   3.965  1.3091  2.7600  0.2447
13393TIP3    H261671   4.596   2.750   4.047  0.6254 -0.8928 -1.6458
13394TIP3   OH261672   1.022   2.369   2.082  0.2040 -0.3254 -0.2217
13394TIP3    H161673   1.101   2.316   2.095 -1.0107 -1.7039  1.7676
13394TIP3    H261674   1.002   2.404   2.169 -2.1936 -1.1680 -0.4042
13395TIP3   OH261675   0.833   4.968   3.663 -0.3104 -0.5010 -0.8976
13395TIP3    H161676   0.817   5.038   3.599  1.7128 -0.8903 -1.8522
13395TIP3    H261677   0.883   5.010   3.733 -2.9955  0.0624  0.7813
13396TIP3   OH261678   6.645   0.923   4.248 -0.2724  0.2738 -0.4346
13396TIP3    H161679   6.711   0.879   4.195  0.1764  0.6168 -0.1703
13396TIP3    H261680   6.676   0.915   4.338  0.7312  2.5940 -0.5179
13397TIP3   OH261681   2.269   2.361   5.570 -0.1285 -0.0720  0.0652
13397TIP3    H161682   2.336   2.295   5.587 -0.6833 -0.4618  0.7721
13397TIP3    H261683   2.298   2.438   5.619  0.5981  0.2721 -0.8840
13398TIP3   OH261684   6.588   6.705  11.386  0.2119 -0.0705 -0.0013
13398TIP3    H161685   6.574   6.611  11.373  1.4420 -0.3050  0.2694
13398TIP3    H261686   6.679   6.719  11.359  0.1745  0.9629  0.3904
13399TIP3   OH261687   1.406   5.476   2.171  0.4099  0.3041 -0.3294
13399TIP3    H161688   1.314   5.473   2.199  0.1984  1.1965 -0.9207
13399TIP3    H261689   1.403   5.469   2.076  1.1015 -2.1168 -0.1915
13400TIP3   OH261690   5.019   2.219  17.235 -0.3147  0.5432  0.4562
13400TIP3    H161691   5.098   2.265  17.263 -0.5272  1.8068 -0.9658
13400TIP3    H261692   5.045   2.174  17.155 -0.5182 -0.6684  1.0445
13401TIP3   OH261693   4.282   4.227   2.256 -0.0540  0.0444 -0.4210
13401TIP3    H161694   4.294   4.159   2.190 -0.6294  1.7495 -2.3363
13401TIP3    H261695   4.370   4.260   2.273  0.2072 -1.0155  0.3896
13402TIP3   OH261696   6.676   0.075  13.490  0.2390 -0.3945 -0.3780
13402TIP3    H161697   6.718   0.149  13.534 -0.0837 -1.2475  1.4284
13402TIP3    H261698   6.632   0.113  13.414  1.2353  1.0407 -0.2475
13403TIP3   OH261699   2.442   4.423   5.296 -0.0755  0.5929 -0.7063
13403TIP3    H161700   2.463   4.369   5.219  2.9153  1.5532 -0.6394
13403TIP3    H261701   2.442   4.512   5.262 -1.8705  0.8005 -0.1831
13404TIP3   OH261702   3.944   5.416   2.561  0.4985  0.4872 -0.2419
13404TIP3    H161703   4.011   5.479   2.534 -0.0469  1.2331  0.1264
13404TIP3    H261704   3.927   5.437   2.653  0.5064 -0.3790 -0.0334
13405TIP3   OH261705   4.407   3.534  12.319  0.2664  0.0420 -0.1323
13405TIP3    H161706   4.391   3.477  12.394 -1.5318  1.5997  0.7306
13405TIP3    H261707   4.480   3.589  12.346 -0.5553  0.7871  0.6158
13406TIP3   OH261708   2.020   4.490  10.957  0.0314  0.5507 -0.3386
13406TIP3    H161709   1.982   4.421  11.011 -1.6793  0.4860 -1.5860
13406TIP3    H261710   2.112   4.466  10.947 -0.7717 -2.1334 -1.6272
13407TIP3   OH261711   0.236   0.267  12.494  0.2262 -0.1534 -0.1513
13407TIP3    H161712   0.295   0.309  12.557  0.8001 -1.2370  0.0345
13407TIP3    H261713   0.248   0.173  12.508  0.9876 -0.4374 -2.4551
13408TIP3   OH261714   5.578   0.955   2.068 -0.2827 -0.3737 -0.6555
13408TIP3    H161715   5.520   1.031   2.066  0.0920  0.0126  1.8909
13408TIP3    H261716   5.538   0.896   2.132  1.3978 -0.6881  0.1234
13409TIP3   OH261717   2.181   4.313  14.004 -0.2986  0.0625 -0.3689
13409TIP3    H161718   2.231   4.232  14.011  1.7766  1.2725 -0.7371
13409TIP3    H261719   2.138   4.322  14.090 -0.3128 -1.2559 -0.2278
13410TIP3   OH261720   1.671   3.177  11.541 -0.4612 -0.6937 -0.7813
13410TIP3    H161721   1.659   3.259  11.589  1.6827  0.1449 -1.5874
13410TIP3    H261722   1.628   3.111  11.595 -0.9790  0.7436  0.6166
13411TIP3   OH261723   2.769   1.852  13.932  0.0362  0.1118  0.2262
13411TIP3    H161724   2.778   1.854  14.028  2.4186  1.7395  0.0319
13411TIP3    H261725   2.705   1.920  13.913  0.1616  0.3504  0.6299
13412TIP3   OH261726   0.274   3.595   4.926 -0.3155 -0.3452  0.3876
13412TIP3    H161727   0.231   3.666   4.974  0.5404 -0.4564  1.3335
13412TIP3    H261728   0.212   3.573   4.856 -1.4302  0.0547  1.2277
13413TIP3   OH261729   5.259   6.313   4.463  0.0816 -0.4259  0.1915
13413TIP3    H161730   5.302   6.385   4.510 -0.6254  0.4538 -0.4923
13413TIP3    H261731   5.197   6.357   4.405  2.2995 -1.3702 -2.9928
13414TIP3   OH261732   5.122   1.592   3.893  0.1930  0.5043  0.2315
13414TIP3    H161733   5.107   1.580   3.799 -0.0992 -0.1718  0.3666
13414TIP3    H261734   5.042   1.560   3.934  1.0583 -0.9066  0.8257
13415TIP3   OH261735   5.068   0.425  15.029  0.1621  0.2663  0.1544
13415TIP3    H161736   5.054   0.478  14.951 -0.5473  1.4144  1.0315
13415TIP3    H261737   5.148   0.375  15.011  0.1810  0.7641 -1.1611
13416TIP3   OH261738   3.140   0.135  11.416 -0.0989 -0.1313  0.1476
13416TIP3    H161739   3.076   0.078  11.457  0.0582  0.6963  1.5570
13416TIP3    H261740   3.093   0.176  11.343 -1.3905  1.0416  1.6229
13417TIP3   OH261741   1.196   4.586   5.410 -0.2806 -0.7735  0.2078
13417TIP3    H161742   1.243   4.612   5.331  0.7504 -1.4659  0.5829
13417TIP3    H261743   1.137   4.516   5.380  0.0910 -1.0183  0.0414
13418TIP3   OH261744   5.995   6.290  15.732  0.3626  0.1233  0.1696
13418TIP3    H161745   6.050   6.244  15.669 -1.1691 -0.3616 -0.8260
13418TIP3    H261746   5.912   6.243  15.731 -1.5313  3.3297 -1.4890
13419TIP3   OH261747   0.939   1.099  16.058 -0.1690  0.0948  0.5902
13419TIP3    H161748   0.860   1.137  16.096  0.0422  0.5777  0.5520
13419TIP3    H261749   0.971   1.039  16.125 -0.9516 -0.6330  0.3243
13420TIP3   OH261750   5.482   0.657   2.129  0.1210 -0.1961 -0.1571
13420TIP3    H161751   5.421   0.676   2.201  0.3272  2.9101 -0.7551
13420TIP3    H261752   5.568   0.654   2.170  0.0883  0.2019 -0.0589
13421TIP3   OH261753   1.960   2.957   1.327 -0.2496 -0.2451 -0.3093
13421TIP3    H161754   1.877   2.980   1.287  0.0599 -0.0075 -0.8247
13421TIP3    H261755   1.960   3.003   1.411 -0.2116  0.5690 -0.7483
13422TIP3   OH261756   2.234   3.923  11.963 -0.4761  0.2162 -0.2313
13422TIP3    H161757   2.297   3.851  11.969  0.2305  0.8176 -0.3830
13422TIP3    H261758   2.152   3.885  11.993 -0.1390 -0.6944 -0.4502
13423TIP3   OH261759   6.044   5.889   4.132  0.1960 -0.1411  0.2725
13423TIP3    H161760   6.082   5.975   4.119 -0.1885  0.0488  0.3992
13423TIP3    H261761   6.071   5.838   4.055  3.2100 -0.9082  1.7679
13424TIP3   OH261762   6.562   2.631   5.543  0.8914  0.4681  0.4608
13424TIP3    H161763   6.596   2.550   5.583  1.9138  0.9824  0.6673
13424TIP3    H261764   6.641   2.680   5.519  0.2858  0.6040 -1.3260
13425TIP3   OH261765   4.393   4.241  14.028  0.3115 -0.1661  0.2599
13425TIP3    H161766   4.465   4.272  13.974 -0.9200  1.2733 -0.5800
13425TIP3    H261767   4.320   4.232  13.967 -1.0864  1.4400  1.6552
13426TIP3   OH261768   5.146   1.665  16.125  0.1538 -0.0557 -0.1349
13426TIP3    H161769   5.053   1.679  16.138 -0.3090 -1.1185 -2.1042
13426TIP3    H261770   5.169   1.724  16.052  1.0078  0.1413  0.2840
13427TIP3   OH261771   5.795   6.121  14.474  0.4029 -0.1563 -0.3264
13427TIP3    H161772   5.874   6.066  14.473  1.2500  1.0059  0.8819
13427TIP3    H261773   5.723   6.059  14.467  1.4249 -1.2115 -1.9587
13428TIP3   OH261774   4.503   1.406   5.058  0.5531 -0.0206 -0.4086
13428TIP3    H161775   4.492   1.361   5.141  0.4370  0.0654 -0.3783
13428TIP3    H261776   4.580   1.364   5.018  0.1612 -0.5731 -0.5919
13429TIP3   OH261777   5.096   0.804   6.322 -0.5990 -0.0695 -0.1503
13429TIP3    H161778   5.122   0.714   6.341 -1.0845 -0.3025 -0.5808
13429TIP3    H261779   5.015   0.795   6.272 -1.7760  0.6545  1.5910
13430TIP3   OH261780   5.771   6.793  11.778  0.0951 -0.2425  0.2015
13430TIP3    H161781   5.792   6.758  11.691 -1.1919 -0.1329 -0.1683
13430TIP3    H261782   5.803   6.883  11.776 -1.1985  0.2225 -0.6847
13431TIP3   OH261783   6.090   4.430   4.714  0.0716  0.1643  0.5031
13431TIP3    H161784   6.169   4.476   4.741 -0.1427  0.3570  0.8103
13431TIP3    H261785   6.093   4.347   4.763  1.1970 -0.7891 -1.1542
13432TIP3   OH261786   6.236   6.477  11.111  0.4869  0.1852 -0.0037
13432TIP3    H161787   6.145   6.505  11.099  1.3291  3.1444  0.2641
13432TIP3    H261788   6.281   6.553  11.146  3.7772 -0.1696 -3.0910
13433TIP3   OH261789   4.670   0.528   5.534 -0.1936 -0.2137 -0.0846
13433TIP3    H161790   4.595   0.588   5.530 -0.0384 -0.1506 -2.6826
13433TIP3    H261791   4.646   0.456   5.476  2.1610  0.2974 -1.7412
13434TIP3   OH261792   3.992   3.745   3.050  0.0136  0.0935 -0.3940
13434TIP3    H161793   4.060   3.723   2.987  0.6739  1.5602 -0.2106
13434TIP3    H261794   3.915   3.764   2.997  0.0387 -0.5240 -0.6540
13435TIP3   OH261795   2.147   4.938  15.832 -0.7711 -0.2418 -0.1052
13435TIP3    H161796   2.226   4.885  15.821 -1.0489 -0.8438  0.6866
13435TIP3    H261797   2.178   5.028  15.833 -0.1959 -0.4301 -0.6670
13436TIP3   OH261798   1.415   5.294  16.332 -0.7827 -0.4193 -0.7986
13436TIP3    H161799   1.397   5.262  16.243 -0.3884 -2.5362 -0.1332
13436TIP3    H261800   1.478   5.232  16.368  2.5734  2.8830 -0.5691
13437TIP3   OH261801   2.268   0.649  14.425  0.0022  0.2909  0.4065
13437TIP3    H161802   2.177   0.622  14.422 -0.2161  1.0223  0.2934
13437TIP3    H261803   2.290   0.650  14.518 -0.0006 -0.2352  0.4111
13438TIP3   OH261804   5.291   3.862  13.495 -0.1742  0.0368 -0.0978
13438TIP3    H161805   5.269   3.773  13.467  0.2418  0.5962 -2.2212
13438TIP3    H261806   5.380   3.854  13.530  0.0502 -0.2777 -0.7377
13439TIP3   OH261807   6.226   6.311   3.821  0.3228  0.2334 -0.4133
13439TIP3    H161808   6.206   6.301   3.728  0.3247  1.4140 -0.5561
13439TIP3    H261809   6.270   6.397   3.826 -0.0875  0.3778  0.7322
13440TIP3   OH261810   3.772   0.584   3.455 -0.0504  0.0237 -0.4068
13440TIP3    H161811   3.697   0.564   3.399 -0.3292  0.2116 -0.1060
13440TIP3    H261812   3.762   0.678   3.475  0.6610  0.2170 -0.9569
13441TIP3   OH261813   0.979   6.451   0.082  0.2523 -0.0693  0.2758
13441TIP3    H161814   1.050   6.406   0.036  1.2844  1.3916  0.3904
13441TIP3    H261815   1.019   6.478   0.165 -0.4290  0.7678  0.3355
13442TIP3   OH261816   5.237   2.411  17.100 -0.5136 -0.4323  0.7888
13442TIP3    H161817   5.234   2.498  17.060 -0.4391 -0.0873  1.5365
13442TIP3    H261818   5.298   2.420  17.173  0.1072 -1.3143  0.3781
13443TIP3   OH261819   5.393   0.535  13.582 -0.1152  0.4219 -0.4139
13443TIP3    H161820   5.452   0.532  13.657  0.1337  1.9536 -0.5342
13443TIP3    H261821   5.421   0.463  13.526 -1.0127 -1.4789  1.4733
13444TIP3   OH261822   6.218   3.946  11.199  0.1270 -0.2364  0.0846
13444TIP3    H161823   6.137   3.988  11.229  1.4593  0.2637  3.2384
13444TIP3    H261824   6.260   4.013  11.145 -1.2343 -0.2571 -1.0316
13445TIP3   OH261825   5.583   5.068   3.520  0.0764  0.4799  0.2792
13445TIP3    H161826   5.510   5.015   3.488  0.5891 -0.4217  0.6037
13445TIP3    H261827   5.660   5.032   3.476  0.2334  1.9230 -0.6491
13446TIP3   OH261828   1.127   2.765  12.039  0.0970 -0.4802 -0.0034
13446TIP3    H161829   1.186   2.691  12.028  0.1634 -0.2978 -0.9334
13446TIP3    H261830   1.148   2.823  11.966  0.1030  0.4913  0.7589
13447TIP3   OH261831   0.001   5.635  15.759 -0.5877  0.4212  0.1798
13447TIP3    H161832  -0.081   5.619  15.713  0.5418  1.5701 -2.3858
13447TIP3    H261833   0.069   5.617  15.693  1.1468  1.2997  1.6685
13448TIP3   OH261834   1.061   5.577   0.154 -0.4798  0.0652 -0.9462
13448TIP3    H161835   1.010   5.520   0.213  0.5030 -0.0823 -0.2303
13448TIP3    H261836   1.116   5.518   0.104  1.2622  0.4175  0.4881
13449TIP3   OH261837   1.245   0.072  15.663 -0.2725  0.2561  0.6622
13449TIP3    H161838   1.248   0.167  15.675  0.4243  0.4051 -0.6347
13449TIP3    H261839   1.334   0.048  15.640 -0.4216 -0.7346  1.1011
13450TIP3   OH261840   3.214   4.688   3.510  0.6701  0.5863  0.4044
13450TIP3    H161841   3.136   4.717   3.463  1.4907  1.5609 -0.3757
13450TIP3    H261842   3.228   4.756   3.577  0.6163  0.2007  0.8107
13451TIP3   OH261843   3.155   3.469  13.787 -0.5937 -0.5054  0.7435
13451TIP3    H161844   3.176   3.424  13.868  0.5793  0.5760  1.0563
13451TIP3    H261845   3.107   3.405  13.735  0.3431 -1.8301  1.4967
13452TIP3   OH261846   4.905   2.063  11.605 -0.1058  0.1555 -0.7856
13452TIP3    H161847   4.992   2.103  11.608 -1.3320  3.0025 -0.7948
13452TIP3    H261848   4.845   2.136  11.623 -2.5670 -1.4300 -2.2092
13453TIP3   OH261849   2.200   1.523   5.023 -0.3829  0.5418 -0.0491
13453TIP3    H161850   2.133   1.465   5.060 -0.0647  1.7081  2.4648
13453TIP3    H261851   2.252   1.467   4.966 -0.9746 -1.3174  1.1905
13454TIP3   OH261852   6.199   4.936   3.092 -0.4614  0.8925  0.4106
13454TIP3    H161853   6.218   4.932   3.186 -2.1009  0.5255  0.7388
13454TIP3    H261854   6.142   5.012   3.083  1.4772  2.2501 -0.6266
13455TIP3   OH261855   2.603   4.375   0.032  0.0064  0.0244  0.5103
13455TIP3    H161856   2.681   4.347   0.079 -0.1055 -0.2617  0.5216
13455TIP3    H261857   2.599   4.470   0.046  1.4651  0.3590 -1.1439
13456TIP3   OH261858   6.051   5.227   1.336  0.2866  0.2047 -0.1874
13456TIP3    H161859   6.046   5.191   1.248 -0.2836  0.3331 -0.2119
13456TIP3    H261860   6.139   5.206   1.366  0.2696 -0.3945 -0.5528
13457TIP3   OH261861   1.921   3.066  14.477  0.5721  0.1514  0.1862
13457TIP3    H161862   1.841   3.118  14.465  0.3604 -0.6284 -1.8851
13457TIP3    H261863   1.989   3.117  14.433  1.1859  0.6910  1.7365
13458TIP3   OH261864   2.948   1.136  10.985  0.0686  0.2638 -0.1730
13458TIP3    H161865   2.955   1.232  10.979  2.2682  0.0440 -1.5513
13458TIP3    H261866   2.988   1.114  11.069 -0.6799  0.5687  0.2673
13459TIP3   OH261867   2.814   3.640   4.314 -0.6750  0.4338 -0.1721
13459TIP3    H161868   2.827   3.734   4.300 -0.1521  0.5208  0.8279
13459TIP3    H261869   2.863   3.599   4.243  0.0912  0.9029  0.0748
13460TIP3   OH261870   5.531   3.174   3.403 -0.1496  0.0666 -0.0301
13460TIP3    H161871   5.550   3.172   3.309  0.2771 -0.2493  0.0663
13460TIP3    H261872   5.499   3.087   3.423  1.5012 -0.4287  0.4890
13461TIP3   OH261873   3.954   5.255   5.955  0.2695  0.1032 -0.0705
13461TIP3    H161874   4.006   5.252   6.035  0.4870 -2.0751 -0.2725
13461TIP3    H261875   4.013   5.224   5.886 -0.6208 -0.2561 -0.6795
13462TIP3   OH261876   4.083   0.682   1.446 -0.6009  0.0482 -0.3319
13462TIP3    H161877   4.161   0.647   1.490  1.6848  3.7080 -1.2786
13462TIP3    H261878   4.088   0.645   1.357  0.9077  1.3626 -0.8284
13463TIP3   OH261879   4.594   0.924   5.113  0.1263 -0.1561  0.1228
13463TIP3    H161880   4.584   0.878   5.029 -1.7919  0.7332 -0.1555
13463TIP3    H261881   4.669   0.982   5.100  0.8982 -1.2603 -0.4081
13464TIP3   OH261882   3.485   4.226  16.236 -0.5003 -0.0141 -0.6661
13464TIP3    H161883   3.506   4.140  16.272 -0.4547  0.0703 -0.4898
13464TIP3    H261884   3.540   4.234  16.159  1.3216  0.8594  0.6726
13465TIP3   OH261885   3.269   5.017  14.809 -0.5337  0.2771 -0.4170
13465TIP3    H161886   3.277   4.942  14.867 -2.0226  1.5881  1.5194
13465TIP3    H261887   3.359   5.033  14.779  0.1631 -0.7853  1.0497
13466TIP3   OH261888   1.440   3.279   5.878  0.3500 -0.9979  0.1432
13466TIP3    H161889   1.475   3.197   5.843 -1.2536 -2.2887  1.4581
13466TIP3    H261890   1.475   3.283   5.967  1.4310  0.3922 -0.3384
13467TIP3   OH261891   5.192   5.628   5.803  0.2038  0.0423  0.3550
13467TIP3    H161892   5.152   5.680   5.873 -0.5987 -0.8530  0.5649
13467TIP3    H261893   5.250   5.567   5.848 -2.5897 -2.5885  0.5007
13468TIP3   OH261894   2.608   1.291  10.944 -0.6996  0.2467  0.3558
13468TIP3    H161895   2.518   1.270  10.921 -0.4890 -1.4337  0.9513
13468TIP3    H261896   2.613   1.277  11.039 -0.0387  1.1854  0.4702
13469TIP3   OH261897   6.399   2.742   3.248 -0.2516  0.3599  0.6208
13469TIP3    H161898   6.360   2.767   3.164  0.3624  0.9632  0.5095
13469TIP3    H261899   6.328   2.754   3.311 -0.5796  0.3569  0.2557
13470TIP3   OH261900   3.892   2.414  16.709 -0.3235  0.2039  0.3708
13470TIP3    H161901   3.821   2.458  16.756  0.1636 -1.4192  2.6814
13470TIP3    H261902   3.969   2.428  16.764  0.2640 -1.7457  0.0532
13471TIP3   OH261903   2.496   4.327  12.788  0.4646  0.0608 -0.1455
13471TIP3    H161904   2.556   4.397  12.814  1.8811 -1.1130 -0.1797
13471TIP3    H261905   2.533   4.248  12.827 -1.7988 -0.4988  0.9490
13472TIP3   OH261906   3.041   5.497  15.792  0.0950  1.1231  0.4144
13472TIP3    H161907   3.108   5.441  15.829 -2.6349 -1.8564  1.0330
13472TIP3    H261908   2.994   5.533  15.868 -2.4795 -1.2307  0.0078
13473TIP3   OH261909   5.916   3.806   3.361 -0.8768 -0.2220  0.0942
13473TIP3    H161910   6.008   3.785   3.343 -0.6855  2.3640 -2.2644
13473TIP3    H261911   5.916   3.835   3.452  0.3996 -1.4863  0.5231
13474TIP3   OH261912   2.496   4.357   4.570  0.2981 -0.3693 -0.0857
13474TIP3    H161913   2.406   4.380   4.595 -0.5629 -1.5720 -2.0075
13474TIP3    H261914   2.535   4.440   4.542 -0.9345 -0.2146 -1.3746
13475TIP3   OH261915   3.584   2.469  11.805 -0.0373  0.0437 -0.0914
13475TIP3    H161916   3.671   2.504  11.786 -0.2029 -0.7345 -2.4820
13475TIP3    H261917   3.535   2.483  11.725 -2.0570  0.2216  1.1498
13476TIP3   OH261918   1.747   2.245  13.469  0.0903 -0.4210  0.1422
13476TIP3    H161919   1.792   2.172  13.511 -0.5072 -0.2759  1.0423
13476TIP3    H261920   1.697   2.286  13.539  0.4751  0.9016 -0.3398
13477TIP3   OH261921   4.237   4.658  10.998  0.2620 -0.0535  0.1596
13477TIP3    H161922   4.181   4.730  11.029 -2.0150 -1.9297  0.5629
13477TIP3    H261923   4.213   4.584  11.053  2.2044 -1.2815 -0.6052
13478TIP3   OH261924   5.259   6.146   3.647  0.9098  0.0303  0.0825
13478TIP3    H161925   5.229   6.126   3.736 -0.7527 -0.2898 -0.5411
13478TIP3    H261926   5.335   6.090   3.635  0.4938 -0.7345  0.9083
13479TIP3   OH261927   4.371   0.700  15.571  0.7019 -0.2541 -0.2821
13479TIP3    H161928   4.376   0.781  15.621 -0.6423 -0.7117  0.6049
13479TIP3    H261929   4.454   0.655  15.588  0.4359 -0.1965  1.1722
13480TIP3   OH261930   5.738   5.133   0.192  0.6107 -0.0448 -0.4650
13480TIP3    H161931   5.675   5.088   0.248  0.7736  0.5660  0.2296
13480TIP3    H261932   5.725   5.096   0.105 -0.8731  0.2675 -0.3765
13481TIP3   OH261933   1.905   6.052   1.421  0.0387  0.4267 -0.7060
13481TIP3    H161934   1.868   6.140   1.430 -2.6350 -0.7667  0.6972
13481TIP3    H261935   1.854   6.011   1.351 -0.4044 -0.8082  0.3198
13482TIP3   OH261936   0.418   4.812   4.312 -0.1947 -0.2120  0.2920
13482TIP3    H161937   0.326   4.793   4.329 -0.7053  1.3411 -0.6648
13482TIP3    H261938   0.437   4.888   4.368  0.3328 -0.1409  0.0182
13483TIP3   OH261939   0.384   0.179  14.011  0.3253 -0.0743  0.3681
13483TIP3    H161940   0.365   0.152  14.101  2.7327 -0.7891  0.7054
13483TIP3    H261941   0.309   0.232  13.985  0.2028  1.2550  3.2608
13484TIP3   OH261942   4.657   2.656  15.690  0.2226 -0.3975 -0.2830
13484TIP3    H161943   4.695   2.664  15.777 -0.6275 -1.1451  0.1769
13484TIP3    H261944   4.622   2.743  15.670  1.1123 -0.0207 -0.2178
13485TIP3   OH261945   4.349   6.722  10.754 -0.2325 -0.2430 -0.7767
13485TIP3    H161946   4.264   6.753  10.722 -1.0514 -1.6730 -0.0609
13485TIP3    H261947   4.329   6.637  10.794  0.8802  1.1054  2.8209
13486TIP3   OH261948   2.572   4.510   2.221 -0.0441 -0.5596 -0.7289
13486TIP3    H161949   2.502   4.454   2.187 -0.2934 -0.9898  0.4808
13486TIP3    H261950   2.609   4.461   2.294  1.3129 -0.1905 -1.1587
13487TIP3   OH261951   5.412   2.445   3.920  0.4321  0.2352  0.4422
13487TIP3    H161952   5.406   2.540   3.912  0.0131  0.4223  2.7305
13487TIP3    H261953   5.375   2.425   4.006  2.1674 -1.8336  0.7629
13488TIP3   OH261954   4.465   5.624  15.234 -0.3082 -0.0160  0.5103
13488TIP3    H161955   4.437   5.707  15.272  0.7898  0.5472  0.1119
13488TIP3    H261956   4.542   5.598  15.286 -0.4723 -0.6313  0.4514
13489TIP3   OH261957   0.478   3.954  12.633 -0.3253  0.0782 -0.2894
13489TIP3    H161958   0.516   3.945  12.720 -0.4676 -0.9708 -0.3243
13489TIP3    H261959   0.389   3.985  12.648 -0.3129  0.0036 -0.0655
13490TIP3   OH261960   4.473   1.947  11.003 -0.5296 -0.2622  0.2649
13490TIP3    H161961   4.481   1.927  10.910  0.1935 -0.9037  0.4549
13490TIP3    H261962   4.387   1.914  11.028 -1.0278  0.5564 -0.3288
13491TIP3   OH261963   6.410   3.870  15.677 -0.2991 -0.3464 -0.1332
13491TIP3    H161964   6.406   3.904  15.587 -1.2618  2.0704  0.7970
13491TIP3    H261965   6.319   3.863  15.704 -0.0902 -2.7821  0.0824
13492TIP3   OH261966   3.323   5.595   0.711 -0.3280  0.0368  0.7852
13492TIP3    H161967   3.274   5.593   0.628  0.8648 -2.2221  0.0960
13492TIP3    H261968   3.378   5.673   0.704 -0.8290  0.3230 -0.1819
13493TIP3   OH261969   6.323   2.135  11.572 -0.2025 -0.5189 -0.9048
13493TIP3    H161970   6.356   2.097  11.490  1.1219  0.9767 -1.0885
13493TIP3    H261971   6.378   2.212  11.586 -2.0060  0.6070  0.1305
13494TIP3   OH261972   5.859   4.151   3.319 -0.1104  0.4338 -0.2510
13494TIP3    H161973   5.800   4.225   3.337 -0.1323  0.8195 -1.7789
13494TIP3    H261974   5.916   4.146   3.395  0.1613  2.3109 -0.3001
13495TIP3   OH261975   1.090   1.331   3.513 -0.1580  0.3569 -0.5743
13495TIP3    H161976   1.040   1.339   3.594 -2.0396  0.0152 -1.6932
13495TIP3    H261977   1.119   1.240   3.511  0.6595  0.5886  0.1343
13496TIP3   OH261978   4.326   1.349  11.179 -0.4670  0.3052 -0.2612
13496TIP3    H161979   4.281   1.430  11.200  0.9797  0.8839  0.7069
13496TIP3    H261980   4.363   1.363  11.092 -1.0794  0.3007 -0.5213
13497TIP3   OH261981   6.027   0.716   4.724  0.4027  0.4002 -0.0247
13497TIP3    H161982   6.019   0.778   4.796 -0.9910 -0.2232  0.3819
13497TIP3    H261983   5.984   0.637   4.755  2.4429 -0.9112 -0.4055
13498TIP3   OH261984   6.135   1.099   3.734 -0.0983  0.2058 -0.0586
13498TIP3    H161985   6.131   1.175   3.792 -2.8117  0.6618 -0.7797
13498TIP3    H261986   6.142   1.024   3.793  0.7564  0.8879  0.7204
13499TIP3   OH261987   1.750   6.131   2.971 -0.0614 -0.2002  0.1202
13499TIP3    H161988   1.695   6.186   2.915  0.7917 -0.5872 -1.1311
13499TIP3    H261989   1.714   6.043   2.960  1.6526 -0.6946 -1.8286
13500TIP3   OH261990   1.138   0.260  11.217  0.5290  0.1058  0.0988
13500TIP3    H161991   1.070   0.299  11.162  1.9735  3.1186  0.3555
13500TIP3    H261992   1.099   0.259  11.305 -0.0762 -0.5081 -0.1626
13501TIP3   OH261993   2.815   6.484   4.093 -0.1850 -0.2544 -0.1100
13501TIP3    H161994   2.829   6.574   4.123 -1.1034  0.5389 -1.9654
13501TIP3    H261995   2.741   6.490   4.033  0.6539 -2.0333 -1.3600
13502TIP3   OH261996   0.343   3.087  11.342 -0.0559  0.3254  0.2904
13502TIP3    H161997   0.396   3.024  11.392  0.0423 -0.7560 -1.1268
13502TIP3    H261998   0.407   3.143  11.299 -0.1505  1.8382  2.0527
13503TIP3   OH261999   2.934   5.807  12.941  0.6458  0.0308 -0.0305
13503TIP3    H162000   2.936   5.903  12.934 -0.6829 -0.0402 -1.7198
13503TIP3    H262001   3.004   5.777  12.883  1.3262 -0.0181  0.8078
13504TIP3   OH262002   4.481   6.372  16.840  0.4530 -0.4987  0.9843
13504TIP3    H162003   4.410   6.435  16.827 -0.1899 -0.8531  2.6272
13504TIP3    H262004   4.496   6.372  16.935  2.6773 -0.4165  0.6717
13505TIP3   OH262005   3.675   1.540   3.508  0.3147  0.6353 -0.6082
13505TIP3    H162006   3.719   1.623   3.490 -0.7340  1.5184  0.7613
13505TIP3    H262007   3.741   1.474   3.490  1.4888  1.8199 -0.7747
13506TIP3   OH262008   1.214   5.826  17.129 -0.2049 -0.5777 -0.1192
13506TIP3    H162009   1.123   5.797  17.130 -0.5044  0.3390 -0.8260
13506TIP3    H262010   1.234   5.845  17.221 -0.9304 -0.1357 -0.0554
13507TIP3   OH262011   6.807   2.259   2.247 -0.2660 -0.4487  0.4579
13507TIP3    H162012   6.741   2.190   2.252 -1.4585  0.6722  0.3212
13507TIP3    H262013   6.766   2.335   2.287  1.2495  0.0416  1.1124
13508TIP3   OH262014   4.929   5.522   0.484  0.4934  0.4500 -0.0415
13508TIP3    H162015   4.905   5.598   0.537  0.0844 -0.2308  0.7576
13508TIP3    H262016   4.846   5.489   0.451  0.9119  2.5641 -3.5385
13509TIP3   OH262017   2.301   1.558   1.862  0.5007  0.2462  0.4809
13509TIP3    H162018   2.396   1.553   1.869  0.8115  1.9648 -1.7724
13509TIP3    H262019   2.278   1.491   1.798  0.4966  1.4419 -0.8007
13510TIP3   OH262020   3.567   0.042  16.935 -0.3166 -0.3476 -0.2579
13510TIP3    H162021   3.556  -0.030  16.997 -1.2025 -0.6983 -0.8196
13510TIP3    H262022   3.601   0.114  16.988 -1.6127 -0.4611  0.7386
13511TIP3   OH262023   4.944   2.739   2.398 -0.4073  0.0138 -0.0668
13511TIP3    H162024   4.914   2.650   2.414  0.4553 -0.1171  0.8368
13511TIP3    H262025   5.013   2.729   2.332  0.3656 -0.0912  0.7532
13512TIP3   OH262026   1.528   4.457   1.819 -0.4697 -0.1922 -0.3741
13512TIP3    H162027   1.576   4.442   1.737 -0.2257  1.0959 -0.4778
13512TIP3    H262028   1.590   4.436   1.888 -1.0695 -2.5106 -0.5027
13513TIP3   OH262029   2.205   0.978   5.345  0.0876 -0.3066  0.0089
13513TIP3    H162030   2.289   1.023   5.340  0.6458 -1.5247 -1.8118
13513TIP3    H262031   2.166   0.988   5.259 -1.0943 -0.8149  0.4634
13514TIP3   OH262032   1.791   2.203   6.459  0.3174  0.7149  0.6496
13514TIP3    H162033   1.700   2.232   6.471 -0.1217  0.4660 -1.7200
13514TIP3    H262034   1.804   2.136   6.526 -1.5972  0.0066  0.3612
13515TIP3   OH262035   4.126   6.186  14.530 -0.8032 -0.3057  0.1725
13515TIP3    H162036   4.128   6.097  14.494 -1.3576  0.3492 -1.5007
13515TIP3    H262037   4.153   6.175  14.621 -0.1165 -2.0891 -0.2231
13516TIP3   OH262038   0.094   0.361   4.013  0.1265  0.0947 -0.8398
13516TIP3    H162039   0.168   0.301   4.001  1.3202  1.6121 -1.3526
13516TIP3    H262040   0.017   0.309   3.990  1.1833 -1.0550 -1.8879
13517TIP3   OH262041   4.324   5.186  15.292  0.2284 -0.4012 -0.5932
13517TIP3    H162042   4.263   5.145  15.230  0.1933 -2.3166  0.6530
13517TIP3    H262043   4.356   5.264  15.246 -2.6113  0.2650 -1.5620
13518TIP3   OH262044   6.756   1.745   0.023  0.0742 -0.4742  0.0905
13518TIP3    H162045   6.751   1.652   0.045  1.7494 -0.5782  0.0888
13518TIP3    H262046   6.834   1.776   0.069 -0.6056  0.9842  0.2789
13519TIP3   OH262047   1.744   0.712   3.342  0.5211 -0.1740 -0.0202
13519TIP3    H162048   1.789   0.791   3.312  1.6446 -0.7429  0.1554
13519TIP3    H262049   1.779   0.642   3.287 -1.7164 -0.3041 -1.3304
13520TIP3   OH262050   2.012   3.413   6.607 -0.2671 -0.3803 -0.3844
13520TIP3    H162051   1.932   3.466   6.600  0.0428  0.2701  0.8543
13520TIP3    H262052   2.070   3.447   6.540 -0.5896 -0.0675 -0.5038
13521TIP3   OH262053   1.072   1.217   0.349 -0.3674 -0.1631 -0.5776
13521TIP3    H162054   1.033   1.284   0.404 -2.9765 -2.0467 -0.0249
13521TIP3    H262055   1.152   1.190   0.395 -0.2244  1.3093  0.0471
13522TIP3   OH262056   5.745   3.350  13.065 -0.3197 -0.0182  0.8215
13522TIP3    H162057   5.802   3.303  13.125 -0.1726  0.7901  1.3125
13522TIP3    H262058   5.775   3.440  13.068 -0.4727  0.0764 -0.2740
13523TIP3   OH262059   6.630   0.250   0.126  0.0901 -0.0126 -0.0231
13523TIP3    H162060   6.725   0.254   0.109 -0.0998 -1.0168 -1.3889
13523TIP3    H262061   6.593   0.319   0.072  0.0622  0.6101  0.7766
13524TIP3   OH262062   2.577   0.525   0.339  0.4348  0.0673 -0.0846
13524TIP3    H162063   2.546   0.463   0.405  0.6757 -0.1264 -0.1524
13524TIP3    H262064   2.498   0.569   0.307 -0.0408 -2.0598 -1.9360
13525TIP3   OH262065   0.417   3.949   5.893  0.0157  0.5574  0.8016
13525TIP3    H162066   0.345   3.908   5.941 -0.3901 -0.4456 -0.6361
13525TIP3    H262067   0.487   3.884   5.894 -0.7800 -0.3988 -1.8596
13526TIP3   OH262068   5.083   2.232  10.707 -0.8335 -0.2715 -0.2326
13526TIP3    H162069   5.156   2.265  10.759 -1.6407  0.0943  0.6801
13526TIP3    H262070   5.112   2.145  10.677 -0.1113 -0.2112  0.2933
13527TIP3   OH262071   2.256   4.074  14.386  0.4262  1.0146  0.2056
13527TIP3    H162072   2.164   4.077  14.413  0.6661 -0.9254  1.3299
13527TIP3    H262073   2.253   4.067  14.291 -0.6557 -1.2939  0.3962
13528TIP3   OH262074   6.279   6.540   1.912 -0.3389  0.1726 -0.4224
13528TIP3    H162075   6.217   6.590   1.859 -0.3204 -0.5380 -1.1273
13528TIP3    H262076   6.339   6.605   1.948 -1.5625  0.8909  0.3703
13529TIP3   OH262077   3.958   0.527   3.831 -0.3996 -0.7722  0.9307
13529TIP3    H162078   3.964   0.593   3.899 -1.2945  0.0198  0.2471
13529TIP3    H262079   3.868   0.496   3.835 -1.2398  1.1474 -1.5946
13530TIP3   OH262080   5.528   3.831  11.374  0.1695  0.4681 -0.3013
13530TIP3    H162081   5.452   3.888  11.366  1.1609  1.9350  0.4863
13530TIP3    H262082   5.561   3.824  11.284 -1.6909 -1.3426 -0.8826
13531TIP3   OH262083   1.303   3.959  12.040  0.0465  0.4955 -0.5610
13531TIP3    H162084   1.385   3.966  12.089 -0.1408  1.0558 -0.3258
13531TIP3    H262085   1.322   3.999  11.955 -0.7341  3.0354  0.4269
13532TIP3   OH262086   1.599   4.625   5.117  0.3381 -0.3272 -0.4277
13532TIP3    H162087   1.542   4.573   5.175 -0.5889 -1.1809 -2.0503
13532TIP3    H262088   1.642   4.687   5.176 -0.0271 -1.6272  1.2823
13533TIP3   OH262089   6.621   3.153  15.129 -0.3003 -0.3977 -0.2856
13533TIP3    H162090   6.562   3.138  15.055  0.0746 -0.5571 -0.5501
13533TIP3    H262091   6.669   3.233  15.106  0.2456 -0.7859 -0.4842
13534TIP3   OH262092   1.325   3.468  11.765 -0.5610 -0.1501  0.5404
13534TIP3    H162093   1.285   3.549  11.796  0.6406  1.3189 -1.5924
13534TIP3    H262094   1.256   3.426  11.714  0.0319  1.5696 -1.7584
13535TIP3   OH262095   2.031   6.786  14.959 -0.0499 -0.0714  0.2092
13535TIP3    H162096   2.093   6.845  15.003 -0.1338  0.0327  0.1896
13535TIP3    H262097   2.037   6.809  14.867 -1.8478  1.5883  0.4725
13536TIP3   OH262098   5.298   4.176   2.514 -0.0813  0.0547  0.6119
13536TIP3    H162099   5.327   4.267   2.520 -0.1376  0.0701  0.6585
13536TIP3    H262100   5.205   4.179   2.537 -0.1976  0.0535  0.1383
13537TIP3   OH262101   5.090   5.514   0.921 -0.5906 -0.1705 -0.0099
13537TIP3    H162102   5.147   5.452   0.966 -1.7351 -0.8465  0.5078
13537TIP3    H262103   5.084   5.589   0.980 -1.6774 -0.8435  0.7344
13538TIP3   OH262104   3.771   1.933  12.835 -0.3562  0.2457  0.3699
13538TIP3    H162105   3.745   1.844  12.813 -1.0030  0.5087  0.0666
13538TIP3    H262106   3.811   1.967  12.755  1.9279 -0.5150  1.1349
13539TIP3   OH262107   3.976   3.258   3.860  0.5772  0.0757 -0.1209
13539TIP3    H162108   4.068   3.231   3.870  0.6185 -0.3267 -1.5604
13539TIP3    H262109   3.981   3.351   3.838  0.6971 -0.1979 -1.2871
13540TIP3   OH262110   0.818   4.927   4.091  0.0021  0.1131  0.1868
13540TIP3    H162111   0.871   4.894   4.019 -0.4836 -1.1194  0.3646
13540TIP3    H262112   0.826   5.022   4.086  0.4185  0.0197 -1.1431
13541TIP3   OH262113   1.900   3.416   4.122 -0.4946  0.3231  0.0165
13541TIP3    H162114   1.812   3.413   4.160 -0.4609  1.8024  0.2586
13541TIP3    H262115   1.900   3.495   4.068  0.4808 -0.0285 -0.5116
13542TIP3   OH262116   1.660   5.708  15.874  0.3333 -0.0786  0.0502
13542TIP3    H162117   1.629   5.630  15.828 -2.3994  0.2027  1.3153
13542TIP3    H262118   1.593   5.725  15.940  2.9263  0.9500  2.5508
13543TIP3   OH262119   0.276   5.620   1.117  0.4254 -0.2226  0.3549
13543TIP3    H162120   0.188   5.584   1.112 -0.2195  1.5090 -1.5470
13543TIP3    H262121   0.333   5.544   1.127 -1.1176 -1.5140 -0.4980
13544TIP3   OH262122   2.061   5.210  13.952 -0.3019 -0.0448 -0.2891
13544TIP3    H162123   2.126   5.211  13.882  0.2422  1.3108  0.2119
13544TIP3    H262124   2.112   5.194  14.032 -0.4741  1.7745  0.2000
13545TIP3   OH262125   4.252   4.822   2.870  0.6703 -0.1022  0.3363
13545TIP3    H162126   4.181   4.885   2.884 -0.3219 -1.6429  2.3527
13545TIP3    H262127   4.223   4.770   2.796  0.7951  0.7873 -0.3530
13546TIP3   OH262128   5.308   0.355   5.561  0.3880  0.1425 -0.4639
13546TIP3    H162129   5.252   0.419   5.605 -1.2812 -1.1521 -0.6919
13546TIP3    H262130   5.334   0.294   5.631  0.8517  0.2769 -0.5180
13547TIP3   OH262131   3.326   2.667   1.440 -0.1792 -0.2773 -0.6391
13547TIP3    H162132   3.347   2.677   1.532  0.5171 -1.7410 -0.6236
13547TIP3    H262133   3.303   2.755   1.411 -1.2706  0.0370  1.1297
13548TIP3   OH262134   4.176   1.467  16.123 -0.1473  0.1539 -0.4543
13548TIP3    H162135   4.151   1.422  16.203  1.2090 -0.0986 -0.1664
13548TIP3    H262136   4.153   1.406  16.053  0.4358 -0.4254 -0.1425
13549TIP3   OH262137   2.352   5.718   6.368 -0.0544 -0.1512  0.1299
13549TIP3    H162138   2.359   5.813   6.373 -0.0083 -0.1921  0.8539
13549TIP3    H262139   2.258   5.700   6.372 -0.1195 -0.0937 -0.9031
13550TIP3   OH262140   4.153   3.915   1.590  0.0397 -0.5020 -0.4818
13550TIP3    H162141   4.089   3.885   1.526 -0.9475  0.6947 -0.0817
13550TIP3    H262142   4.155   4.010   1.580  1.1344 -0.4494  0.0916
13551TIP3   OH262143   4.315   6.581  11.899  0.3564 -0.4703 -0.0760
13551TIP3    H162144   4.340   6.570  11.807  0.7213 -0.2283 -0.0113
13551TIP3    H262145   4.375   6.649  11.931  0.7850 -1.1412  0.5586
13552TIP3   OH262146   1.621   5.059   2.720  0.0533  0.0885  0.1514
13552TIP3    H162147   1.657   5.093   2.802  1.3815 -0.8885 -0.0195
13552TIP3    H262148   1.594   5.137   2.672 -0.6650  0.6777  1.4700
13553TIP3   OH262149   2.083   4.366  12.487 -0.3831 -0.1216 -0.2555
13553TIP3    H162150   2.130   4.317  12.420 -0.8036  0.4519 -0.9705
13553TIP3    H262151   2.123   4.337  12.570 -1.2980 -2.3975 -0.5880
13554TIP3   OH262152   0.421   6.390  17.005 -0.3060  0.5995 -0.1844
13554TIP3    H162153   0.454   6.350  16.925  1.6687  2.0769 -0.1445
13554TIP3    H262154   0.393   6.477  16.979  3.1810  2.2485  1.1985
13555TIP3   OH262155   0.728   6.531   3.174  0.0771 -0.5509 -0.8162
13555TIP3    H162156   0.756   6.482   3.252 -3.8845 -1.5458  0.1004
13555TIP3    H262157   0.688   6.611   3.209  0.4947  0.1848 -1.9837
13556TIP3   OH262158   5.459   0.308   0.800 -0.0472  0.4332 -0.3362
13556TIP3    H162159   5.545   0.345   0.779  1.8988 -2.2631  2.3996
13556TIP3    H262160   5.432   0.353   0.880 -0.5830  0.3950 -0.4963
13557TIP3   OH262161   3.144   0.868  16.516 -0.3276  0.4417  0.0726
13557TIP3    H162162   3.225   0.876  16.567 -0.0196 -2.6201  0.1327
13557TIP3    H262163   3.075   0.871  16.582 -0.0557 -0.9798  0.4267
13558TIP3   OH262164   2.179   5.969  13.516 -0.2748  0.1763  0.1363
13558TIP3    H162165   2.218   6.057  13.519 -1.1225  0.5381  0.5875
13558TIP3    H262166   2.254   5.910  13.525  0.1475  0.8696  1.3053
13559TIP3   OH262167   6.061   3.982   4.662  0.0272 -0.0596 -0.3516
13559TIP3    H162168   6.043   3.946   4.575 -1.3552  0.5942 -0.3596
13559TIP3    H262169   5.980   4.027   4.686  0.3219 -0.4111  1.3732
13560TIP3   OH262170   6.291   4.490  15.922 -0.0762  0.8799  0.1078
13560TIP3    H162171   6.225   4.469  15.856  1.1169 -1.0394 -0.5363
13560TIP3    H262172   6.372   4.452  15.888  1.1820  2.3932  1.3132
13561TIP3   OH262173   1.632   4.814   2.964 -0.2076  0.3315  0.2722
13561TIP3    H162174   1.657   4.884   2.904 -0.1654  0.6716  0.6889
13561TIP3    H262175   1.569   4.762   2.914  1.8364 -0.9604 -1.0422
13562TIP3   OH262176   1.700   5.020  11.180  0.2761 -0.0945  0.1956
13562TIP3    H162177   1.670   5.111  11.182  1.3298  0.2382  2.2865
13562TIP3    H262178   1.646   4.975  11.246 -0.2618 -1.0059 -0.8441
13563TIP3   OH262179   0.525   5.031  16.943 -0.0925  0.5411 -0.2983
13563TIP3    H162180   0.572   5.000  17.021 -0.7237  1.5246  0.4899
13563TIP3    H262181   0.537   4.961  16.878 -0.6381 -0.8840  1.0973
13564TIP3   OH262182   2.509   5.791   2.943 -0.3684  0.0807 -0.2989
13564TIP3    H162183   2.460   5.736   2.881 -2.1812 -0.5937  1.6641
13564TIP3    H262184   2.597   5.797   2.906 -1.5972  0.3369 -3.3359
13565TIP3   OH262185   5.242   5.971   2.072  0.0595  0.4879  0.3989
13565TIP3    H162186   5.329   5.961   2.110  0.2222  1.0922  0.2050
13565TIP3    H262187   5.218   6.062   2.092  0.0277  0.7233 -0.6750
13566TIP3   OH262188   1.281   3.844   2.771 -0.3075 -0.3889  0.5189
13566TIP3    H162189   1.294   3.768   2.828  1.9919 -0.8811 -0.5950
13566TIP3    H262190   1.321   3.916   2.819  0.4566 -0.5498  0.1397
13567TIP3   OH262191   0.931   6.738   1.111  0.2825 -0.0399 -0.2324
13567TIP3    H162192   1.010   6.789   1.092  1.2238 -1.1398  0.6897
13567TIP3    H262193   0.866   6.803   1.137  1.1981  0.7750  0.0298
13568TIP3   OH262194   5.206   0.310  16.521 -0.2434  0.1288  0.0277
13568TIP3    H162195   5.291   0.297  16.562 -0.7473  0.1681  1.1012
13568TIP3    H262196   5.215   0.393  16.474 -0.4248  1.3373  2.0961
13569TIP3   OH262197   4.045   4.561  16.211 -0.2759  0.2424  0.5016
13569TIP3    H162198   3.961   4.608  16.211 -1.5984 -2.0337  0.3361
13569TIP3    H262199   4.078   4.571  16.122 -0.1992  1.4409  0.6603
13570TIP3   OH262200   2.412   1.081  15.872 -0.2283  0.7931  0.1821
13570TIP3    H162201   2.486   1.073  15.932 -0.6454  2.3409  0.9329
13570TIP3    H262202   2.337   1.050  15.922  0.0553 -1.8983 -0.9720
13571TIP3   OH262203   0.572   4.928  14.962 -0.2215 -0.0376  0.1048
13571TIP3    H162204   0.628   5.001  14.937 -0.0140 -0.6172 -1.1816
13571TIP3    H262205   0.488   4.947  14.921  0.7502 -2.0931 -3.0323
13572TIP3   OH262206   3.076   3.661  16.887  0.0585 -0.3798 -0.5697
13572TIP3    H162207   3.058   3.661  16.793 -1.4003  1.2665 -0.3208
13572TIP3    H262208   2.991   3.643  16.928  0.1985  1.1483  0.4626
13573TIP3   OH262209   6.452   2.997   1.823 -0.1206 -0.6105  0.2959
13573TIP3    H162210   6.486   2.919   1.780  0.3049  0.3987 -1.2513
13573TIP3    H262211   6.522   3.024   1.882  0.3862 -0.5006 -0.3457
13574TIP3   OH262212   4.523   4.031   6.577 -0.4265  0.1500  0.6438
13574TIP3    H162213   4.494   4.058   6.664  1.5722  2.3820  0.6756
13574TIP3    H262214   4.497   4.104   6.520  0.8032 -0.0185 -0.1412
13575TIP3   OH262215   5.432   3.216  15.130 -0.1576 -0.6744  0.2374
13575TIP3    H162216   5.377   3.295  15.133  0.9490  0.1051  0.4489
13575TIP3    H262217   5.455   3.199  15.222 -0.1058 -1.0332  0.1591
13576TIP3   OH262218   0.517   2.271  11.147  0.3539 -0.0787  0.1627
13576TIP3    H162219   0.467   2.232  11.075 -0.3048 -1.2430  1.2278
13576TIP3    H262220   0.602   2.293  11.109 -0.9568  1.9704 -1.6984
13577TIP3   OH262221   4.207   5.352  12.187 -0.0622  0.0064  0.3136
13577TIP3    H162222   4.236   5.283  12.246 -1.1807 -0.1747  0.6560
13577TIP3    H262223   4.123   5.380  12.222 -0.0639  0.8776 -0.3796
13578TIP3   OH262224   6.105   4.025  10.532 -0.6043 -0.8422 -0.9859
13578TIP3    H162225   6.019   4.035  10.491 -1.1057  0.3045  0.2969
13578TIP3    H262226   6.132   4.114  10.553  1.2122 -1.1464 -1.9631
13579TIP3   OH262227   5.943   3.691  15.432  0.0179 -0.3770 -0.1962
13579TIP3    H162228   5.972   3.665  15.520  1.6204 -0.3698 -0.7048
13579TIP3    H262229   5.885   3.766  15.447  1.4845  0.6061  0.7799
13580TIP3   OH262230   1.460   2.665  12.867 -0.4756  0.3281  0.1258
13580TIP3    H162231   1.527   2.605  12.832 -0.3126  0.7831 -0.3496
13580TIP3    H262232   1.417   2.701  12.789 -1.5431 -0.2555  0.4312
13581TIP3   OH262233   6.292   0.580   2.086 -0.0924 -0.3731  0.2067
13581TIP3    H162234   6.366   0.521   2.072  0.5519  0.1617  1.2695
13581TIP3    H262235   6.326   0.648   2.145 -1.2944  0.1324  0.3367
13582TIP3   OH262236   4.861   0.636  15.782  0.8635 -0.6597 -0.2327
13582TIP3    H162237   4.876   0.704  15.847  0.7684 -1.6172  0.8041
13582TIP3    H262238   4.940   0.637  15.727 -0.1227  1.8460 -1.6875
13583TIP3   OH262239   3.747   4.343  10.945  0.5609  0.2601  0.3084
13583TIP3    H162240   3.808   4.416  10.956  1.5004 -0.3359 -0.8982
13583TIP3    H262241   3.794   4.267  10.979  1.1191 -0.4832 -2.0580
13584TIP3   OH262242   4.548   1.639  11.828  0.8012  0.1101 -0.2728
13584TIP3    H162243   4.526   1.606  11.741 -0.3653 -0.2342  0.1415
13584TIP3    H262244   4.488   1.712  11.841  1.2362  0.4031  0.0940
13585TIP3   OH262245   3.211   0.495   0.921 -0.1191  0.2489 -0.1269
13585TIP3    H162246   3.288   0.477   0.975  0.2040  2.1847  0.0835
13585TIP3    H262247   3.137   0.475   0.978  0.2142 -0.7800 -0.0431
13586TIP3   OH262248   2.682   3.088  12.748 -0.8274 -0.1261  0.0583
13586TIP3    H162249   2.684   3.144  12.670  1.3599 -0.0219  0.1433
13586TIP3    H262250   2.772   3.056  12.755 -1.7361 -2.5520  0.8091
13587TIP3   OH262251   0.938   6.145  17.236 -0.0534  0.2459  0.3398
13587TIP3    H162252   0.934   6.234  17.200  2.1398  0.5312  0.7120
13587TIP3    H262253   0.991   6.154  17.315  2.0095 -1.7521 -0.7803
13588TIP3   OH262254   1.020   0.531  13.964  0.0633 -0.1409  0.2687
13588TIP3    H162255   1.031   0.436  13.965  1.8342  0.0167 -0.7648
13588TIP3    H262256   1.088   0.563  14.023  2.2953  0.6610 -2.5858
13589TIP3   OH262257   4.727   3.444   0.547  0.6168  0.1021 -0.2287
13589TIP3    H162258   4.645   3.409   0.513 -1.0228  0.4670  3.1785
13589TIP3    H262259   4.771   3.368   0.585  0.4370  0.4672  0.6991
13590TIP3   OH262260   1.169   2.195  16.105  0.2801 -0.0680 -0.3301
13590TIP3    H162261   1.140   2.106  16.124 -0.3721  0.1216 -0.4362
13590TIP3    H262262   1.094   2.250  16.125  1.3095  0.6705  1.5966
13591TIP3   OH262263   2.382   2.551  11.386 -0.1731  0.2123  0.0209
13591TIP3    H162264   2.378   2.455  11.381  1.0583  0.1482 -0.0035
13591TIP3    H262265   2.429   2.577  11.306  0.5079  0.7445  0.5861
13592TIP3   OH262266   2.484   5.475  14.254 -0.1399  0.2450 -0.0570
13592TIP3    H162267   2.394   5.508  14.251  0.2581  1.2806 -0.7062
13592TIP3    H262268   2.484   5.413  14.327 -1.1347  0.9775  0.5780
13593TIP3   OH262269   5.978   2.959  15.273  0.2690  0.0398 -0.3654
13593TIP3    H162270   6.065   2.960  15.232  1.1738 -0.2861  1.4877
13593TIP3    H262271   5.917   2.961  15.200  1.8409 -1.2492 -1.7641
13594TIP3   OH262272   4.852   3.519   4.756  0.1295 -0.3188 -0.1454
13594TIP3    H162273   4.931   3.469   4.776  1.0592  0.9699 -0.5124
13594TIP3    H262274   4.867   3.605   4.796 -0.2506  0.5633 -1.8714
13595TIP3   OH262275   0.411   3.539  14.610 -0.2102 -0.5646 -0.4079
13595TIP3    H162276   0.466   3.497  14.543 -0.5565 -1.1428 -0.3358
13595TIP3    H262277   0.459   3.618  14.634  0.6029 -1.0758 -0.3267
13596TIP3   OH262278   1.710   1.352  15.312 -0.3155 -0.6238  0.1228
13596TIP3    H162279   1.755   1.297  15.376  2.8291  1.2531 -0.3515
13596TIP3    H262280   1.719   1.441  15.347  2.0922  0.5392 -3.1453
13597TIP3   OH262281   0.377   0.370  15.686  0.3065  0.5553  0.3213
13597TIP3    H162282   0.386   0.308  15.758 -0.0808  3.3926  2.9278
13597TIP3    H262283   0.433   0.444  15.710 -2.0418  2.8184 -0.8128
13598TIP3   OH262284   5.865   5.909  11.671 -0.3763  0.3155  0.0476
13598TIP3    H162285   5.857   5.933  11.764  0.2775 -1.4565  0.5813
13598TIP3    H262286   5.949   5.865  11.665 -0.7241 -0.1892 -1.2628
13599TIP3   OH262287   3.702   3.151  17.146 -0.1461  0.3506 -0.0213
13599TIP3    H162288   3.693   3.182  17.236 -3.8345  2.1180 -0.8970
13599TIP3    H262289   3.711   3.231  17.095  1.0392 -0.6009 -1.3333
13600TIP3   OH262290   2.324   1.765  15.974  0.2469 -0.5571 -0.1551
13600TIP3    H162291   2.360   1.685  16.010  1.7545 -0.4484 -1.3556
13600TIP3    H262292   2.397   1.806  15.927 -0.5857  1.3249  0.1175
13601TIP3   OH262293   6.786   2.819   4.664  0.2818  0.6041 -0.1524
13601TIP3    H162294   6.726   2.890   4.688  0.7937  1.0321 -0.0969
13601TIP3    H262295   6.784   2.760   4.739 -1.0290 -0.0453 -0.6876
13602TIP3   OH262296   5.665   3.911   1.731 -0.2458  0.3462 -0.2560
13602TIP3    H162297   5.699   3.873   1.650  0.0116  1.1429 -0.5213
13602TIP3    H262298   5.625   3.837   1.777 -2.1751  0.2526 -2.0167
13603TIP3   OH262299   1.891   2.743  10.781 -0.0895  0.0022 -0.5467
13603TIP3    H162300   1.898   2.766  10.688 -1.3652  1.8874 -0.1904
13603TIP3    H262301   1.841   2.814  10.820  0.8374 -0.5372  1.7028
13604TIP3   OH262302   1.314   1.868  15.567  0.2756 -0.7479 -0.0804
13604TIP3    H162303   1.235   1.910  15.534  0.1161 -0.8756  0.1357
13604TIP3    H262304   1.284   1.781  15.596  0.1856 -0.1991  1.4979
13605TIP3   OH262305   3.787   5.725   5.630 -0.1225  0.5902  0.2611
13605TIP3    H162306   3.825   5.790   5.689 -0.4671  1.9576 -0.9763
13605TIP3    H262307   3.697   5.715   5.660  0.2503 -0.1294  1.1294
13606TIP3   OH262308   1.197   3.849  15.629 -0.4615 -0.2607  0.1929
13606TIP3    H162309   1.291   3.846  15.643 -0.1011 -0.4704 -2.0411
13606TIP3    H262310   1.170   3.757  15.626 -0.9797 -0.1955  2.1615
13607TIP3   OH262311   6.103   5.439  13.711  0.1463 -0.5507  0.3074
13607TIP3    H162312   6.015   5.406  13.693  0.4014 -1.6973  1.1478
13607TIP3    H262313   6.157   5.361  13.719  0.9867  0.1065  1.1259
13608TIP3   OH262314   1.378   0.168  13.224  0.1207  0.0363 -0.2255
13608TIP3    H162315   1.468   0.191  13.250  0.6070  0.6119 -2.2804
13608TIP3    H262316   1.347   0.245  13.176 -0.6128 -1.0575 -1.5421
13609TIP3   OH262317   3.240   2.316   5.936 -0.3388 -0.1690  0.2079
13609TIP3    H162318   3.166   2.258   5.953 -0.9552  0.7950  0.8505
13609TIP3    H262319   3.202   2.404   5.934  0.3623  0.1307 -2.0596
13610TIP3   OH262320   2.804   6.416  10.865 -0.1912  0.0300  0.4941
13610TIP3    H162321   2.865   6.423  10.938 -1.0543  0.5769  1.1726
13610TIP3    H262322   2.827   6.489  10.807 -0.5764  0.5924  1.0418
13611TIP3   OH262323   5.797   0.117  16.747  0.4766  0.3111  0.0513
13611TIP3    H162324   5.874   0.063  16.734  0.2078  0.1464 -0.8884
13611TIP3    H262325   5.726   0.054  16.761  0.1163  0.4043 -1.2978
13612TIP3   OH262326   6.426   3.523  10.594  0.5573 -0.4700 -0.2811
13612TIP3    H162327   6.443   3.606  10.549 -2.7743 -0.7806 -2.2627
13612TIP3    H262328   6.449   3.456  10.530 -1.1030 -0.9757 -0.3649
13613TIP3   OH262329   2.290   3.037  11.758 -0.4233 -0.2744 -0.0667
13613TIP3    H162330   2.367   3.017  11.810 -0.9746 -1.6130  0.2665
13613TIP3    H262331   2.303   2.990  11.676  0.2272  1.4566 -0.9860
13614TIP3   OH262332   6.058   4.777   2.538  1.0935  0.0662 -0.8101
13614TIP3    H162333   6.037   4.866   2.565 -2.0206 -1.2855  1.5003
13614TIP3    H262334   6.010   4.764   2.457  0.9373  0.2588 -0.7502
13615TIP3   OH262335   1.004   6.059  14.873  0.2802 -0.2160  0.0891
13615TIP3    H162336   0.926   6.027  14.827 -0.4832  1.1571  0.4106
13615TIP3    H262337   1.062   6.090  14.803  0.1818 -0.4257 -0.0897
13616TIP3   OH262338   1.339   1.394   0.310 -0.4259 -0.0633 -0.2263
13616TIP3    H162339   1.299   1.412   0.395  1.8716 -0.8121  1.0784
13616TIP3    H262340   1.328   1.299   0.298 -0.4882 -0.0079 -0.6283
13617TIP3   OH262341   2.235   2.795   2.328 -0.7870  0.5231  0.2309
13617TIP3    H162342   2.255   2.723   2.267 -0.7731 -0.2487  1.1318
13617TIP3    H262343   2.256   2.874   2.278  1.7706 -0.1499  0.1234
13618TIP3   OH262344   3.652   2.285  11.460  0.0646  0.4128  0.3676
13618TIP3    H162345   3.647   2.379  11.443 -0.6474  0.1935 -0.7054
13618TIP3    H262346   3.579   2.248  11.410  1.1095 -0.8470 -0.2356
13619TIP3   OH262347   3.080   4.795  14.348  0.2094  0.4302 -0.2063
13619TIP3    H162348   3.110   4.714  14.306 -0.5102  0.7188 -1.2725
13619TIP3    H262349   3.154   4.821  14.403  0.4798 -0.9120  0.0892
13620TIP3   OH262350   4.405   1.126   5.156  0.3115  0.3804  0.0724
13620TIP3    H162351   4.368   1.083   5.232 -0.1469 -0.4202 -0.5873
13620TIP3    H262352   4.475   1.067   5.127 -0.6137 -0.1627 -1.1059
13621TIP3   OH262353   2.762   5.411   1.801  0.3109  0.2068 -0.1633
13621TIP3    H162354   2.857   5.416   1.812  0.2776  1.7924 -0.4534
13621TIP3    H262355   2.745   5.461   1.722 -0.9032  1.0453  0.6245
13622TIP3   OH262356   4.642   1.726   0.465  0.1422 -0.4354 -0.2587
13622TIP3    H162357   4.638   1.749   0.558  0.1888 -2.0948  0.1723
13622TIP3    H262358   4.674   1.635   0.465  1.2424 -0.0622 -1.9421
13623TIP3   OH262359   1.690   3.860  16.541 -0.0187  0.9029 -0.8787
13623TIP3    H162360   1.737   3.821  16.615  0.0226  2.5601 -0.0203
13623TIP3    H262361   1.749   3.849  16.466  0.8053  1.0551 -0.2503
13624TIP3   OH262362   2.650   5.402  12.258 -0.3240  0.1820  0.5739
13624TIP3    H162363   2.684   5.319  12.225  3.1014  1.2066  1.3503
13624TIP3    H262364   2.624   5.451  12.180 -1.8982 -1.3771  0.0874
13625TIP3   OH262365   6.087   0.854  13.388 -0.7097 -0.4369  0.4198
13625TIP3    H162366   6.124   0.847  13.476 -0.0225 -2.3239  0.0094
13625TIP3    H262367   6.077   0.948  13.373  0.7286 -0.0391  1.8639
13626TIP3   OH262368   5.979   0.806   1.039 -0.2019  0.3453  0.3260
13626TIP3    H162369   6.015   0.757   0.965  0.0261 -0.4808  0.9882
13626TIP3    H262370   6.055   0.835   1.089 -0.3661  0.6894  0.3805
13627TIP3   OH262371   5.310   2.580  15.415  0.2054  0.1666 -0.2303
13627TIP3    H162372   5.307   2.650  15.480 -0.9159  0.4123 -0.5436
13627TIP3    H262373   5.402   2.576  15.389  0.2445  1.6752 -0.3712
13628TIP3   OH262374   0.661   0.749  12.833 -0.4947  0.1074  0.2814
13628TIP3    H162375   0.734   0.719  12.779 -0.4160  0.7312  0.0300
13628TIP3    H262376   0.587   0.754  12.773 -0.5855  0.0901  0.3914
13629TIP3   OH262377   0.284   5.709   3.155  0.5393 -0.9379  0.1908
13629TIP3    H162378   0.197   5.675   3.175  1.4966 -3.1264  0.8210
13629TIP3    H262379   0.307   5.668   3.071  0.6254  0.2752 -0.3756
13630TIP3   OH262380   0.570   3.784   4.208  0.6500  0.0228 -0.1896
13630TIP3    H162381   0.647   3.840   4.210  0.3425  0.6048 -2.6581
13630TIP3    H262382   0.563   3.749   4.297  1.8509  2.5234  0.9386
13631TIP3   OH262383   4.119   5.606  13.455 -0.2563  0.2116 -0.1654
13631TIP3    H162384   4.115   5.682  13.513  1.7019 -0.9581  1.5569
13631TIP3    H262385   4.034   5.562  13.467 -0.9455  1.5028 -0.3076
13632TIP3   OH262386   0.506   0.682  16.496 -0.4593  0.1846  0.2115
13632TIP3    H162387   0.473   0.620  16.431 -0.5889 -0.3222  0.7578
13632TIP3    H262388   0.478   0.768  16.463 -1.4099 -0.1502  0.1242
13633TIP3   OH262389   2.132   3.201  15.175 -0.0099  0.1735 -0.0746
13633TIP3    H162390   2.121   3.110  15.203  1.6962  0.2233  0.7901
13633TIP3    H262391   2.169   3.195  15.087  1.3444  0.0239  0.4975
13634TIP3   OH262392   0.840   1.240   0.193  0.4003 -0.3494 -0.1265
13634TIP3    H162393   0.915   1.200   0.237  0.5616 -0.1087 -0.1812
13634TIP3    H262394   0.764   1.189   0.223  0.4053  0.3485  1.1097
13635TIP3   OH262395   5.690   0.159  14.543  0.5207  0.3954 -0.0560
13635TIP3    H162396   5.642   0.218  14.484 -0.0065 -0.6356 -0.6779
13635TIP3    H262397   5.722   0.089  14.486  2.9591  1.1697  0.3365
13636TIP3   OH262398   4.171   6.702  13.935 -0.8852 -0.0350  0.0293
13636TIP3    H162399   4.152   6.795  13.946 -2.5527 -0.3363 -0.1984
13636TIP3    H262400   4.265   6.695  13.951 -0.6225  1.7850 -0.5883
13637TIP3   OH262401   5.536   1.830   6.319  0.7145  0.6065  0.5178
13637TIP3    H162402   5.568   1.915   6.349  1.1733  0.1321  1.3939
13637TIP3    H262403   5.446   1.846   6.292  1.3805  1.7521 -1.0496
13638TIP3   OH262404   6.532   2.155  13.108  0.3440 -0.4056  0.1539
13638TIP3    H162405   6.612   2.204  13.090  0.8214 -0.9530  0.7868
13638TIP3    H262406   6.467   2.193  13.049  1.3300 -0.6884 -1.1216
13639TIP3   OH262407   1.995   3.469   4.508  0.0867 -0.1352 -0.3035
13639TIP3    H162408   2.011   3.554   4.548 -2.9521  0.4803 -0.3070
13639TIP3    H262409   2.042   3.472   4.425 -0.1265  1.5860 -0.3643
13640TIP3   OH262410   3.026   5.316  16.070 -0.1879  0.2134 -0.4557
13640TIP3    H162411   2.934   5.342  16.074  0.0981  1.6970 -2.3748
13640TIP3    H262412   3.025   5.233  16.023 -0.5534  0.3824 -0.7556
13641TIP3   OH262413   0.556   4.592   6.189  0.0724 -0.0996 -0.4129
13641TIP3    H162414   0.467   4.626   6.199 -0.3929 -1.8841  1.8665
13641TIP3    H262415   0.549   4.527   6.120 -0.6410 -1.0082  0.5003
13642TIP3   OH262416   6.301   5.340  13.485 -0.4627 -0.1172  0.2726
13642TIP3    H162417   6.248   5.419  13.490 -1.7943 -0.9450 -0.4531
13642TIP3    H262418   6.355   5.352  13.407 -1.9243 -0.6669 -0.8472
13643TIP3   OH262419   2.573   0.691   5.909 -0.0177  0.0321  0.0614
13643TIP3    H162420   2.658   0.732   5.925  0.2780 -0.1748 -0.9430
13643TIP3    H262421   2.558   0.704   5.815 -0.3216 -1.4104 -0.0934
13644TIP3   OH262422   2.557   2.211  12.649  0.4362  0.4469  0.3328
13644TIP3    H162423   2.561   2.296  12.692 -0.4160  0.0943  1.1241
13644TIP3    H262424   2.463   2.195  12.636  0.5597 -0.5968  0.6577
13645TIP3   OH262425   5.435   1.909   5.286 -0.0726 -0.5011  0.2257
13645TIP3    H162426   5.457   1.905   5.193 -0.0189 -0.0234  0.2160
13645TIP3    H262427   5.365   1.844   5.297 -1.0692  0.4451 -0.4288
13646TIP3   OH262428   1.877   2.536   1.090  0.0836 -0.0940  0.3643
13646TIP3    H162429   1.789   2.566   1.114 -0.9034 -2.5917  0.0375
13646TIP3    H262430   1.897   2.466   1.151  0.7006 -1.3949 -1.2693
13647TIP3   OH262431   2.211   5.946   0.905  0.0435 -0.5448 -0.3497
13647TIP3    H162432   2.278   5.907   0.849 -1.9421 -1.6112 -2.0646
13647TIP3    H262433   2.129   5.931   0.858 -1.4494  0.4554  1.8455
13648TIP3   OH262434   6.478   2.122  15.785  0.0086  0.6466  0.3542
13648TIP3    H162435   6.499   2.030  15.773  2.4644  1.0680  1.2382
13648TIP3    H262436   6.387   2.122  15.815 -0.8067 -1.3248 -1.9416
13649TIP3   OH262437   0.028   0.940   6.206 -0.4340 -0.1223  0.5546
13649TIP3    H162438   0.075   0.883   6.145 -1.1927 -0.0140 -0.1453
13649TIP3    H262439   0.093   0.963   6.272 -0.0890 -1.7306  0.8111
13650TIP3   OH262440   0.957   1.273  11.214 -0.1753 -0.5934 -0.2294
13650TIP3    H162441   0.897   1.345  11.235 -1.1791 -1.1350 -1.1838
13650TIP3    H262442   1.041   1.316  11.198 -0.1944  0.1389  1.5457
13651TIP3   OH262443   4.949   1.417  15.050  0.2484  0.4522 -0.1073
13651TIP3    H162444   5.032   1.463  15.039  0.1498  0.6469 -0.0457
13651TIP3    H262445   4.905   1.427  14.965  0.9958 -1.0714 -0.6830
13652TIP3   OH262446   0.207   2.661   5.072 -0.1555 -0.6675  0.0175
13652TIP3    H162447   0.208   2.745   5.117  1.2081 -0.8750  0.4072
13652TIP3    H262448   0.236   2.598   5.138  0.7162 -1.1520 -0.8082
13653TIP3   OH262449   4.048   3.213   2.767 -0.1558 -0.5606  0.0233
13653TIP3    H162450   4.025   3.306   2.768  2.8709  0.2321  0.8762
13653TIP3    H262451   4.037   3.187   2.676 -1.0061  0.6140 -0.2355
13654TIP3   OH262452   6.155   5.190  14.388 -0.2724 -0.1000 -0.5644
13654TIP3    H162453   6.247   5.182  14.412 -0.5914  0.2307  0.8497
13654TIP3    H262454   6.153   5.257  14.320  0.3827  1.0366  0.5013
13655TIP3   OH262455   3.438   4.372   2.606 -0.4517 -0.9728 -0.4118
13655TIP3    H162456   3.433   4.301   2.670  0.3113 -1.2903 -0.7113
13655TIP3    H262457   3.529   4.374   2.579 -0.5486 -0.1204 -0.6820
13656TIP3   OH262458   3.687   0.868   1.596 -0.1822  0.0765  0.2923
13656TIP3    H162459   3.672   0.892   1.687 -0.9328 -0.9122  0.4361
13656TIP3    H262460   3.625   0.923   1.546 -0.0340  0.3483  0.4079
13657TIP3   OH262461   1.946   0.927  12.553 -0.6325  0.4970 -0.0076
13657TIP3    H162462   1.975   0.860  12.491 -0.5296  1.3632 -0.9084
13657TIP3    H262463   1.998   0.911  12.631  1.8869  1.6592 -1.3806
13658TIP3   OH262464   1.838   4.757  13.966 -0.4212  0.4411 -0.2315
13658TIP3    H162465   1.895   4.718  14.033 -0.1195 -1.1264 -1.3792
13658TIP3    H262466   1.750   4.732  13.993 -0.2423 -0.9048 -0.8588
13659TIP3   OH262467   5.139   3.184  16.617  0.1844 -0.2584  0.4165
13659TIP3    H162468   5.107   3.178  16.707 -2.1494 -1.4319 -0.4427
13659TIP3    H262469   5.203   3.113  16.610  1.3341  0.6446  1.4943
13660TIP3   OH262470   2.895   4.417  11.937 -0.1833 -0.5683 -0.2334
13660TIP3    H162471   2.809   4.376  11.944  0.1566 -1.5250 -1.5459
13660TIP3    H262472   2.955   4.357  11.981 -0.5326  1.3859  3.1419
13661TIP3   OH262473   3.226   3.291   5.912  0.1939 -0.2036  0.2369
13661TIP3    H162474   3.268   3.221   5.862 -0.1635 -0.1843 -0.0989
13661TIP3    H262475   3.134   3.287   5.886  0.2420  0.6461 -0.0902
13662TIP3   OH262476   0.763   2.063  13.656  0.1855  0.5444 -0.0501
13662TIP3    H162477   0.781   2.061  13.562  1.7087  0.4077  0.2259
13662TIP3    H262478   0.700   1.993  13.670  0.7960 -0.1773 -0.8209
13663TIP3   OH262479   0.672   1.415  12.118  0.1636  0.6465 -0.0947
13663TIP3    H162480   0.605   1.472  12.079 -0.1724 -0.8093 -1.6618
13663TIP3    H262481   0.637   1.327  12.109  0.7505  0.1486  2.2061
13664TIP3   OH262482   3.293   5.890  11.398 -0.2975 -0.0720 -0.4720
13664TIP3    H162483   3.367   5.835  11.422 -0.6999 -0.6773 -0.6117
13664TIP3    H262484   3.218   5.830  11.395 -0.7125  0.4560 -0.7539
13665TIP3   OH262485   3.363   4.839  15.000 -0.2337 -0.3911 -0.1312
13665TIP3    H162486   3.433   4.815  14.940  0.1848 -1.3619  0.7297
13665TIP3    H262487   3.394   4.810  15.086 -0.3892  1.8357  0.7195
13666TIP3   OH262488   1.147   5.179  15.517  0.1982 -0.2065  0.5892
13666TIP3    H162489   1.204   5.114  15.556  0.6502 -0.6030 -0.7123
13666TIP3    H262490   1.109   5.225  15.591  0.6571 -1.2749  1.4984
13667TIP3   OH262491   4.541   2.537   3.167  0.5580  1.1136 -0.1418
13667TIP3    H162492   4.500   2.462   3.124  0.4476  1.9679 -1.5613
13667TIP3    H262493   4.621   2.502   3.205 -0.0439  0.0445  0.1596
13668TIP3   OH262494   2.181   3.958   4.639  0.2719  0.0715 -0.1524
13668TIP3    H162495   2.155   4.002   4.558  0.0642 -0.2238 -0.2484
13668TIP3    H262496   2.119   3.988   4.705  0.1984  0.0078 -0.1929
13669TIP3   OH262497   3.507   2.670  11.314  0.7828  0.1145  0.8551
13669TIP3    H162498   3.582   2.611  11.313  1.6412  1.1749  0.2320
13669TIP3    H262499   3.539   2.748  11.361  0.2378  0.7574  0.1784
13670TIP3   OH262500   4.189   0.856  12.324 -0.4751 -0.0026  0.1981
13670TIP3    H162501   4.280   0.883  12.310 -0.5149  0.9929  1.7572
13670TIP3    H262502   4.137   0.921  12.277 -0.4848  1.2846  1.9629
13671TIP3   OH262503   0.597   0.222   3.277 -0.9175 -0.2199  0.4338
13671TIP3    H162504   0.633   0.310   3.288 -0.4043 -0.4172  0.3830
13671TIP3    H262505   0.567   0.220   3.186  0.8233 -0.7066 -0.1630
13672TIP3   OH262506   4.622   5.605   3.971  0.5045  0.1111  0.4453
13672TIP3    H162507   4.708   5.646   3.958  0.8322 -0.7815 -0.2453
13672TIP3    H262508   4.575   5.622   3.889  0.5288 -0.6146  0.2806
13673TIP3   OH262509   6.483   5.223   3.459 -0.4011  0.1866 -0.3629
13673TIP3    H162510   6.497   5.198   3.550 -0.6330  1.9996  0.2019
13673TIP3    H262511   6.549   5.175   3.409 -0.4076 -0.9683  0.7300
13674TIP3   OH262512   5.737   5.131   2.886  0.2742  0.0093 -0.4348
13674TIP3    H162513   5.727   5.047   2.931 -0.0390 -0.4820 -1.4185
13674TIP3    H262514   5.754   5.108   2.795 -2.2461  1.0409 -1.2039
13675TIP3   OH262515   2.779   4.204  12.093 -0.2991 -0.2917 -0.1815
13675TIP3    H162516   2.816   4.124  12.131  1.4828  0.3218 -0.5718
13675TIP3    H262517   2.731   4.244  12.166  0.2528 -0.8430  0.4985
13676TIP3   OH262518   4.959   1.580  12.251 -0.3582 -0.0015 -0.5251
13676TIP3    H162519   5.054   1.579  12.263 -0.0986 -2.7252 -2.3430
13676TIP3    H262520   4.923   1.544  12.332  0.1795  0.4653 -0.0784
13677TIP3   OH262521   3.205   4.228   0.671 -0.0568 -0.5643  0.2716
13677TIP3    H162522   3.288   4.262   0.638 -0.3763  0.5143  0.5505
13677TIP3    H262523   3.204   4.136   0.644  2.6223 -1.4618  2.9432
13678TIP3   OH262524   4.946   4.761   1.296 -0.2638  0.0637 -0.2887
13678TIP3    H162525   4.942   4.777   1.201  0.2292  3.2381  0.1651
13678TIP3    H262526   4.861   4.788   1.329  1.0015  3.0199  0.6800
13679TIP3   OH262527   6.397   1.632  12.698  0.1017  0.0695  0.2265
13679TIP3    H162528   6.329   1.655  12.635 -0.6379  0.4139  1.1342
13679TIP3    H262529   6.358   1.563  12.752  1.2602 -1.2568 -0.6150
13680TIP3   OH262530   4.048   4.942   3.103 -0.3016 -0.5901  0.2374
13680TIP3    H162531   4.053   5.023   3.051 -0.7285  1.0181  2.5856
13680TIP3    H262532   3.955   4.933   3.123 -0.3229 -1.9909 -0.5042
13681TIP3   OH262533   3.342   1.015   1.385  0.0628 -0.2165 -0.2121
13681TIP3    H162534   3.260   1.049   1.420 -1.0045 -2.3134 -0.6069
13681TIP3    H262535   3.344   0.923   1.411  4.1623  0.6757  3.1853
13682TIP3   OH262536   1.252   0.193  12.900  0.7787  0.0054 -0.2043
13682TIP3    H162537   1.222   0.244  12.825 -1.1304 -0.9298 -0.1227
13682TIP3    H262538   1.296   0.256  12.956  0.4246  1.1242 -1.1605
13683TIP3   OH262539   2.092   2.845   3.728  0.3259  0.3118  0.4291
13683TIP3    H162540   2.027   2.894   3.778  0.6145  1.9053 -0.7155
13683TIP3    H262541   2.059   2.846   3.638  2.0683  1.4454 -0.2346
13684TIP3   OH262542   6.389   4.847  13.116  0.3727 -0.2239 -0.0408
13684TIP3    H162543   6.357   4.892  13.038 -0.5605 -3.2163 -1.4670
13684TIP3    H262544   6.484   4.842  13.104  0.4782  1.3037  0.1164
13685TIP3   OH262545   1.323   3.098  12.491 -0.7757 -0.4326 -0.2289
13685TIP3    H162546   1.255   3.121  12.554  1.0474 -1.2703  2.0999
13685TIP3    H262547   1.280   3.104  12.406 -2.8750  2.1918  0.9672
13686TIP3   OH262548   0.407   1.133  11.218 -0.1838  0.0740  0.0614
13686TIP3    H162549   0.477   1.155  11.156 -1.2831  1.0979 -0.8513
13686TIP3    H262550   0.445   1.147  11.304  0.7604  0.5483 -0.4302
13687TIP3   OH262551   2.367   0.250  11.919 -0.5521 -0.3990 -0.6563
13687TIP3    H162552   2.348   0.344  11.915 -0.4264 -0.1038  3.2116
13687TIP3    H262553   2.442   0.238  11.861  1.0655  2.4001  0.7534
13688TIP3   OH262554   3.106   6.122  14.832  0.3029  0.4507 -0.2060
13688TIP3    H162555   3.069   6.206  14.803 -0.9580 -0.2887 -0.8027
13688TIP3    H262556   3.176   6.104  14.769  0.5972  1.0696 -0.0593
13689TIP3   OH262557   6.165   3.837  15.784 -0.0430 -0.3956  0.8728
13689TIP3    H162558   6.071   3.859  15.782 -0.1648 -0.9201  0.7211
13689TIP3    H262559   6.172   3.772  15.854  0.0200 -1.2109  0.1127
13690TIP3   OH262560   6.583   0.021   0.286  0.2265 -0.5822  0.2713
13690TIP3    H162561   6.638  -0.050   0.253 -0.1257 -0.2904 -0.9907
13690TIP3    H262562   6.603   0.095   0.229 -1.1586 -0.3585  0.0483
13691TIP3   OH262563   4.600   5.757  15.511  0.3613  0.7149 -0.5589
13691TIP3    H162564   4.554   5.739  15.593 -3.2778  2.0340 -2.1952
13691TIP3    H262565   4.616   5.671  15.472  0.9513  0.1513  0.8973
13692TIP3   OH262566   6.595   1.311  12.649  0.1801  0.0679 -0.1183
13692TIP3    H162567   6.615   1.356  12.731  0.5856 -1.6869  0.7650
13692TIP3    H262568   6.680   1.290  12.611 -0.0063  0.5489 -0.8155
13693TIP3   OH262569   3.830   5.333  10.692  0.1757  0.6128  0.5054
13693TIP3    H162570   3.831   5.429  10.687  0.8676  0.6156  0.6763
13693TIP3    H262571   3.869   5.313  10.777 -0.6066  0.1961  0.7772
13694TIP3   OH262572   6.297   1.794   3.826  0.1806 -0.0392  0.3547
13694TIP3    H162573   6.300   1.785   3.921 -0.3956  0.2981  0.4066
13694TIP3    H262574   6.312   1.706   3.793 -0.1317 -0.2481  0.7692
13695TIP3   OH262575   2.374   4.630   6.794 -0.5384 -0.1980 -0.6925
13695TIP3    H162576   2.337   4.672   6.872 -0.1446  0.0653 -0.6436
13695TIP3    H262577   2.339   4.541   6.795 -0.3724 -0.2577 -0.1055
13696TIP3   OH262578   1.368   3.439  14.886 -0.7610 -0.8250 -0.2164
13696TIP3    H162579   1.415   3.466  14.966 -0.0530 -0.1458 -0.8527
13696TIP3    H262580   1.276   3.443  14.910 -0.7451  3.0346 -0.5156
13697TIP3   OH262581   5.905   6.793   5.730  0.0564  0.5535 -0.3497
13697TIP3    H162582   5.812   6.788   5.710 -0.0063  0.5005 -0.0553
13697TIP3    H262583   5.918   6.726   5.797  0.4107  0.2071 -0.7625
13698TIP3   OH262584   2.974   0.716  15.271  0.1696  0.6102  0.1769
13698TIP3    H162585   2.914   0.730  15.197 -0.2688 -0.9655  0.2166
13698TIP3    H262586   3.034   0.791  15.267  0.2840  0.4516 -1.9068
13699TIP3   OH262587   6.657   2.562  11.087  0.7317 -0.3153 -0.2246
13699TIP3    H162588   6.582   2.557  11.028  1.8345  0.1531 -1.6721
13699TIP3    H262589   6.720   2.618  11.042  2.1013 -0.9941  0.8181
13700TIP3   OH262590   2.728   0.569   3.911  0.6349 -0.0387 -0.2359
13700TIP3    H162591   2.793   0.636   3.890 -0.5632  0.5336 -2.2488
13700TIP3    H262592   2.777   0.486   3.908  0.9408  0.2039 -3.5414
13701TIP3   OH262593   3.032   4.436  14.029 -0.4752 -0.2899 -0.4009
13701TIP3    H162594   2.941   4.415  14.010 -0.0160 -1.4151 -1.4332
13701TIP3    H262595   3.069   4.465  13.945  0.5697 -1.5562 -0.3990
13702TIP3   OH262596   3.233   1.384   3.609 -0.4627  0.2332  0.3999
13702TIP3    H162597   3.199   1.443   3.676  0.4516  1.1242  0.0942
13702TIP3    H262598   3.156   1.357   3.559 -0.9321  0.8945  0.7614
13703TIP3   OH262599   6.438   2.012   0.583 -0.7030  0.1463  0.1979
13703TIP3    H162600   6.376   1.939   0.587  1.1531 -1.4820 -0.0373
13703TIP3    H262601   6.508   1.981   0.526  2.1497  0.4884  3.2943
13704TIP3   OH262602   5.884   6.622  13.781 -0.0182  0.5345  0.3366
13704TIP3    H162603   5.802   6.593  13.742  0.7952 -1.4757  0.0132
13704TIP3    H262604   5.910   6.550  13.839  2.1571  0.5460 -0.5624
13705TIP3   OH262605   3.759   0.921   1.281 -0.3301  0.8552  0.8845
13705TIP3    H162606   3.791   1.010   1.290 -0.4713  0.9947 -0.0284
13705TIP3    H262607   3.674   0.930   1.237  0.1025  0.1952 -0.0834
13706TIP3   OH262608   4.793   5.392  17.107 -0.5398 -0.2220  0.6218
13706TIP3    H162609   4.723   5.451  17.079  0.1068  0.4342  0.3914
13706TIP3    H262610   4.824   5.429  17.189  0.4250  0.2309  0.0628
13707TIP3   OH262611   1.708   4.100  14.598 -0.7504 -0.0067  0.1119
13707TIP3    H162612   1.752   4.018  14.577  1.4751  0.7137  1.8637
13707TIP3    H262613   1.730   4.159  14.526 -2.2800 -0.8570 -1.1041
13708TIP3   OH262614   6.686   5.893   4.648  0.8975  0.2432  0.0031
13708TIP3    H162615   6.704   5.986   4.661  1.1496  0.1998 -0.0182
13708TIP3    H262616   6.594   5.889   4.625  0.4676  0.3480  1.5934
13709TIP3   OH262617   4.964   1.890   3.734 -0.1938  0.2293 -0.0076
13709TIP3    H162618   4.882   1.847   3.757 -0.1034  0.6745  1.2092
13709TIP3    H262619   5.002   1.835   3.666 -0.6758 -0.9359  0.6511
13710TIP3   OH262620   3.951   1.823  15.770  0.1710 -0.0331 -0.9579
13710TIP3    H162621   3.871   1.778  15.798  1.0057 -0.3894  0.9438
13710TIP3    H262622   4.002   1.755  15.726  0.4427 -0.4074 -0.0810
13711TIP3   OH262623   2.743   2.752  16.704 -0.1854  0.2769 -0.2478
13711TIP3    H162624   2.697   2.669  16.698  1.2568 -0.3971 -2.2160
13711TIP3    H262625   2.680   2.817  16.673 -0.7528 -0.2719 -0.2460
13712TIP3   OH262626   4.632   4.889   5.456 -0.1256  0.4089 -0.3499
13712TIP3    H162627   4.607   4.919   5.543 -3.1364  1.5778 -1.5714
13712TIP3    H262628   4.694   4.817   5.473  0.5476  1.6099  2.6912
13713TIP3   OH262629   0.476   4.353  14.965  0.4578  0.3347 -1.1466
13713TIP3    H162630   0.509   4.419  15.026  0.7989  0.3609 -1.3561
13713TIP3    H262631   0.382   4.347  14.984  0.4237  0.8921 -1.1376
13714TIP3   OH262632   5.831   1.210  14.366 -0.2706 -0.0649  0.1659
13714TIP3    H162633   5.777   1.281  14.331  0.2012 -0.6762 -1.8204
13714TIP3    H262634   5.805   1.133  14.316 -0.2183 -1.1624  1.7697
13715TIP3   OH262635   3.904   2.755   1.590  0.1842  0.2938  0.0682
13715TIP3    H162636   3.903   2.746   1.494 -0.3276  0.8181  0.0228
13715TIP3    H262637   3.899   2.850   1.605  1.5373  0.2891  0.5955
13716TIP3   OH262638   1.779   4.992   3.624  0.1449  0.1773  0.2770
13716TIP3    H162639   1.700   4.943   3.644  0.2444  0.7396  2.2180
13716TIP3    H262640   1.754   5.052   3.554 -0.7634 -0.5772 -0.0504
13717TIP3   OH262641   1.980   3.865   5.647 -0.3150 -0.3462  0.2181
13717TIP3    H162642   1.974   3.960   5.636 -1.6791 -0.1486  2.3592
13717TIP3    H262643   2.055   3.851   5.705 -0.3751 -0.5352  0.2530
13718TIP3   OH262644   6.417   6.007   1.105  0.5816 -0.6732 -0.4259
13718TIP3    H162645   6.418   5.933   1.044  0.1221 -0.1644 -1.0577
13718TIP3    H262646   6.504   6.045   1.100  0.2028  0.0546 -1.6202
13719TIP3   OH262647   6.356   5.932  12.789  0.0334  0.1358  0.6357
13719TIP3    H162648   6.341   5.998  12.857  2.2170 -1.7089  2.9763
13719TIP3    H262649   6.336   5.849  12.831  0.0994 -0.9353 -1.4129
13720TIP3   OH262650   4.974   0.173  16.559 -0.2658  0.0636 -0.4686
13720TIP3    H162651   4.957   0.184  16.652 -1.0317 -0.3699 -0.5562
13720TIP3    H262652   5.066   0.198  16.548 -0.3903  0.8572  0.2693
13721TIP3   OH262653   2.788   3.811   2.034 -0.4772  0.1042  0.4652
13721TIP3    H162654   2.729   3.828   1.960  0.2930  0.2350 -0.1232
13721TIP3    H262655   2.770   3.721   2.059  1.5983 -1.0719 -2.0412
13722TIP3   OH262656   3.175   3.733   0.779 -0.5206 -0.6730 -0.3662
13722TIP3    H162657   3.085   3.754   0.756 -0.3841 -0.7364 -0.9619
13722TIP3    H262658   3.168   3.671   0.851 -0.9431  1.1879  1.2516
13723TIP3   OH262659   6.102   5.458   2.528 -0.0224 -0.5355 -0.3700
13723TIP3    H162660   6.180   5.449   2.583 -0.0981 -0.0230 -0.1769
13723TIP3    H262661   6.033   5.415   2.577  0.5021 -2.4853 -1.3131
13724TIP3   OH262662   5.591   6.642  16.502 -0.3894  0.1789  0.5360
13724TIP3    H162663   5.629   6.646  16.590 -0.1892 -0.2763  0.4698
13724TIP3    H262664   5.503   6.608  16.515 -0.6026  0.7466  0.6284
13725TIP3   OH262665   2.047   0.579   4.536 -0.1273  0.3968 -0.6864
13725TIP3    H162666   2.016   0.596   4.447  0.6262  0.3684 -0.9520
13725TIP3    H262667   2.094   0.659   4.560  0.2756  0.1251 -0.5740
13726TIP3   OH262668   2.949   3.557   4.092 -0.1273 -0.0970 -0.3720
13726TIP3    H162669   2.974   3.633   4.039 -1.2825  1.0160  0.6314
13726TIP3    H262670   2.929   3.489   4.028 -0.2361  0.8249 -1.3365
13727TIP3   OH262671   0.835   1.705   3.491  0.2356 -0.0408 -0.3845
13727TIP3    H162672   0.776   1.632   3.477 -1.7298  1.2397  1.0427
13727TIP3    H262673   0.908   1.669   3.541 -0.9882 -0.9143  0.7882
13728TIP3   OH262674   4.393   3.577  13.561  0.0002  0.0042 -0.1475
13728TIP3    H162675   4.333   3.504  13.573 -1.2857  1.2300  1.1464
13728TIP3    H262676   4.343   3.643  13.513  1.2904 -0.1292 -1.7146
13729TIP3   OH262677   4.794   6.188  16.680  0.2440  0.2721 -0.0810
13729TIP3    H162678   4.844   6.150  16.751  0.5646 -3.2661 -2.0791
13729TIP3    H262679   4.705   6.155  16.693 -0.4521  2.3410  0.5429
13730TIP3   OH262680   0.259   5.353   2.683 -0.1303 -0.4842 -1.0928
13730TIP3    H162681   0.278   5.437   2.640  0.7575 -0.9370 -1.6024
13730TIP3    H262682   0.164   5.343   2.675 -0.3251  0.7475 -0.5112
13731TIP3   OH262683   5.506   0.071   3.060  0.2294 -0.7180  0.1473
13731TIP3    H162684   5.486   0.024   3.141 -0.7996 -1.0040 -0.2638
13731TIP3    H262685   5.444   0.035   2.995  1.0006 -0.4508 -0.7451
13732TIP3   OH262686   2.222   3.962   5.534  0.0314  0.3094  0.3750
13732TIP3    H162687   2.314   3.940   5.521 -0.7004 -1.8539 -1.3307
13732TIP3    H262688   2.198   3.918   5.616  0.6655  1.4847  1.2188
13733TIP3   OH262689   6.643   1.714   0.356  0.2444  0.4493  0.3300
13733TIP3    H162690   6.669   1.696   0.446 -0.6883 -1.2364  0.2810
13733TIP3    H262691   6.710   1.669   0.303  1.2454  2.0945  0.1478
13734TIP3   OH262692   4.929   4.437   1.054 -0.2633 -0.3993  0.1929
13734TIP3    H162693   4.871   4.449   1.129  0.2959  0.3882  0.4952
13734TIP3    H262694   4.886   4.368   1.003 -0.4162 -1.2892  1.4640
13735TIP3   OH262695   1.039   2.890   5.446  0.7268  0.0576  0.4807
13735TIP3    H162696   1.132   2.872   5.432  1.1629 -0.2497  3.3032
13735TIP3    H262697   1.000   2.804   5.461  0.4267  0.3457  1.4151
13736TIP3   OH262698   3.440   6.342   0.143  0.5479 -0.1190 -0.0008
13736TIP3    H162699   3.532   6.357   0.119  0.6515  0.8710  1.0089
13736TIP3    H262700   3.391   6.362   0.063  1.0109  1.6955  0.1661
13737TIP3   OH262701   5.175   3.325   0.144  0.4637 -0.2435 -0.2290
13737TIP3    H162702   5.142   3.403   0.101  2.4209  1.1361  0.6797
13737TIP3    H262703   5.107   3.259   0.131 -1.7014  1.9088 -0.0450
13738TIP3   OH262704   0.456   0.279  13.716  0.1980 -0.6300 -0.4276
13738TIP3    H162705   0.482   0.333  13.791 -0.6108 -0.6408 -0.1296
13738TIP3    H262706   0.473   0.334  13.640 -1.3581  0.3576 -0.0868
13739TIP3   OH262707   2.925   0.822  14.481 -0.6704 -0.4025 -0.8604
13739TIP3    H162708   2.964   0.777  14.406 -0.5323 -0.9716 -0.4516
13739TIP3    H262709   2.941   0.915  14.465  0.8724 -0.6372 -0.6781
13740TIP3   OH262710   2.539   4.378  13.529 -0.2403  0.0224  0.0528
13740TIP3    H162711   2.561   4.335  13.611 -0.3670  1.0671  0.6405
13740TIP3    H262712   2.494   4.459  13.555  0.2361  0.6461 -1.0202
13741TIP3   OH262713   3.065   1.345  17.116 -0.6466  0.5841  0.1041
13741TIP3    H162714   3.148   1.389  17.133 -0.4596  0.3592 -0.2090
13741TIP3    H262715   3.029   1.326  17.203  0.5006 -0.9379  0.2662
13742TIP3   OH262716   0.620   0.981   4.572 -0.0984 -0.0403 -0.1478
13742TIP3    H162717   0.602   1.058   4.625 -0.7392 -0.7579  0.6956
13742TIP3    H262718   0.592   0.907   4.627 -0.9681 -0.7777 -1.5583
13743TIP3   OH262719   2.646   2.250   2.256  0.1707 -0.1897  0.8130
13743TIP3    H162720   2.625   2.279   2.167 -1.0665  0.7920  1.4019
13743TIP3    H262721   2.695   2.324   2.294 -1.9746  0.6859  1.9430
13744TIP3   OH262722   0.398   1.033   5.195  0.4924  0.1424  0.6349
13744TIP3    H162723   0.357   1.118   5.181  0.3625  0.1136  0.8334
13744TIP3    H262724   0.449   1.018   5.116 -1.9480 -1.0050 -0.7730
13745TIP3   OH262725   6.006   0.146  12.127 -0.0621  0.3478 -0.7203
13745TIP3    H162726   6.047   0.158  12.212  0.8563  0.0387 -1.1166
13745TIP3    H262727   5.915   0.124  12.147  0.0867  0.5269  0.1668
13746TIP3   OH262728   3.619   5.711  13.053 -0.9235  0.0945 -0.0312
13746TIP3    H162729   3.562   5.651  13.100  0.0070 -0.9890 -0.2613
13746TIP3    H262730   3.696   5.720  13.110 -0.4046 -0.1212 -0.6936
13747TIP3   OH262731   1.630   0.657   0.710 -0.3837  0.2411 -0.0740
13747TIP3    H162732   1.602   0.740   0.749 -0.3944  0.9210 -1.4893
13747TIP3    H262733   1.650   0.600   0.785  2.6872  2.5437  0.9911
13748TIP3   OH262734   5.136   0.432   4.029 -0.0793 -0.6424  0.2174
13748TIP3    H162735   5.131   0.440   3.934  1.5089  1.3013  0.2702
13748TIP3    H262736   5.201   0.363   4.044 -2.3994 -2.9772 -0.0917
13749TIP3   OH262737   6.335   6.629   3.390  0.0473 -0.0231  0.3452
13749TIP3    H162738   6.374   6.702   3.437 -0.5568  1.4474 -1.3565
13749TIP3    H262739   6.405   6.564   3.381  1.2272  1.2979 -0.0402
13750TIP3   OH262740   1.067   4.188   2.969 -0.4318 -0.1701 -0.1978
13750TIP3    H162741   1.070   4.160   2.878  0.1801  0.6517 -0.4359
13750TIP3    H262742   1.129   4.131   3.014  1.0768  1.0022 -0.7443
13751TIP3   OH262743   0.578   5.552  14.791  0.0506 -0.3198 -0.4226
13751TIP3    H162744   0.562   5.595  14.707  0.2693 -0.3119 -0.4590
13751TIP3    H262745   0.579   5.623  14.855 -2.4875 -0.5348 -0.0710
13752TIP3   OH262746   3.744   4.024  17.227  0.1400 -0.7197  0.1660
13752TIP3    H162747   3.694   4.058  17.152 -0.5241 -2.2748 -0.1149
13752TIP3    H262748   3.680   3.976  17.278  1.4367 -3.1479 -0.4431
13753TIP3   OH262749   0.753   5.160   3.025  0.1253 -0.2784  0.0700
13753TIP3    H162750   0.657   5.157   3.016  0.2529  0.6034 -1.7545
13753TIP3    H262751   0.770   5.241   3.074 -0.0502 -0.3036  0.1726
13754TIP3   OH262752   3.949   0.293   1.311  0.2276 -0.4474  0.0937
13754TIP3    H162753   3.945   0.197   1.311  0.2354 -0.4572  1.6442
13754TIP3    H262754   3.991   0.315   1.394 -1.2985  0.9569  0.5090
13755TIP3   OH262755   0.641   4.822  10.863 -0.1415  0.3367 -0.8598
13755TIP3    H162756   0.696   4.752  10.829 -1.0657 -1.7941  1.8693
13755TIP3    H262757   0.704   4.891  10.887  0.9354 -0.2681 -1.8697
13756TIP3   OH262758   6.059   5.953   3.605  0.4400  0.1677 -0.4603
13756TIP3    H162759   6.145   5.910   3.605  1.5596  2.3238 -1.1548
13756TIP3    H262760   6.032   5.951   3.513 -0.4700 -0.8865 -0.1788
13757TIP3   OH262761   4.879   2.147   3.455  0.3704  0.0118  0.2079
13757TIP3    H162762   4.843   2.195   3.380 -0.1089  1.6628  1.4489
13757TIP3    H262763   4.843   2.059   3.447 -0.8550  0.5797 -0.7160
13758TIP3   OH262764   5.770   2.839  12.500 -0.0357 -0.2639 -0.5148
13758TIP3    H162765   5.744   2.929  12.520 -0.1698 -0.5763  0.7722
13758TIP3    H262766   5.688   2.796  12.477 -0.2330 -0.4739  0.5365
13759TIP3   OH262767   5.667   6.426  12.891 -0.0374  0.0753  0.4258
13759TIP3    H162768   5.727   6.384  12.953  0.4180 -0.4111 -0.3326
13759TIP3    H262769   5.580   6.412  12.929  0.3422  1.1181  1.7199
13760TIP3   OH262770   0.364   2.793   1.289 -0.3220  0.3350 -0.0469
13760TIP3    H162771   0.432   2.861   1.292 -1.3626  1.3920 -0.0539
13760TIP3    H262772   0.393   2.734   1.220 -0.5590  2.0149 -1.6212
13761TIP3   OH262773   0.654   5.771   2.853  0.2858 -0.7666  0.5883
13761TIP3    H162774   0.672   5.815   2.770 -0.0328  0.5829  1.2176
13761TIP3    H262775   0.735   5.725   2.875  0.3029 -1.2907 -0.5672
13762TIP3   OH262776   6.641   1.812   2.795  0.2657 -0.4879 -0.2982
13762TIP3    H162777   6.676   1.724   2.784  0.6286 -0.3049 -0.6425
13762TIP3    H262778   6.680   1.843   2.877  0.9601 -0.2701 -0.6999
13763TIP3   OH262779   0.356   4.966  11.273 -0.4279 -0.1254 -0.0269
13763TIP3    H162780   0.263   4.956  11.254 -0.2859  0.9045 -1.3824
13763TIP3    H262781   0.399   4.901  11.218 -0.4464 -1.7850  1.8935
13764TIP3   OH262782   1.415   3.030  15.935  0.2182 -0.6854  0.1913
13764TIP3    H162783   1.457   3.099  15.884  0.2768 -0.0067  1.1566
13764TIP3    H262784   1.391   2.964  15.870 -0.7369  0.6912 -0.8740
13765TIP3   OH262785   4.104   3.406   5.406 -0.1129  0.1371 -0.0921
13765TIP3    H162786   4.107   3.501   5.400 -2.3279  0.3065  0.9481
13765TIP3    H262787   4.146   3.385   5.489 -2.1955  0.4492  1.0783
13766TIP3   OH262788   5.396   4.120  15.438  0.1124  0.1089  0.6196
13766TIP3    H162789   5.364   4.197  15.485  0.8932  0.2169  0.9743
13766TIP3    H262790   5.414   4.150  15.349  1.1470  0.5173  0.9617
13767TIP3   OH262791   2.728   6.075  13.206  0.3664  0.1782  0.0249
13767TIP3    H162792   2.748   6.116  13.290 -2.3453 -1.4452  1.5011
13767TIP3    H262793   2.729   5.981  13.224  1.3129 -0.2655 -2.1474
13768TIP3   OH262794   3.737   6.795   5.229 -0.0286  0.6000 -0.3018
13768TIP3    H162795   3.825   6.833   5.229 -0.2002  1.0017  0.1585
13768TIP3    H262796   3.748   6.709   5.269  0.3786  0.1247 -1.4400
13769TIP3   OH262797   5.772   5.945  12.355 -0.7203 -0.4524 -0.1401
13769TIP3    H162798   5.767   6.008  12.427 -0.1284  1.2292 -1.5037
13769TIP3    H262799   5.844   5.887  12.378  0.5047  1.0579 -0.0867
13770TIP3   OH262800   4.421   6.820  13.982  0.1883 -0.0418 -0.1412
13770TIP3    H162801   4.416   6.855  14.071 -1.0364 -0.8066  0.1093
13770TIP3    H262802   4.489   6.871  13.939 -0.6173  1.6976  0.6281
13771TIP3   OH262803   4.698   0.882  16.007  0.8295  0.5567 -0.5707
13771TIP3    H162804   4.743   0.903  16.089 -0.5130 -0.8389  0.5708
13771TIP3    H262805   4.697   0.786  16.005 -1.7686  0.5517 -0.7162
13772TIP3   OH262806   3.380   6.244   1.044  0.2511 -0.9625 -0.2306
13772TIP3    H162807   3.412   6.276   1.128 -2.0136  2.9509 -0.7632
13772TIP3    H262808   3.307   6.187   1.067 -0.2528 -0.0423  0.4720
13773TIP3   OH262809   4.408   1.449  12.145 -0.0272 -0.2366 -0.8982
13773TIP3    H162810   4.476   1.513  12.167 -1.7363  2.0048 -1.9444
13773TIP3    H262811   4.338   1.465  12.208 -0.3949 -1.2376 -1.0402
13774TIP3   OH262812   5.863   1.459   3.373 -0.3250  0.0964 -0.6472
13774TIP3    H162813   5.891   1.412   3.294  1.4259  0.2802 -0.1455
13774TIP3    H262814   5.915   1.422   3.444 -1.7666  0.0506  0.4146
13775TIP3   OH262815   4.120   2.586  14.886 -0.0351  0.4354 -0.1052
13775TIP3    H162816   4.209   2.621  14.885 -0.5020  1.6589 -1.7518
13775TIP3    H262817   4.076   2.635  14.956  0.6677 -0.4254  0.9519
13776TIP3   OH262818   6.511   0.770   1.531  0.0035 -0.5208 -0.1269
13776TIP3    H162819   6.475   0.760   1.619 -0.9125 -0.6965 -0.5113
13776TIP3    H262820   6.538   0.862   1.526  2.5156 -1.1264  1.2274
13777TIP3   OH262821   0.694   4.270   2.566 -0.4625  0.3129  0.1483
13777TIP3    H162822   0.746   4.189   2.568  0.9256  1.2098  2.7889
13777TIP3    H262823   0.614   4.248   2.614 -1.1246 -0.1502 -1.1540
13778TIP3   OH262824   3.116   1.692   0.046  0.1366 -0.2950  0.3683
13778TIP3    H162825   3.035   1.737   0.025 -1.0327 -2.4796  0.0514
13778TIP3    H262826   3.097   1.642   0.125  2.0810  1.4721  2.0196
13779TIP3   OH262827   5.257   2.450  15.808 -0.1522  0.1169 -0.2075
13779TIP3    H162828   5.313   2.398  15.750 -0.6311 -0.9151  0.2453
13779TIP3    H262829   5.168   2.420  15.789 -0.5231  1.4053 -0.5702
13780TIP3   OH262830   4.170   2.093   1.129 -0.1858  0.1153 -0.4038
13780TIP3    H162831   4.197   2.023   1.188  1.5041  1.3138  0.2721
13780TIP3    H262832   4.142   2.048   1.049  0.5346 -1.3465  0.1524
13781TIP3   OH262833   1.246   0.068  10.481  0.7122 -0.1330  0.5474
13781TIP3    H162834   1.300   0.103  10.410 -0.2535  1.8895  0.7619
13781TIP3    H262835   1.156   0.088  10.454  0.2847 -0.1234  1.9281
13782TIP3   OH262836   3.651   5.472   0.945  0.5092  0.0034  0.1678
13782TIP3    H162837   3.558   5.448   0.948  0.4797  0.2016  1.0143
13782TIP3    H262838   3.651   5.566   0.965  0.9398 -0.1278  0.7946
13783TIP3   OH262839   0.543   0.882  10.906 -0.1131 -0.5424 -0.7559
13783TIP3    H162840   0.544   0.788  10.891  1.6707 -0.9881  1.9199
13783TIP3    H262841   0.479   0.896  10.976  1.4209 -0.0830  0.5828
13784TIP3   OH262842   0.390   0.654   2.004 -0.3566 -0.2230 -0.1260
13784TIP3    H162843   0.323   0.716   2.032 -0.9233 -0.5839 -0.6819
13784TIP3    H262844   0.369   0.572   2.048 -0.1101 -0.2571 -0.0681
13785TIP3   OH262845   1.972   6.393  16.846  0.0038 -0.0998  0.0257
13785TIP3    H162846   1.969   6.359  16.935  2.3600 -1.5811 -0.4109
13785TIP3    H262847   2.050   6.448  16.843 -0.8831  1.1642 -0.7416
13786TIP3   OH262848   5.212   4.748   1.729  0.2929  0.3623  0.0857
13786TIP3    H162849   5.224   4.723   1.821  0.7929 -0.2159 -0.1317
13786TIP3    H262850   5.203   4.664   1.683 -0.6911  0.6741 -0.2934
13787TIP3   OH262851   1.546   2.930   4.319 -0.3825  0.5486  0.0349
13787TIP3    H162852   1.524   2.928   4.413 -2.2448  0.9081 -0.3707
13787TIP3    H262853   1.579   2.842   4.301  0.7494  0.7159  1.1939
13788TIP3   OH262854   2.801   0.952   4.593 -0.6398  0.5206 -0.1540
13788TIP3    H162855   2.761   0.989   4.514 -1.1415 -0.9103 -0.5964
13788TIP3    H262856   2.832   0.866   4.565 -1.9535 -0.5140  1.5301
13789TIP3   OH262857   6.276   2.961  16.093 -0.5129 -0.2863  0.4379
13789TIP3    H162858   6.190   2.979  16.132  0.4220  2.3414  1.4173
13789TIP3    H262859   6.304   3.045  16.058  0.3857 -1.7618 -2.5640
13790TIP3   OH262860   2.739   3.036  14.115  0.0252  0.1925  0.1494
13790TIP3    H162861   2.716   3.013  14.205  1.7258 -0.5986  0.4108
13790TIP3    H262862   2.752   3.131  14.117  1.1079  0.0335  0.9930
13791TIP3   OH262863   3.885   0.813   0.843  0.2770  0.7500  0.9131
13791TIP3    H162864   3.924   0.900   0.851  2.7783 -0.4848  2.6955
13791TIP3    H262865   3.822   0.808   0.915 -0.4350  1.3444  0.3430
13792TIP3   OH262866   2.048   4.868  13.774 -0.2054  0.4668 -0.6960
13792TIP3    H162867   1.996   4.947  13.760  1.2193  1.7319  0.8842
13792TIP3    H262868   2.016   4.833  13.857  0.9071  0.8116 -0.1142
13793TIP3   OH262869   4.766   5.244  12.972  0.1188  0.3825  0.0983
13793TIP3    H162870   4.718   5.188  12.911  1.4909  0.2078 -0.8490
13793TIP3    H262871   4.723   5.230  13.057 -3.3473  2.4202 -1.2214
13794TIP3   OH262872   5.588   1.431   3.357 -0.0847  0.1719  0.2435
13794TIP3    H162873   5.683   1.440   3.362 -0.1003  1.7015 -1.5653
13794TIP3    H262874   5.555   1.520   3.367 -1.1383  0.1183 -2.3155
13795TIP3   OH262875   4.774   0.617  11.258  0.0835  0.2887 -0.2045
13795TIP3    H162876   4.817   0.618  11.173 -0.6057 -0.4714 -0.5779
13795TIP3    H262877   4.687   0.654  11.241 -0.9293 -2.0415 -0.3547
13796TIP3   OH262878   4.939   5.386  12.476 -0.4463  0.1180  0.1462
13796TIP3    H162879   4.866   5.420  12.527 -2.3198 -0.6421 -1.9472
13796TIP3    H262880   4.948   5.295  12.505 -0.8557 -0.0128 -0.1220
13797TIP3   OH262881   5.031   6.207   1.560  0.2612  0.0418 -0.3072
13797TIP3    H162882   5.114   6.197   1.513 -0.7586 -1.5484 -1.8259
13797TIP3    H262883   5.037   6.145   1.632  0.0915 -0.6463 -0.8754
13798TIP3   OH262884   1.139   6.223   0.857 -0.3772 -0.6046 -0.6970
13798TIP3    H162885   1.153   6.281   0.932  1.1119 -0.2903 -1.2029
13798TIP3    H262886   1.080   6.272   0.800  0.3204  0.1315 -0.7975
13799TIP3   OH262887   5.902   3.068   0.317 -0.2996  0.3045 -0.3651
13799TIP3    H162888   5.937   3.000   0.259 -0.9419  0.7518 -1.3039
13799TIP3    H262889   5.945   3.053   0.401 -2.4161 -3.0116  0.2657
13800TIP3   OH262890   1.479   5.681   2.598  0.3498  0.2230  0.1243
13800TIP3    H162891   1.575   5.679   2.594  0.3633 -4.0643  0.5153
13800TIP3    H262892   1.451   5.681   2.506  0.6899  1.7264  0.0086
13801TIP3   OH262893   5.658   3.706   6.647  0.0357 -0.5955  0.1317
13801TIP3    H162894   5.723   3.741   6.707 -1.4187 -0.6389  1.7677
13801TIP3    H262895   5.669   3.758   6.567  3.2515 -1.8076 -0.2746
13802TIP3   OH262896   0.893   3.056  14.546 -0.0496 -0.5839  0.1302
13802TIP3    H162897   0.865   2.968  14.521  1.2171 -0.2133 -2.8427
13802TIP3    H262898   0.878   3.109  14.467 -2.9110  2.3988  2.5403
13803TIP3   OH262899   3.666   2.789  16.685 -0.2066 -0.1301 -0.0093
13803TIP3    H162900   3.725   2.865  16.687  0.6209 -0.7045 -1.8313
13803TIP3    H262901   3.580   2.826  16.702 -0.0274  1.4531 -2.3306
13804TIP3   OH262902   3.803   1.337  12.770 -0.1846  0.0571  0.4407
13804TIP3    H162903   3.726   1.386  12.799 -0.6627 -0.3415 -0.1283
13804TIP3    H262904   3.816   1.366  12.679  0.4122  0.2141  0.5725
13805TIP3   OH262905   0.299   0.090  12.984  0.3984 -0.2873  0.0796
13805TIP3    H162906   0.305   0.012  12.929 -1.7118  0.1508 -0.8239
13805TIP3    H262907   0.353   0.070  13.060 -0.1198 -2.6529 -0.1409
13806TIP3   OH262908   4.775   4.247   0.942 -0.3870  0.4096 -0.8494
13806TIP3    H162909   4.763   4.191   0.865 -0.8149 -0.0360 -0.4568
13806TIP3    H262910   4.706   4.220   1.002 -1.7105  2.5619 -1.3439
13807TIP3   OH262911   1.328   5.712   0.302  0.2525 -0.1019 -0.4389
13807TIP3    H162912   1.381   5.663   0.365  1.3824  2.3343  0.5462
13807TIP3    H262913   1.279   5.644   0.254  1.2652 -2.1338  1.3304
13808TIP3   OH262914   1.763   0.985   2.967 -0.0412  0.3419 -0.4588
13808TIP3    H162915   1.788   0.969   2.876  1.2617 -0.0246 -0.0502
13808TIP3    H262916   1.737   1.077   2.969 -0.8609  0.1458 -1.3631
13809TIP3   OH262917   1.358   3.152  13.414  0.1357  0.0978  0.5558
13809TIP3    H162918   1.306   3.194  13.482  0.6565  0.3745  0.7896
13809TIP3    H262919   1.375   3.222  13.351 -1.9346 -0.6028 -0.8186
13810TIP3   OH262920   4.115   2.364  16.213 -0.5078  0.4119  0.6382
13810TIP3    H162921   4.094   2.379  16.305 -0.4926 -0.9058  0.8674
13810TIP3    H262922   4.048   2.302  16.183 -0.5175  0.8370 -0.2436
13811TIP3   OH262923   4.467   3.298  11.961 -1.0695 -0.1681  0.4119
13811TIP3    H162924   4.386   3.247  11.959 -0.2871 -1.4296  0.4842
13811TIP3    H262925   4.518   3.260  12.033 -0.0680  0.0741 -0.1570
13812TIP3   OH262926   4.257   1.684  12.292 -0.1520  0.5090 -0.4111
13812TIP3    H162927   4.224   1.752  12.233  1.5392  1.8351  0.1106
13812TIP3    H262928   4.352   1.696  12.291 -0.0598  0.1951  2.1410
13813TIP3   OH262929   6.316   0.175   3.432  0.4191  0.2988  0.5975
13813TIP3    H162930   6.264   0.107   3.475  0.3757 -0.1570 -0.1571
13813TIP3    H262931   6.313   0.152   3.339  0.6276  1.1870  0.3658
13814TIP3   OH262932   0.859   0.298   0.263 -0.8172  0.0016  0.5956
13814TIP3    H162933   0.874   0.215   0.218 -0.2401  0.2002  0.4132
13814TIP3    H262934   0.881   0.364   0.197  0.3928  0.2918  1.2797
13815TIP3   OH262935   5.392   6.265  16.541 -0.2673  0.1169 -0.5622
13815TIP3    H162936   5.321   6.205  16.565 -0.2164  0.6431  0.9772
13815TIP3    H262937   5.395   6.262  16.446  0.6701 -3.4574 -0.5143
13816TIP3   OH262938   0.653   6.228  16.899 -0.3162 -0.0508  0.2945
13816TIP3    H162939   0.638   6.244  16.992 -1.8218  0.0215  0.0471
13816TIP3    H262940   0.707   6.301  16.871 -1.8566  1.2427  0.5991
13817TIP3   OH262941   3.672   0.816  13.831  0.0048  0.0907  0.0741
13817TIP3    H162942   3.695   0.771  13.913 -0.4736  0.8231  0.6204
13817TIP3    H262943   3.665   0.909  13.856 -2.2145  0.0667 -0.3459
13818TIP3   OH262944   0.164   4.715   3.727 -0.6801  0.1601 -0.3794
13818TIP3    H162945   0.159   4.779   3.657  1.0662 -0.9289 -1.5503
13818TIP3    H262946   0.074   4.702   3.755 -1.4529  0.3242 -2.7107
13819TIP3   OH262947   6.700   2.175   4.165 -0.7986 -0.4730 -0.1530
13819TIP3    H162948   6.628   2.237   4.170 -1.3727 -1.1956  0.8218
13819TIP3    H262949   6.668   2.106   4.106  0.4037  0.8622 -2.4227
13820TIP3   OH262950   1.866   1.539  12.564  0.4171 -0.4885  0.4739
13820TIP3    H162951   1.804   1.497  12.624  0.1929  1.3108  1.5301
13820TIP3    H262952   1.818   1.614  12.528  0.7447 -1.1984 -1.5413
13821TIP3   OH262953   1.103   1.587   1.485  0.5746  0.2128 -0.2371
13821TIP3    H162954   1.145   1.500   1.481  1.2073  0.5399 -1.1068
13821TIP3    H262955   1.039   1.585   1.414 -0.2138  0.0661  0.4681
13822TIP3   OH262956   1.773   5.983  14.849  0.3562 -0.2605 -0.3215
13822TIP3    H162957   1.730   6.018  14.771  0.9745  0.1064 -0.4962
13822TIP3    H262958   1.859   6.024  14.850 -0.1309  0.7930  1.2797
13823TIP3   OH262959   5.278   0.347   5.145  0.3530 -0.2814  0.1197
13823TIP3    H162960   5.282   0.252   5.135  0.3275 -0.0887 -1.8831
13823TIP3    H262961   5.188   0.370   5.122  0.7945  0.3908 -0.9408
13824TIP3   OH262962   5.111   2.653  16.932 -0.1208 -0.1818  0.4062
13824TIP3    H162963   5.047   2.694  16.990  2.1211  2.3193  1.1873
13824TIP3    H262964   5.092   2.688  16.845 -0.4735 -0.2873  0.4366
13825TIP3   OH262965   3.527   1.600  11.886  0.4159  0.2737  0.3107
13825TIP3    H162966   3.508   1.588  11.793 -1.0849 -1.3095  0.8042
13825TIP3    H262967   3.590   1.530  11.906 -0.3385 -0.2623  0.8083
13826TIP3   OH262968   1.202   1.804   2.934 -0.1830  0.0372 -0.6204
13826TIP3    H162969   1.168   1.800   2.845  0.0178  1.4853 -0.7632
13826TIP3    H262970   1.271   1.870   2.931  1.2209 -1.3540  0.1557
13827TIP3   OH262971   3.526   6.643  17.083 -0.1285 -0.3014 -0.4990
13827TIP3    H162972   3.580   6.581  17.132 -0.0963 -0.5386 -0.8351
13827TIP3    H262973   3.485   6.590  17.015 -1.0347 -0.1818 -0.0515
13828TIP3   OH262974   1.477   4.486  13.827  0.2569  0.0361 -0.2978
13828TIP3    H162975   1.458   4.397  13.857  0.2123 -0.1682 -0.9117
13828TIP3    H262976   1.403   4.538  13.856 -0.5196 -0.4553 -1.3713
13829TIP3   OH262977   2.626   6.810   1.771 -0.1780 -0.0257 -0.1832
13829TIP3    H162978   2.648   6.737   1.713  0.7230 -1.0633  1.4172
13829TIP3    H262979   2.553   6.777   1.824  0.7537 -0.0609  1.0930
13830TIP3   OH262980   2.949   6.710  16.572  0.5364 -1.0217 -0.5374
13830TIP3    H162981   2.868   6.660  16.558 -0.0221 -0.0016 -0.9332
13830TIP3    H262982   2.987   6.672  16.651 -0.2322 -1.6287 -0.4568
13831TIP3   OH262983   6.493   5.207  12.879 -0.0411 -0.2508  0.3465
13831TIP3    H162984   6.409   5.169  12.856 -0.0776 -0.2891  0.5445
13831TIP3    H262985   6.522   5.251  12.799 -1.3708  1.8361  0.9686
13832TIP3   OH262986   6.802   5.592   4.050 -0.0128 -0.7751 -0.0282
13832TIP3    H162987   6.759   5.578   3.965  1.0429 -1.9146 -0.3917
13832TIP3    H262988   6.735   5.572   4.115 -1.6653  2.7429 -0.5655
13833TIP3   OH262989   5.979   1.136   1.795 -0.4855 -0.2816 -0.0483
13833TIP3    H162990   6.048   1.122   1.860  1.0887 -0.7266 -1.7777
13833TIP3    H262991   5.979   1.230   1.779 -0.2702 -0.2794 -0.0380
13834TIP3   OH262992   5.996   0.543  13.455 -0.2494 -0.3741 -0.4750
13834TIP3    H162993   6.071   0.602  13.464  0.6938 -1.5713 -0.2939
13834TIP3    H262994   5.955   0.568  13.373  0.8542 -0.2450 -0.9992
13835TIP3   OH262995   4.362   5.709   2.773  0.2054 -0.8413  0.1887
13835TIP3    H162996   4.441   5.710   2.827  0.2428 -1.0176  0.1393
13835TIP3    H262997   4.293   5.678   2.831 -0.3026  1.4695  0.8510
13836TIP3   OH262998   1.680   5.429  15.493 -0.8878  0.5033 -0.0486
13836TIP3    H162999   1.674   5.458  15.402  0.7669 -1.6288 -0.9026
13836TIP3    H263000   1.741   5.355  15.490  1.1242  1.9188  3.1822
13837TIP3   OH263001   5.287   0.229  15.628 -0.4392  0.3960  0.7381
13837TIP3    H163002   5.244   0.304  15.669 -0.1669  0.8638  0.1819
13837TIP3    H263003   5.239   0.153  15.661 -0.6713  0.8092  1.3637
13838TIP3   OH263004   1.032   6.334  16.041 -0.0778 -0.4131  0.2649
13838TIP3    H163005   1.017   6.397  15.972 -1.2677 -0.3348  0.5807
13838TIP3    H263006   1.053   6.387  16.118 -0.5180 -0.4212  0.3925
13839TIP3   OH263007   0.768   1.206  13.341 -0.0590  0.0940 -0.0393
13839TIP3    H163008   0.717   1.287  13.335 -1.2780 -0.5941  0.8722
13839TIP3    H263009   0.715   1.148  13.395  0.7631 -1.3617 -0.7626
13840TIP3   OH263010   2.244   4.212  13.732  0.7156 -0.2905 -0.0678
13840TIP3    H163011   2.200   4.285  13.775  0.3381 -0.5562  0.0005
13840TIP3    H263012   2.334   4.217  13.763  0.4197 -0.5542  0.8531
13841TIP3   OH263013   2.220   2.187  14.717 -0.2179 -0.2374 -0.1241
13841TIP3    H163014   2.260   2.154  14.637 -0.4384 -0.4600 -0.1435
13841TIP3    H263015   2.224   2.113  14.778  0.6873  0.1841  0.3398
13842TIP3   OH263016   2.188   1.419   3.581 -0.5036  0.0177  0.2963
13842TIP3    H163017   2.128   1.399   3.654 -0.9535 -2.2704 -0.6425
13842TIP3    H263018   2.131   1.449   3.511 -0.2784  0.3702  0.2675
13843TIP3   OH263019   6.351   1.922  14.452 -0.2201  0.2172 -0.0701
13843TIP3    H163020   6.295   1.867  14.508 -0.4372  0.6838  0.1745
13843TIP3    H263021   6.434   1.874  14.447 -0.9696 -0.9799 -1.2559
13844TIP3   OH263022   1.128   6.780   0.266  0.3291  0.1355  0.1823
13844TIP3    H163023   1.219   6.753   0.258  0.5116  0.8070 -0.0439
13844TIP3    H263024   1.112   6.836   0.190  0.2534  1.4656  1.1439
13845TIP3   OH263025   3.399   1.017   3.406  0.3272  0.3237 -0.0346
13845TIP3    H163026   3.416   0.946   3.343  1.6322  0.6830 -0.1136
13845TIP3    H263027   3.463   1.003   3.475  0.6860  1.4877 -0.1139
13846TIP3   OH263028   5.467   0.491  13.843 -0.1168  0.4834  0.0783
13846TIP3    H163029   5.421   0.407  13.833 -1.9595  1.4891  0.0105
13846TIP3    H263030   5.497   0.491  13.933 -0.1412 -0.2378  0.0894
13847TIP3   OH263031   0.004   6.120   0.302 -0.0774 -0.8453 -0.3127
13847TIP3    H163032   0.056   6.105   0.381  0.5444 -0.4127 -0.6353
13847TIP3    H263033   0.007   6.036   0.256  0.6889 -0.7106 -0.5280
13848TIP3   OH263034   4.036   0.621   6.026  0.7788 -0.0174  0.5648
13848TIP3    H163035   3.948   0.591   6.003  0.5245  1.5176 -0.4881
13848TIP3    H263036   4.057   0.572   6.106 -0.6263 -1.1214  0.2811
13849TIP3   OH263037   5.532   2.491   0.370 -0.1422 -0.0951  0.3697
13849TIP3    H163038   5.612   2.467   0.416 -1.1552  1.6758  3.2190
13849TIP3    H263039   5.561   2.554   0.304  1.1699 -1.7135 -0.6457
13850TIP3   OH263040   2.437   3.199  15.675 -0.2080  0.6152 -0.3186
13850TIP3    H163041   2.352   3.210  15.633 -0.0976 -0.7094 -0.9171
13850TIP3    H263042   2.471   3.116  15.639  1.3534  1.1656 -0.1475
13851TIP3   OH263043   4.236   1.364  14.092  0.1699 -0.6508 -0.7178
13851TIP3    H163044   4.220   1.458  14.101 -0.1268 -0.6798 -0.9383
13851TIP3    H263045   4.165   1.333  14.037 -0.7777 -1.3266  0.8550
13852TIP3   OH263046   2.447   6.619   1.080 -0.3766 -0.0995  0.1892
13852TIP3    H163047   2.469   6.690   1.020  0.3595  0.9013  1.6121
13852TIP3    H263048   2.469   6.540   1.032 -2.9865  0.5059 -2.1676
13853TIP3   OH263049   5.276   3.486  12.244  0.8040  0.0466  0.2508
13853TIP3    H163050   5.194   3.441  12.224  0.6659  1.2238 -1.9137
13853TIP3    H263051   5.323   3.426  12.302 -1.6721 -0.5295  1.7302
13854TIP3   OH263052   2.055   0.108   1.410 -0.3081  0.1459  0.0935
13854TIP3    H163053   2.021   0.019   1.402 -1.9093  0.7367  0.1791
13854TIP3    H263054   1.981   0.164   1.385  1.0413  1.4114 -1.1448
13855TIP3   OH263055   3.666   0.161  11.499 -0.0232 -1.0079  0.1560
13855TIP3    H163056   3.657   0.255  11.481 -0.6151 -0.7898  1.5290
13855TIP3    H263057   3.593   0.141  11.558  1.2369 -1.9227  1.4470
13856TIP3   OH263058   3.073   3.414   6.536 -0.1554  0.0844 -0.0028
13856TIP3    H163059   2.986   3.377   6.550  0.5012 -1.4019  0.3020
13856TIP3    H263060   3.115   3.354   6.474  0.4308  1.1454 -0.6556
13857TIP3   OH263061   2.707   0.747  12.942  0.1597  0.3345  0.7470
13857TIP3    H163062   2.693   0.777  12.852  0.1493 -1.2990  0.1872
13857TIP3    H263063   2.621   0.716  12.970  0.4564 -0.4003  0.8493
13858TIP3   OH263064   0.854   5.098  12.034 -0.4384 -0.2838 -0.3769
13858TIP3    H163065   0.908   5.046  11.974 -1.4972 -0.2892 -1.3395
13858TIP3    H263066   0.910   5.171  12.060  0.0814 -0.3686 -1.2559
13859TIP3   OH263067   3.831   0.165   3.134  0.3653 -0.4980 -0.2216
13859TIP3    H163068   3.838   0.194   3.043 -0.9821 -0.1904 -0.2492
13859TIP3    H263069   3.746   0.199   3.163  1.8000  1.3887  1.8810
13860TIP3   OH263070   4.603   0.748   3.612  0.3082  0.0157 -0.2113
13860TIP3    H163071   4.666   0.694   3.564  0.8215  2.1934 -2.0738
13860TIP3    H263072   4.587   0.823   3.554 -3.5319 -0.1735  0.4877
13861TIP3   OH263073   3.444   6.391  12.011 -0.1189  0.2136 -0.1604
13861TIP3    H163074   3.372   6.384  12.074  0.2497  2.3891  0.5399
13861TIP3    H263075   3.508   6.327  12.041  0.1332  1.3499  1.8396
13862TIP3   OH263076   3.174   6.398  15.983 -0.1944 -0.3560  0.3051
13862TIP3    H163077   3.104   6.456  15.952  1.2002  1.6236  0.8186
13862TIP3    H263078   3.186   6.421  16.075  0.9037 -0.9243  0.3120
13863TIP3   OH263079   0.344   5.127  17.170 -0.5766  0.7603 -0.3176
13863TIP3    H163080   0.383   5.115  17.084 -2.6300  0.7353 -1.2860
13863TIP3    H263081   0.342   5.039  17.208  1.1110  0.8967  0.1367
13864TIP3   OH263082   3.753   1.036   3.853  0.1085 -0.1999 -0.1012
13864TIP3    H163083   3.685   1.084   3.806  1.0815  0.4017 -0.9120
13864TIP3    H263084   3.806   0.996   3.784  1.3004  0.3386  0.4921
13865TIP3   OH263085   1.139   5.991  12.511 -0.3702  0.7787  0.2531
13865TIP3    H163086   1.046   6.014  12.505 -0.2840  0.8579 -0.8348
13865TIP3    H263087   1.141   5.915  12.570 -1.2529  0.0403 -0.6595
13866TIP3   OH263088   2.700   5.908  15.729  0.3340  0.1865  0.3299
13866TIP3    H163089   2.796   5.902  15.736  0.3379  0.7961  0.9330
13866TIP3    H263090   2.668   5.869  15.810  0.0685 -0.0202  0.1261
13867TIP3   OH263091   6.093   3.650  10.724  0.5224 -0.3837  0.2475
13867TIP3    H163092   6.123   3.717  10.662 -1.2065  0.4330  0.2412
13867TIP3    H263093   6.114   3.686  10.810 -2.5211  1.3286  0.3519
13868TIP3   OH263094   2.949   4.371  15.429  0.8285 -0.3254  0.2946
13868TIP3    H163095   3.043   4.389  15.432  1.0271 -0.7449 -2.2604
13868TIP3    H263096   2.921   4.404  15.343 -0.8594 -2.4142 -0.0099
13869TIP3   OH263097   6.155   1.806  14.737 -0.2529 -0.2019 -0.0330
13869TIP3    H163098   6.215   1.833  14.807 -0.5386  0.6597 -0.1062
13869TIP3    H263099   6.156   1.711  14.739 -1.6995 -0.1943  2.3921
13870TIP3   OH263100   2.594   0.823  14.738  0.2794  0.4727 -0.1186
13870TIP3    H163101   2.510   0.822  14.784 -0.7171  0.9093 -1.9042
13870TIP3    H263102   2.574   0.857  14.651  2.3219  0.6454 -0.5487
13871TIP3   OH263103   5.559   1.306   6.128  0.3783  0.2791  0.3204
13871TIP3    H163104   5.469   1.288   6.158  0.0948  0.9611 -0.1171
13871TIP3    H263105   5.579   1.392   6.163  0.2849  0.8058 -0.8984
13872TIP3   OH263106   5.740   6.454  12.413 -0.1133 -0.2788  0.2727
13872TIP3    H163107   5.745   6.410  12.498  0.7503  0.1987  0.4779
13872TIP3    H263108   5.646   6.461  12.396 -0.2799 -1.3290  0.6850
13873TIP3   OH263109   4.582   2.157   0.078 -0.1975  0.5160  0.5441
13873TIP3    H163110   4.628   2.079   0.048 -1.7986 -0.6711  1.0942
13873TIP3    H263111   4.651   2.222   0.094  1.1639 -0.8710  0.3461
13874TIP3   OH263112   5.718   0.025   5.464  0.5658 -0.3569  0.3406
13874TIP3    H163113   5.673   0.074   5.532 -1.9022  0.0164 -1.4800
13874TIP3    H263114   5.686  -0.064   5.473  0.9513 -0.5031  0.2776
13875TIP3   OH263115   6.231   3.642   3.773  1.1357  0.0820 -0.1678
13875TIP3    H163116   6.142   3.605   3.775  1.3734 -0.4978 -0.4756
13875TIP3    H263117   6.247   3.662   3.681  1.0069  0.9821 -0.0095
13876TIP3   OH263118   2.122   2.103   5.598  0.0723 -0.5026  0.0840
13876TIP3    H163119   2.181   2.116   5.672 -0.3454  0.1771  0.2978
13876TIP3    H263120   2.126   2.185   5.549 -0.0952 -0.7423 -0.3310
13877TIP3   OH263121   5.745   0.231  15.265  0.1713 -0.1621  0.1144
13877TIP3    H163122   5.709   0.225  15.353  1.4198  2.9883  0.9132
13877TIP3    H263123   5.683   0.286  15.217  0.8796  0.4002 -0.1749
13878TIP3   OH263124   4.509   0.518  16.629  0.0947 -0.6686 -0.0938
13878TIP3    H163125   4.485   0.604  16.594 -0.0826 -0.5150  0.3919
13878TIP3    H263126   4.455   0.456  16.580 -1.1555 -0.3443  0.8454
13879TIP3   OH263127   5.658   1.350   1.677 -0.1190  0.0137 -0.0298
13879TIP3    H163128   5.678   1.292   1.750 -0.6244  0.9571  0.8813
13879TIP3    H263129   5.694   1.435   1.704  0.1963  0.2352 -1.1267
13880TIP3   OH263130   3.958   6.775   0.792  0.4898 -0.8110 -0.2638
13880TIP3    H163131   3.882   6.785   0.735  0.6156  1.0512 -0.1484
13880TIP3    H263132   3.935   6.822   0.872  2.0483  0.4849 -0.5435
13881TIP3   OH263133   4.607   2.676  16.108  0.5254  0.7643 -0.0760
13881TIP3    H163134   4.568   2.756  16.074  1.3970  0.3700 -2.0630
13881TIP3    H263135   4.569   2.606  16.055  0.3015 -0.0923  1.1719
13882TIP3   OH263136   4.202   3.920  11.617  0.5915  0.3843  0.4132
13882TIP3    H163137   4.158   3.972  11.550  2.1909 -1.2772 -2.0408
13882TIP3    H263138   4.282   3.889  11.575 -0.2695 -4.0398  1.6930
13883TIP3   OH263139   2.686   4.623   4.004 -0.2598  0.4718 -0.6216
13883TIP3    H163140   2.720   4.695   4.058 -0.4742  0.8838 -1.0255
13883TIP3    H263141   2.762   4.596   3.952  0.4079 -1.1106  1.1323
13884TIP3   OH263142   5.495   0.351  17.044 -0.3996  0.5200 -0.1380
13884TIP3    H163143   5.418   0.366  16.988 -0.0569 -0.0476 -0.7583
13884TIP3    H263144   5.478   0.267  17.087 -0.4336  0.7164  0.2357
13885TIP3   OH263145   1.859   0.456  15.798 -0.1191 -0.0338 -0.0243
13885TIP3    H163146   1.816   0.390  15.744  0.3153 -0.0296 -0.3807
13885TIP3    H263147   1.829   0.540  15.762  0.5657 -0.0275 -0.5853
13886TIP3   OH263148   4.154   6.347   2.192  0.1760  0.1648  0.3718
13886TIP3    H163149   4.235   6.325   2.237 -0.5295  0.1854  1.6514
13886TIP3    H263150   4.155   6.442   2.184 -0.9481  0.3951  2.7272
13887TIP3   OH263151   4.425   2.638   2.094  0.2582 -0.3683 -0.3232
13887TIP3    H163152   4.417   2.618   2.187 -0.1120 -0.4092 -0.3596
13887TIP3    H263153   4.453   2.730   2.091 -0.0116 -0.2799 -0.1733
13888TIP3   OH263154   4.833   2.927  12.214 -0.4375 -0.3334 -0.5797
13888TIP3    H163155   4.834   3.015  12.176  0.0787 -0.2620 -0.4003
13888TIP3    H263156   4.879   2.874  12.149  0.7789 -0.1404  0.1175
13889TIP3   OH263157   0.819   0.415   0.781  0.1430 -0.4037  1.0289
13889TIP3    H163158   0.914   0.424   0.795  0.1972 -0.8351  0.9277
13889TIP3    H263159   0.811   0.355   0.707 -0.2335 -1.0993  1.6377
13890TIP3   OH263160   4.293   3.178   2.127  0.3399 -0.5717  0.0289
13890TIP3    H163161   4.299   3.257   2.180  0.1922  0.3239 -1.2769
13890TIP3    H263162   4.372   3.129   2.149  1.3069  0.7486 -0.4438
13891TIP3   OH263163   5.586   1.226  11.506 -0.2589 -0.0011 -0.0979
13891TIP3    H163164   5.535   1.283  11.447 -0.5234 -0.5062 -0.3603
13891TIP3    H263165   5.677   1.250  11.489 -0.3187 -0.3247 -0.9034
13892TIP3   OH263166   2.657   2.111   2.702 -0.0396 -0.3742  0.0228
13892TIP3    H163167   2.711   2.187   2.724  1.5886 -1.4802 -0.0600
13892TIP3    H263168   2.710   2.036   2.728 -1.5154 -1.4959 -0.1529
13893TIP3   OH263169   2.803   3.779   3.737  0.2490  0.5131 -0.1469
13893TIP3    H163170   2.893   3.758   3.710 -0.1242 -0.2206 -0.8347
13893TIP3    H263171   2.814   3.841   3.809  1.3291 -0.2066  0.3262
13894TIP3   OH263172   1.075   1.171  13.911 -1.0048  0.1961  0.6569
13894TIP3    H163173   1.049   1.079  13.918  1.5378 -0.4763  1.6724
13894TIP3    H263174   1.001   1.213  13.867 -2.2605 -2.3004  0.2832
13895TIP3   OH263175   6.434   3.519   0.689  0.0729 -0.2363 -0.3256
13895TIP3    H163176   6.502   3.531   0.624  2.0945 -1.8476  1.4110
13895TIP3    H263177   6.481   3.502   0.771 -2.3943 -0.2498  1.1631
13896TIP3   OH263178   6.098   2.395   1.254  0.4905 -0.3714  0.0925
13896TIP3    H163179   6.010   2.374   1.284  0.5390  1.1264  1.3796
13896TIP3    H263180   6.100   2.368   1.163 -1.6357  0.4998 -0.2345
13897TIP3   OH263181   3.341   3.390  10.559 -0.5414  0.1407  0.2165
13897TIP3    H163182   3.403   3.317  10.560 -0.3458  0.2719 -1.6467
13897TIP3    H263183   3.256   3.350  10.579 -0.4353 -0.6141 -0.8019
13898TIP3   OH263184   6.474   5.517  17.270 -0.9568 -0.3696  0.0836
13898TIP3    H163185   6.407   5.463  17.312 -0.2936 -0.6549  0.7910
13898TIP3    H263186   6.435   5.543  17.186 -0.2901 -4.2132 -1.5295
13899TIP3   OH263187   4.075   2.936  16.438  0.2708 -0.3176  0.3725
13899TIP3    H163188   3.987   2.968  16.417  0.6199  0.2344 -0.2573
13899TIP3    H263189   4.084   2.856  16.387 -0.1523 -0.7901  1.0271
13900TIP3   OH263190   6.017   2.432  13.352  0.3393  0.0199 -0.5387
13900TIP3    H163191   6.017   2.490  13.275  1.1956 -0.2159 -0.7196
13900TIP3    H263192   6.084   2.367  13.333 -0.9696 -1.3372 -0.5468
13901TIP3   OH263193   5.656   3.029  15.917  0.4753 -0.2141  0.7120
13901TIP3    H163194   5.740   3.073  15.930  0.0047  0.4873  1.4300
13901TIP3    H263195   5.592   3.088  15.957 -0.2960 -1.0117  0.6605
13902TIP3   OH263196   1.022   0.684   5.316  0.0549 -0.2698 -0.0834
13902TIP3    H163197   0.947   0.681   5.256  0.1843  0.5030 -0.3001
13902TIP3    H263198   0.999   0.624   5.387 -1.1006  0.5136  0.2248
13903TIP3   OH263199   5.142   1.203   4.393  0.5382 -0.6832 -0.2915
13903TIP3    H163200   5.194   1.123   4.403  1.5620 -0.1131 -0.9518
13903TIP3    H263201   5.205   1.270   4.366 -0.1281  0.5923  1.1975
13904TIP3   OH263202   4.896   5.663   0.768 -0.2669 -0.0471 -0.3143
13904TIP3    H163203   4.887   5.742   0.820 -0.0377 -0.5300  0.4674
13904TIP3    H263204   4.978   5.624   0.798 -0.0764 -0.2669 -1.1199
13905TIP3   OH263205   4.764   3.552  14.900 -0.5877  0.1096 -0.1218
13905TIP3    H163206   4.835   3.566  14.962 -1.0063 -0.7440  0.5656
13905TIP3    H263207   4.795   3.592  14.819  0.5502  0.0303  0.2591
13906TIP3   OH263208   5.558   2.666   5.093 -0.1076  0.1841 -0.1963
13906TIP3    H163209   5.551   2.726   5.018 -1.4996 -2.5251 -2.3510
13906TIP3    H263210   5.524   2.583   5.060 -1.6616 -0.8785  3.7733
13907TIP3   OH263211   2.515   2.328   3.918  0.0480 -0.2834  0.6841
13907TIP3    H163212   2.460   2.276   3.976  0.4900  1.0127  2.3123
13907TIP3    H263213   2.587   2.358   3.974  0.3246  1.2532 -0.4632
13908TIP3   OH263214   3.030   3.460  16.391 -0.1350  0.4190 -0.7893
13908TIP3    H163215   3.045   3.373  16.354  1.8929 -0.3596  1.7476
13908TIP3    H263216   2.941   3.482  16.365 -0.9477 -2.7334 -0.8662
13909TIP3   OH263217   1.283   0.708   5.759  0.6595 -0.3957 -0.4841
13909TIP3    H163218   1.312   0.794   5.787  1.4170 -0.7748 -0.0902
13909TIP3    H263219   1.246   0.721   5.672  1.2317  0.2318 -0.6278
13910TIP3   OH263220   6.626   5.174  11.353  0.0949 -0.1752 -0.2075
13910TIP3    H163221   6.707   5.217  11.327  0.0516 -0.2563 -0.4759
13910TIP3    H263222   6.560   5.244  11.352  0.5444  0.3487  1.9959
13911TIP3   OH263223   0.919   3.637  16.824 -0.2102  0.1329 -0.4287
13911TIP3    H163224   0.899   3.708  16.886 -0.9528 -0.4856  0.0552
13911TIP3    H263225   1.013   3.644  16.808 -0.4141  1.7513 -1.0373
13912TIP3   OH263226   0.933   5.601   4.863  0.1468 -0.2654  0.1197
13912TIP3    H163227   1.009   5.609   4.804 -1.1216 -0.9781 -1.6459
13912TIP3    H263228   0.972   5.593   4.950  2.0239  2.6163 -0.3698
13913TIP3   OH263229   1.271   1.389  14.530  0.2918 -0.2426  0.3705
13913TIP3    H163230   1.350   1.443  14.528 -0.1130  0.5040  2.8877
13913TIP3    H263231   1.301   1.302  14.504  1.9764  0.0128  1.3962
13914TIP3   OH263232   2.008   3.676  16.137 -0.1503  0.5716 -0.0265
13914TIP3    H163233   1.995   3.759  16.091 -0.4492 -0.3125 -1.5405
13914TIP3    H263234   2.044   3.617  16.072  0.1185 -0.4961  1.0686
13915TIP3   OH263235   5.906   3.608  13.601 -0.4172  0.0481  0.1848
13915TIP3    H163236   5.905   3.683  13.542 -1.4645  0.4334  0.6712
13915TIP3    H263237   5.877   3.534  13.547  0.7320 -0.0330 -0.3260
13916TIP3   OH263238   5.860   1.781  12.332  0.2374 -0.0276 -0.7704
13916TIP3    H163239   5.776   1.813  12.365  0.1547 -1.0771  0.0648
13916TIP3    H263240   5.901   1.858  12.292  0.2202  1.2144  1.5474
13917TIP3   OH263241   6.287   2.619  16.248  0.1465 -0.5253  0.1328
13917TIP3    H163242   6.232   2.698  16.249 -0.3586 -0.8692 -0.3680
13917TIP3    H263243   6.347   2.631  16.322  0.2999  0.4914 -0.1462
13918TIP3   OH263244   3.136   0.919  17.092 -0.0850 -0.5774  0.3016
13918TIP3    H163245   3.057   0.962  17.126  0.3491  0.1740  0.3669
13918TIP3    H263246   3.208   0.970  17.127  0.4394 -1.3509  0.3516
13919TIP3   OH263247   4.047   5.395  14.020 -0.7396 -0.3884  0.0468
13919TIP3    H163248   4.072   5.356  14.104  1.4469  1.4735  0.3145
13919TIP3    H263249   4.080   5.334  13.955 -2.2915 -1.7569  0.4805
13920TIP3   OH263250   6.459   6.394  15.669  0.2022  1.1834 -0.0137
13920TIP3    H163251   6.448   6.299  15.669  0.9900  1.0821 -0.3217
13920TIP3    H263252   6.408   6.424  15.594  1.3907  0.8078 -1.0012
13921TIP3   OH263253   2.232   2.585   3.661 -0.3166  0.5631 -0.1456
13921TIP3    H163254   2.203   2.671   3.690 -0.6440  1.1893 -2.1832
13921TIP3    H263255   2.328   2.590   3.662 -0.3323  0.8450  0.0329
13922TIP3   OH263256   6.706   1.850  12.164  0.7222 -0.2805  0.3013
13922TIP3    H163257   6.725   1.935  12.204 -1.1924 -0.5216  1.8127
13922TIP3    H263258   6.704   1.789  12.238  0.9938 -1.4478 -0.6418
13923TIP3   OH263259   0.052   6.131   4.419 -0.0604 -0.1240 -0.1766
13923TIP3    H163260  -0.037   6.163   4.432 -0.3504 -1.4046  1.1558
13923TIP3    H263261   0.053   6.044   4.460  2.0137  0.1984  0.5542
13924TIP3   OH263262   5.804   3.214  16.390 -0.3722  0.2454 -0.1396
13924TIP3    H163263   5.866   3.152  16.430 -0.0124  1.2003  0.8355
13924TIP3    H263264   5.753   3.247  16.464  0.9023  2.7270 -0.3081
13925TIP3   OH263265   4.118   1.516  10.888  0.2475 -0.1250 -0.7070
13925TIP3    H163266   4.023   1.529  10.882  0.4026  0.7734 -1.3280
13925TIP3    H263267   4.146   1.501  10.798  0.5057 -1.8383 -0.3537
13926TIP3   OH263268   4.208   1.723  16.235  0.2795  0.1850 -0.0228
13926TIP3    H163269   4.203   1.642  16.185  2.1946  0.7884 -1.2577
13926TIP3    H263270   4.148   1.710  16.308 -2.4625 -0.7814 -2.3834
13927TIP3   OH263271   1.221   5.768  14.597 -0.5216  0.7197 -0.3742
13927TIP3    H163272   1.183   5.744  14.681  2.1059 -0.3906  0.5432
13927TIP3    H263273   1.186   5.856  14.579  1.8463  2.6162  3.7199
13928TIP3   OH263274   6.341   5.529  14.026  0.5821 -0.5185  0.2818
13928TIP3    H163275   6.262   5.550  13.978  0.8390 -0.3258 -0.0601
13928TIP3    H263276   6.412   5.562  13.971  0.8559  0.0647  0.9726
13929TIP3   OH263277   4.019   6.588   1.989 -0.1390  0.2619 -0.4066
13929TIP3    H163278   4.029   6.667   2.042 -0.5070 -0.3989  0.6637
13929TIP3    H263279   4.005   6.620   1.900 -0.8301  1.4066  0.1077
13930TIP3   OH263280   5.854   0.838  15.937  0.2568 -0.5479  0.2288
13930TIP3    H163281   5.772   0.838  15.889  1.3082 -2.4192 -1.6873
13930TIP3    H263282   5.896   0.921  15.915  0.5117 -1.1838 -1.7970
13931TIP3   OH263283   5.037   2.234   6.204 -0.5869 -0.0295 -0.4955
13931TIP3    H163284   5.122   2.241   6.160 -1.0400  1.7680 -1.1186
13931TIP3    H263285   5.057   2.189   6.286  1.3434  2.2528  0.3391
13932TIP3   OH263286   2.971   6.521  13.117 -0.7219 -0.5592 -0.2383
13932TIP3    H163287   2.919   6.562  13.047 -1.7087 -0.2418  0.6663
13932TIP3    H263288   2.915   6.525  13.194  1.0768  0.8151  1.0457
13933TIP3   OH263289   5.803   6.106   3.858 -0.0428  0.0824  0.4329
13933TIP3    H163290   5.856   6.185   3.843  0.1365  0.2680  2.0043
13933TIP3    H263291   5.782   6.075   3.770  2.0707  0.4269 -0.2273
13934TIP3   OH263292   2.977   3.163  14.560 -0.1151  0.3359  0.6753
13934TIP3    H163293   3.055   3.108  14.554  0.8982  1.8199 -0.0852
13934TIP3    H263294   2.914   3.111  14.610 -0.0072 -2.4396 -1.9420
13935TIP3   OH263295   6.118   3.487  16.528 -0.2998 -0.1205 -0.3917
13935TIP3    H163296   6.034   3.499  16.484  0.6902  0.2061 -2.2445
13935TIP3    H263297   6.115   3.548  16.602 -1.0908  0.9884 -1.3220
13936TIP3   OH263298   4.320   1.400   5.615  0.1262 -0.3863 -0.1629
13936TIP3    H163299   4.363   1.315   5.623  1.4260  0.1203 -1.5350
13936TIP3    H263300   4.392   1.463   5.612 -0.8440  0.8695  1.7714
13937TIP3   OH263301   1.589   3.550  12.224  0.3890 -0.2396  0.5504
13937TIP3    H163302   1.528   3.502  12.168 -0.0633  0.5707  0.3343
13937TIP3    H263303   1.622   3.485  12.286 -0.1326 -0.8454  0.1951
13938TIP3   OH263304   2.526   6.504  17.200  0.2011 -0.6743 -0.1257
13938TIP3    H163305   2.469   6.553  17.259 -2.7721 -0.6019 -2.8574
13938TIP3    H263306   2.615   6.524  17.229 -1.1117  0.4265  3.3796
13939TIP3   OH263307   0.265   3.696   5.229  0.0412  0.2993 -0.1048
13939TIP3    H163308   0.355   3.724   5.217  0.1504 -0.5817 -1.5462
13939TIP3    H263309   0.216   3.776   5.249  1.3600  0.5734  2.1453
13940TIP3   OH263310   1.744   1.907   3.007 -0.1708  0.0212 -0.1163
13940TIP3    H163311   1.704   1.879   2.925  0.5360 -0.3344 -0.3412
13940TIP3    H263312   1.810   1.840   3.026  0.0317  0.3811  0.4668
13941TIP3   OH263313   3.444   1.998  16.533 -0.3648  0.3477 -0.8300
13941TIP3    H163314   3.434   1.958  16.619 -0.9435  0.3440 -0.9010
13941TIP3    H263315   3.365   1.972  16.485 -0.4743  1.0978 -1.0632
13942TIP3   OH263316   0.118   3.406   5.446 -0.2068  0.0147  0.5908
13942TIP3    H163317   0.083   3.327   5.406  1.5034  0.2923 -1.5190
13942TIP3    H263318   0.204   3.380   5.479  0.6978  1.1642 -0.7962
13943TIP3   OH263319   1.245   4.940  13.690  0.4464 -0.3755  0.1083
13943TIP3    H163320   1.239   4.948  13.785  0.2457 -1.8765  0.2443
13943TIP3    H263321   1.174   4.881  13.667  1.2506 -0.9988 -0.8250
13944TIP3   OH263322   6.195   4.252   5.514  0.1668 -0.3759 -0.1888
13944TIP3    H163323   6.163   4.162   5.506 -0.2163 -0.1439 -1.3931
13944TIP3    H263324   6.162   4.296   5.436 -2.3590  1.6452  1.8970
13945TIP3   OH263325   2.759   5.327   2.622 -0.4247  0.3243 -0.0373
13945TIP3    H163326   2.826   5.393   2.639 -0.9613  0.6707  0.7676
13945TIP3    H263327   2.808   5.247   2.603  0.2307  0.3309  1.5118
13946TIP3   OH263328   2.353   4.363   5.908  0.4463 -0.1675 -0.0097
13946TIP3    H163329   2.393   4.276   5.903 -0.4085 -0.5832  0.2704
13946TIP3    H263330   2.417   4.416   5.956  0.0751 -1.1810  1.6506
13947TIP3   OH263331   0.394   0.595  13.480 -0.4324 -0.1975 -0.7006
13947TIP3    H163332   0.472   0.544  13.503 -0.0278  0.8923  0.3850
13947TIP3    H263333   0.406   0.616  13.387  0.9944  0.6704 -0.3359
13948TIP3   OH263334   4.529   1.075  12.534  0.2321  0.3009 -0.0676
13948TIP3    H163335   4.462   1.112  12.591  0.0436  1.1833 -0.8489
13948TIP3    H263336   4.505   1.105  12.446  1.3885  0.2575 -0.4060
13949TIP3   OH263337   1.961   5.046  16.242  0.3958 -0.0126  0.0727
13949TIP3    H163338   2.048   5.073  16.271  0.4580  3.0836 -2.6823
13949TIP3    H263339   1.962   4.951  16.249  3.0901  0.1195  2.4994
13950TIP3   OH263340   4.780   2.480  16.523 -0.2725  0.6741  0.1635
13950TIP3    H163341   4.758   2.569  16.495  0.6259  0.8514  0.0220
13950TIP3    H263342   4.705   2.453  16.577 -0.8463  1.2709 -0.3174
13951TIP3   OH263343   5.216   1.015   1.372  0.0574 -0.2786 -0.0911
13951TIP3    H163344   5.265   1.026   1.454 -0.2204  1.0968 -0.0868
13951TIP3    H263345   5.129   1.049   1.392  0.7461  2.6166 -1.6964
13952TIP3   OH263346   2.819   0.176   4.446  0.2867 -0.1958  0.6970
13952TIP3    H163347   2.863   0.220   4.518 -1.6515 -0.6324  2.1998
13952TIP3    H263348   2.742   0.135   4.487 -1.5566  0.6255 -1.8274
13953TIP3   OH263349   5.437   5.816  16.379 -0.4736  0.1226  0.5719
13953TIP3    H163350   5.344   5.796  16.390 -0.5818 -0.8350 -1.6805
13953TIP3    H263351   5.475   5.734  16.346  0.9405  0.8282  0.3894
13954TIP3   OH263352   5.777   0.237  15.847  0.4774  0.1016 -0.0980
13954TIP3    H163353   5.845   0.264  15.910  0.3668 -1.1322  0.5537
13954TIP3    H263354   5.715   0.186  15.899 -1.1790  1.5466 -0.6030
13955TIP3   OH263355   2.206   0.795   2.501  0.2831 -0.3538 -0.8781
13955TIP3    H163356   2.267   0.722   2.506  2.5800  1.4214 -1.8620
13955TIP3    H263357   2.175   0.795   2.410  0.9701  0.3932 -1.1222
13956TIP3   OH263358   1.210   2.489   3.429  0.3920  0.1745 -0.1817
13956TIP3    H163359   1.136   2.431   3.408 -0.0826  0.5899  0.3564
13956TIP3    H263360   1.250   2.507   3.344  0.8118 -1.3015 -0.3166
13957TIP3   OH263361   5.260   2.260   0.089  0.7221 -0.0675  0.0792
13957TIP3    H163362   5.254   2.260   0.185 -0.0995  0.3821  0.0345
13957TIP3    H263363   5.319   2.188   0.069 -0.9646 -1.7077  0.8274
13958TIP3   OH263364   5.639   1.379   4.298 -0.0096  0.3446 -0.2611
13958TIP3    H163365   5.609   1.334   4.220  0.8480 -0.1817 -0.2965
13958TIP3    H263366   5.699   1.317   4.339 -1.2161  0.2010  1.3518
13959TIP3   OH263367   5.390   0.027  14.216  0.0874 -0.3989 -0.3972
13959TIP3    H163368   5.453  -0.024  14.167 -0.2032 -2.3032  1.1612
13959TIP3    H263369   5.432   0.043  14.301 -0.2034  1.1404 -0.5339
13960TIP3   OH263370   2.682   2.739   2.098  0.0293  0.3778  0.1269
13960TIP3    H163371   2.671   2.756   2.004  2.1430  0.1368 -0.1947
13960TIP3    H263372   2.775   2.719   2.108  0.2031  2.2160  2.5742
13961TIP3   OH263373   2.715   6.774   3.302  0.0867  0.3757  0.3147
13961TIP3    H163374   2.803   6.753   3.331 -0.2246  1.7994  2.4171
13961TIP3    H263375   2.705   6.867   3.322 -1.4001  0.5644 -1.2010
13962TIP3   OH263376   4.392   0.056  14.500 -0.1714  0.3225 -0.3352
13962TIP3    H163377   4.460   0.100  14.449  1.2807  0.3548  1.5570
13962TIP3    H263378   4.437   0.028  14.580 -1.9508 -1.3351  0.1147
13963TIP3   OH263379   1.631   5.218  12.904 -0.0986  0.2601 -0.4727
13963TIP3    H163380   1.705   5.268  12.938  0.9145 -0.6556 -1.2778
13963TIP3    H263381   1.559   5.239  12.962  1.6997 -1.6625  2.5708
13964TIP3   OH263382   6.788   4.885   5.791  0.1726  0.1996  0.6390
13964TIP3    H163383   6.782   4.849   5.702  1.8527  0.4511  0.4005
13964TIP3    H263384   6.701   4.871   5.828 -0.9104  1.1485 -1.4333
13965TIP3   OH263385   1.690   0.304   5.161 -0.0137  0.0770  0.5027
13965TIP3    H163386   1.696   0.357   5.241 -1.4352  0.9451  0.0544
13965TIP3    H263387   1.756   0.343   5.103  0.1240  0.2751  0.7864
13966TIP3   OH263388   2.303   6.556  15.505 -0.3860  0.4649  0.3102
13966TIP3    H163389   2.251   6.588  15.578 -0.0316 -1.4946  1.4473
13966TIP3    H263390   2.340   6.473  15.536  1.0179  0.3718 -1.5316
13967TIP3   OH263391   4.992   4.166  12.481  0.3639  0.5603 -0.2902
13967TIP3    H163392   4.952   4.206  12.558  0.1630  0.7396 -0.4869
13967TIP3    H263393   5.062   4.111  12.516 -0.2584 -0.0027  0.0776
13968TIP3   OH263394   4.346   1.138   4.535 -0.0523  0.4577  0.0879
13968TIP3    H163395   4.345   1.048   4.569  0.4410  0.2166 -0.5290
13968TIP3    H263396   4.262   1.148   4.492 -0.3446  0.4878  0.6554
13969TIP3   OH263397   2.821   3.847  16.817  0.1381 -0.3272  0.6376
13969TIP3    H163398   2.778   3.917  16.767 -0.1592  0.3138  1.7752
13969TIP3    H263399   2.894   3.890  16.862 -0.1982 -0.6909  1.5443
13970TIP3   OH263400   4.826   5.074  16.731  0.0687 -0.0562 -0.4165
13970TIP3    H163401   4.884   5.065  16.806  1.8466 -2.7547 -2.0104
13970TIP3    H263402   4.770   4.996  16.735  0.0777 -0.1475 -1.7427
13971TIP3   OH263403   2.833   1.402  15.958  0.1777 -0.1889  0.0131
13971TIP3    H163404   2.882   1.336  15.909  0.0903  1.0369 -1.7886
13971TIP3    H263405   2.741   1.380  15.943  0.1549 -0.2080  0.1827
13972TIP3   OH263406   6.238   2.378  10.750  0.6371  0.1466 -0.3058
13972TIP3    H163407   6.324   2.408  10.778  0.5035  1.3023 -1.1087
13972TIP3    H263408   6.176   2.426  10.806  0.4700  0.1422 -0.4875
13973TIP3   OH263409   5.583   4.724  10.389  0.2403 -0.1299  0.1551
13973TIP3    H163410   5.667   4.728  10.436  0.6321 -1.3268 -0.4346
13973TIP3    H263411   5.555   4.816  10.383  1.2663  0.2375  0.7862
13974TIP3   OH263412   1.652   5.166  11.759  0.2299 -0.0713  0.2427
13974TIP3    H163413   1.588   5.214  11.811  2.0114  1.6933  0.8821
13974TIP3    H263414   1.673   5.089  11.812 -1.4625 -0.7597 -0.0532
13975TIP3   OH263415   5.238   6.127   0.037  0.0713 -0.3405  0.0508
13975TIP3    H163416   5.282   6.050   0.075  0.5772 -0.5840 -1.0305
13975TIP3    H263417   5.298   6.200   0.055 -0.8154 -0.0137  1.8703
13976TIP3   OH263418   2.633   6.702  12.482 -0.8902  0.8035  0.1342
13976TIP3    H163419   2.607   6.784  12.439 -0.6894  0.4917 -0.5921
13976TIP3    H263420   2.572   6.693  12.555  0.0198  2.3618  1.1189
13977TIP3   OH263421   5.174   1.331   2.103  0.0645 -0.0554 -0.3005
13977TIP3    H163422   5.142   1.371   2.184 -0.3883  0.1959 -0.5996
13977TIP3    H263423   5.140   1.387   2.034 -0.0725 -0.6178 -0.6953
13978TIP3   OH263424   3.411   2.113   2.908  0.8672 -0.0651 -0.5133
13978TIP3    H163425   3.347   2.184   2.901  0.3365 -0.2827  1.7063
13978TIP3    H263426   3.463   2.120   2.828  0.4305  2.4398 -0.6260
13979TIP3   OH263427   1.960   6.775  17.099 -0.1783  0.3363  0.0794
13979TIP3    H163428   1.959   6.852  17.156 -2.1512  0.4925 -0.1240
13979TIP3    H263429   2.042   6.730  17.121  1.2610  2.7371 -0.1601
13980TIP3   OH263430   3.963   0.925   0.369  0.1834 -0.0270  0.2570
13980TIP3    H163431   3.913   0.850   0.338 -0.6129 -0.0841  1.6597
13980TIP3    H263432   4.019   0.949   0.294 -0.2974 -1.3571 -0.5417
13981TIP3   OH263433   5.066   4.352  17.024 -0.3705  0.0508 -0.2414
13981TIP3    H163434   5.037   4.351  17.115  0.8146 -1.0106  0.1532
13981TIP3    H263435   5.151   4.395  17.026  1.8334 -3.9862 -0.0754
13982TIP3   OH263436   4.011   6.250   2.434  0.7723  0.6563  0.1358
13982TIP3    H163437   3.927   6.258   2.388  0.9343 -0.5564 -0.3834
13982TIP3    H263438   4.075   6.237   2.365  1.0304 -1.1160  0.6863
13983TIP3   OH263439   1.173   3.895  17.281  0.0591 -0.4536 -0.5765
13983TIP3    H163440   1.140   3.978  17.248 -0.5032 -1.3370 -2.3312
13983TIP3    H263441   1.269   3.903  17.276  0.0120  0.2492 -0.3246
13984TIP3   OH263442   5.884   5.006  16.311  0.5057  0.1599 -0.0706
13984TIP3    H163443   5.921   5.080  16.264 -0.1061  1.2450  1.1265
13984TIP3    H263444   5.821   5.045  16.373 -1.0553 -1.4828 -0.5801
13985TIP3   OH263445   5.957   6.390  15.981 -0.5424 -0.6167  0.1631
13985TIP3    H163446   5.868   6.375  16.010 -0.6999 -0.3690 -0.1861
13985TIP3    H263447   5.964   6.343  15.898 -0.8188  0.6133 -0.5774
13986TIP3   OH263448   1.479   5.452   2.841  0.0571  0.2159 -0.5710
13986TIP3    H163449   1.490   5.522   2.905  1.7101 -1.2264  0.7871
13986TIP3    H263450   1.385   5.447   2.825 -0.5005 -0.1589  2.6369
13987TIP3   OH263451   5.975   1.331   0.608 -0.2056 -0.0924  0.5995
13987TIP3    H163452   6.032   1.258   0.631 -0.5682 -0.7135 -0.4278
13987TIP3    H263453   5.898   1.290   0.568  0.4183  0.9240 -1.7132
13988TIP3   OH263454   2.524   3.565   5.323 -0.4863  0.2873 -0.7643
13988TIP3    H163455   2.482   3.482   5.344  0.1022  0.1947  0.0599
13988TIP3    H263456   2.455   3.630   5.335 -0.5732  0.0656 -0.0411
13989TIP3   OH263457   0.218   0.859   4.564  0.3006  0.6861  0.2114
13989TIP3    H163458   0.244   0.933   4.509  0.8501  0.7587  0.5622
13989TIP3    H263459   0.218   0.784   4.504  0.3213  0.8665 -0.0174
13990TIP3   OH263460   2.040   3.938   0.038 -0.3928  0.3210  0.0668
13990TIP3    H163461   2.086   4.012   0.077  2.2021 -1.0062 -0.3448
13990TIP3    H263462   1.964   3.977  -0.005  0.9568  2.7819 -0.2052
13991TIP3   OH263463   6.516   0.902  13.427 -0.4141  0.3382 -0.4231
13991TIP3    H163464   6.464   0.898  13.507  0.9661 -0.1905  0.4669
13991TIP3    H263465   6.607   0.893  13.456  0.0914 -0.2085 -2.0733
13992TIP3   OH263466   1.737   1.098   1.850 -0.0030  0.7041 -0.3580
13992TIP3    H163467   1.798   1.031   1.882 -1.5801  0.1355  1.5028
13992TIP3    H263468   1.682   1.051   1.787 -2.1751 -0.2208  2.1453
13993TIP3   OH263469   3.420   2.172  13.882  0.1505  0.0886 -0.6667
13993TIP3    H163470   3.462   2.192  13.966 -0.8792  1.5788 -0.4978
13993TIP3    H263471   3.459   2.089  13.855  1.8446  0.5179  0.3961
13994TIP3   OH263472   1.840   3.182   3.333  0.1665 -0.2228 -0.2159
13994TIP3    H163473   1.800   3.161   3.249 -0.0538 -0.9915  0.0802
13994TIP3    H263474   1.924   3.136   3.332 -0.5428 -1.5801  0.6467
13995TIP3   OH263475   5.010   4.267  12.212  0.0140  0.0107  0.2989
13995TIP3    H163476   4.995   4.221  12.295  1.7589  0.3554  0.8214
13995TIP3    H263477   5.083   4.220  12.171 -2.1738 -1.4626 -2.0558
13996TIP3   OH263478   4.342   2.917   0.086 -0.1023 -0.3819  0.0113
13996TIP3    H163479   4.384   2.986   0.036 -0.4518  1.4076  2.1154
13996TIP3    H263480   4.412   2.880   0.139 -0.3801 -0.0868  0.5854
13997TIP3   OH263481   0.291   2.881   0.944 -0.4871 -0.0637 -0.2761
13997TIP3    H163482   0.330   2.798   0.915 -0.2181  0.4875 -1.4918
13997TIP3    H263483   0.197   2.870   0.930 -0.5468 -0.4788  0.3900
13998TIP3   OH263484   0.101   0.188   4.386  0.4470 -1.0163 -0.4026
13998TIP3    H163485   0.099   0.203   4.480 -1.2317 -0.4125 -0.5254
13998TIP3    H263486   0.194   0.192   4.363  0.6924  1.2829  0.8528
13999TIP3   OH263487   4.637   3.487   3.091  0.0682  0.1439 -0.3998
13999TIP3    H163488   4.600   3.460   3.007  0.3592 -0.1179 -0.4452
13999TIP3    H263489   4.576   3.454   3.157  0.0024  0.0803 -0.4946
14000TIP3   OH263490   1.051   3.222  11.541 -0.1118 -0.3172  0.3144
14000TIP3    H163491   1.055   3.316  11.561  1.3648 -0.1618 -0.6531
14000TIP3    H263492   1.068   3.179  11.625  2.8241  0.3124  0.0784
14001TIP3   OH263493   1.026   6.156   6.065 -0.2372  0.0743  0.0612
14001TIP3    H163494   0.972   6.082   6.036 -0.3000  1.2160 -2.8390
14001TIP3    H263495   0.971   6.233   6.048  1.0741  1.0172  0.0676
14002TIP3   OH263496   2.618   0.990  12.795  0.2843 -0.2062 -0.4139
14002TIP3    H163497   2.525   0.978  12.772  0.2606 -2.3112  0.6708
14002TIP3    H263498   2.617   1.013  12.888  0.9334 -2.3389  0.1446
14003TIP3   OH263499   1.588   0.990  16.660 -1.1727 -0.4749 -0.2516
14003TIP3    H163500   1.620   1.073  16.693 -2.4540  0.7345 -1.9574
14003TIP3    H263501   1.549   0.947  16.737 -1.3191  0.9005  0.4639
14004TIP3   OH263502   6.194   3.279  16.368  0.1644 -0.3445 -0.8322
14004TIP3    H163503   6.147   3.343  16.423 -0.6425 -1.2152 -0.4928
14004TIP3    H263504   6.217   3.328  16.289  1.4140  0.9587  0.3054
14005TIP3   OH263505   3.769   2.008   2.315 -0.0291 -0.3016 -0.2913
14005TIP3    H163506   3.788   2.063   2.239  0.2026  0.4351  0.2961
14005TIP3    H263507   3.833   1.936   2.309 -0.2322 -0.4309 -0.9710
14006TIP3   OH263508   6.000   3.575  15.667  1.1234 -0.1272  0.3423
14006TIP3    H163509   6.000   3.488  15.707  0.1756  0.0726  0.7885
14006TIP3    H263510   5.929   3.622  15.711  1.0563  0.5917 -0.5140
14007TIP3   OH263511   3.661   3.554  13.391 -0.1878 -0.5714 -0.8216
14007TIP3    H163512   3.572   3.522  13.372 -0.9707  0.6477  0.6680
14007TIP3    H263513   3.691   3.499  13.464 -1.1450  1.3233  1.0699
14008TIP3   OH263514   5.712   4.375   5.605 -0.1465  0.3178  0.0370
14008TIP3    H163515   5.730   4.380   5.699  0.4016  1.9643 -0.1454
14008TIP3    H263516   5.781   4.427   5.564 -1.1941  0.7824 -1.1792
14009TIP3   OH263517   5.799   5.145  10.960  0.1428  0.3081 -0.3312
14009TIP3    H163518   5.868   5.194  11.006  0.3387 -0.7019  0.4984
14009TIP3    H263519   5.760   5.090  11.029 -2.6124  2.0740 -0.4386
14010TIP3   OH263520   1.836   1.881   3.980 -0.4801  0.2424 -0.1969
14010TIP3    H163521   1.927   1.863   3.954 -0.3115  0.9018 -0.0919
14010TIP3    H263522   1.845   1.939   4.056 -0.9898  0.0931 -0.0234
14011TIP3   OH263523   6.254   3.382   5.737  0.0287 -0.0054  0.5828
14011TIP3    H163524   6.265   3.322   5.811 -1.3849  0.1674  0.9595
14011TIP3    H263525   6.178   3.436   5.762 -1.2849 -0.8161 -1.5763
14012TIP3   OH263526   0.887   2.995  13.196 -0.2164 -0.3401 -0.2547
14012TIP3    H163527   0.901   3.069  13.255  0.2155 -1.7444  1.4376
14012TIP3    H263528   0.910   3.029  13.109  0.0657  1.4708  0.5032
14013TIP3   OH263529   0.442   3.138   0.097 -0.1031 -0.2542  0.1233
14013TIP3    H163530   0.366   3.140   0.156 -1.2367 -0.6976 -1.2945
14013TIP3    H263531   0.422   3.069   0.034  1.0599  0.2527 -0.8233
14014TIP3   OH263532   1.369   1.396   3.946  0.1016  0.0610 -0.9921
14014TIP3    H163533   1.351   1.488   3.927 -1.1343 -0.2396 -1.3521
14014TIP3    H263534   1.418   1.365   3.870  0.9410  0.5343 -0.6530
14015TIP3   OH263535   0.664   4.690   4.965 -0.2152  0.0705  0.3730
14015TIP3    H163536   0.668   4.679   5.060 -0.7328  0.1322  0.4063
14015TIP3    H263537   0.570   4.696   4.946 -0.1254 -0.2615 -0.1797
14016TIP3   OH263538   5.477   4.274  11.729 -0.3619  0.2010  0.1070
14016TIP3    H163539   5.502   4.184  11.710  0.9477  0.1509  1.9865
14016TIP3    H263540   5.447   4.309  11.644 -0.1283 -1.7370 -0.7889
14017TIP3   OH263541   1.421   2.435   3.732 -0.0449 -0.3856 -0.0661
14017TIP3    H163542   1.515   2.424   3.744 -0.1147 -1.5540 -0.5790
14017TIP3    H263543   1.384   2.421   3.819  0.3797  1.6487  0.4701
14018TIP3   OH263544   0.421   0.825   2.404  0.0709 -0.1818  0.2384
14018TIP3    H163545   0.492   0.880   2.437 -0.6316  0.0289  1.4337
14018TIP3    H263546   0.352   0.833   2.470 -0.8185 -0.8860 -0.5929
14019TIP3   OH263547   1.312   3.177  17.248 -0.4045 -0.4511 -0.1992
14019TIP3    H163548   1.348   3.091  17.226 -1.6021 -1.1121  0.3953
14019TIP3    H263549   1.318   3.227  17.166 -0.8967 -1.5220 -0.8992
14020TIP3   OH263550   2.606   3.816   0.289  0.3938 -0.1385  0.5853
14020TIP3    H163551   2.698   3.835   0.304 -0.0228  1.1919  1.5377
14020TIP3    H263552   2.585   3.862   0.207  1.0349 -2.0328 -0.6824
14021TIP3   OH263553   2.669   4.470   4.803  0.0635  0.2706 -0.1167
14021TIP3    H163554   2.653   4.508   4.717 -0.1296  0.4902  0.0140
14021TIP3    H263555   2.634   4.381   4.797 -0.0293  0.3148 -0.2380
14022TIP3   OH263556   0.137   1.622   5.788 -0.3711  0.6119 -0.3840
14022TIP3    H163557   0.144   1.593   5.697  1.0670  0.1986 -0.1573
14022TIP3    H263558   0.225   1.652   5.810 -0.3111 -0.7689  1.3650
14023TIP3   OH263559   3.210   3.007  13.167 -0.7115 -0.2531  0.3633
14023TIP3    H163560   3.294   3.043  13.140 -1.5174  0.7431 -0.8511
14023TIP3    H263561   3.183   3.062  13.241  0.0533 -1.0642  1.2614
14024TIP3   OH263562   5.430   3.182   5.751 -0.3954  0.3836  0.3295
14024TIP3    H163563   5.424   3.251   5.817  0.2943  1.1430 -0.3861
14024TIP3    H263564   5.524   3.176   5.731 -0.4721 -0.6434  0.2692
14025TIP3   OH263565   5.370   3.059  13.573  0.1554 -0.0507 -0.1687
14025TIP3    H163566   5.313   3.106  13.512  0.3376  0.7766  0.2984
14025TIP3    H263567   5.355   3.101  13.657  0.7233 -0.4814  0.1499
14026TIP3   OH263568   1.371   4.959   4.272  0.4330  0.1310  0.0605
14026TIP3    H163569   1.283   4.938   4.242  0.3334  1.1112 -0.3580
14026TIP3    H263570   1.361   5.043   4.317  1.1337  0.1915  0.1076
14027TIP3   OH263571   6.429   2.172  12.555  0.3745 -0.3184  0.0547
14027TIP3    H163572   6.499   2.112  12.531  0.2595 -0.4892  0.1418
14027TIP3    H263573   6.361   2.115  12.593  1.6417  0.1955  3.2739
14028TIP3   OH263574   0.326   6.207  14.625 -0.4301 -0.1664 -0.8181
14028TIP3    H163575   0.254   6.237  14.680 -0.2353  0.5524 -0.9550
14028TIP3    H263576   0.339   6.277  14.561 -0.0568 -0.5928 -1.2186
14029TIP3   OH263577   0.908   1.108   4.984  0.1187  0.1380 -0.5001
14029TIP3    H163578   0.892   1.037   4.922  0.3827  0.6892 -1.2151
14029TIP3    H263579   0.958   1.172   4.933  0.8202  0.3468  0.4473
14030TIP3   OH263580   2.221   6.225   3.662  0.0256  0.1393  0.4163
14030TIP3    H163581   2.212   6.209   3.756  0.1630  3.1744  0.9992
14030TIP3    H263582   2.315   6.215   3.646  0.0968  0.2640  0.7429
14031TIP3   OH263583   3.892   6.331  14.192 -0.5111  0.0396  0.0334
14031TIP3    H163584   3.858   6.372  14.113 -1.9797  0.4403  0.8529
14031TIP3    H263585   3.981   6.367  14.202 -0.9916  1.3912 -0.4310
14032TIP3   OH263586   1.240   4.723  14.502 -0.0993 -0.1441 -0.1195
14032TIP3    H163587   1.165   4.677  14.539  0.6584 -0.9809  0.4047
14032TIP3    H263588   1.295   4.744  14.578 -0.4974  1.7477 -0.3398
14033TIP3   OH263589   4.485   2.660   4.486  0.1490  0.3238  0.1324
14033TIP3    H163590   4.546   2.699   4.423  0.0134 -0.0145 -0.2142
14033TIP3    H263591   4.398   2.681   4.450  0.0500  1.2349  0.8860
14034TIP3   OH263592   1.036   3.267   2.966  0.4417 -0.6181  1.0687
14034TIP3    H163593   0.986   3.342   2.999  1.7430  1.0156 -0.5837
14034TIP3    H263594   1.111   3.306   2.920  1.7475 -2.9632  1.1495
14035TIP3   OH263595   4.711   2.001   2.135  0.4657  0.2463 -0.1056
14035TIP3    H163596   4.734   1.913   2.103  0.3155  0.5291 -1.0070
14035TIP3    H263597   4.637   2.027   2.081  0.8946  1.1792 -0.2356
14036TIP3   OH263598   1.828   0.309   4.211  0.1631  0.2639 -0.1034
14036TIP3    H163599   1.803   0.321   4.303 -0.9953 -2.6460  0.0052
14036TIP3    H263600   1.922   0.292   4.213  0.5453  2.2868  0.3151
14037TIP3   OH263601   2.264   1.057  17.052  0.0061  0.1781  0.0098
14037TIP3    H163602   2.311   0.983  17.013  1.5326  0.4414  1.2918
14037TIP3    H263603   2.171   1.033  17.046  0.3522 -0.7677 -1.7201
14038TIP3   OH263604   5.440   2.886  14.278 -1.0169 -0.3494 -0.5798
14038TIP3    H163605   5.400   2.811  14.235 -1.6195  0.7316 -1.9369
14038TIP3    H263606   5.367   2.936  14.315 -0.6242 -0.3814  0.2740
14039TIP3   OH263607   0.503   4.242   0.337 -0.0628 -0.8148 -1.0670
14039TIP3    H163608   0.539   4.179   0.399 -0.4343  0.5446  0.5608
14039TIP3    H263609   0.413   4.256   0.365  0.3892  1.4025 -0.5883
14040TIP3   OH263610   4.705   4.052  15.748  0.0233 -0.1681  0.0315
14040TIP3    H163611   4.695   4.020  15.837  0.4412  0.8792  0.4559
14040TIP3    H263612   4.628   4.108  15.734 -0.0841 -0.3947 -0.2957
14041TIP3   OH263613   3.411   2.888  15.641 -0.4003 -0.2227 -0.2980
14041TIP3    H163614   3.326   2.880  15.686 -0.5612  0.7470 -0.4239
14041TIP3    H263615   3.428   2.982  15.638  1.2660 -0.4670  0.8220
14042TIP3   OH263616   1.788   1.607   4.020 -0.1515  0.3317  0.6713
14042TIP3    H163617   1.760   1.687   3.976  0.1021  1.6870  2.9113
14042TIP3    H263618   1.848   1.565   3.958 -2.1640  0.6031 -1.5371
14043TIP3   OH263619   3.779   0.148   5.518 -0.1299 -0.0765  0.4174
14043TIP3    H163620   3.844   0.084   5.546  1.4794 -0.1287 -3.1737
14043TIP3    H263621   3.713   0.097   5.471 -0.1119  0.5709 -0.3255
14044TIP3   OH263622   3.412   5.622   5.096 -0.7288  0.2613 -0.2203
14044TIP3    H163623   3.499   5.628   5.134 -0.9258  1.2999  0.0859
14044TIP3    H263624   3.415   5.678   5.019 -1.2655  0.7178  0.0795
14045TIP3   OH263625   0.552   5.501  15.807  0.0807 -0.4274 -0.4169
14045TIP3    H163626   0.578   5.413  15.780  1.7156  0.2908 -1.2512
14045TIP3    H263627   0.572   5.505  15.901 -2.6763 -1.8777  0.2804
14046TIP3   OH263628   2.501   2.930  12.588 -0.3691  0.3707  0.1314
14046TIP3    H163629   2.559   2.984  12.641  2.2217 -0.9254 -1.3213
14046TIP3    H263630   2.503   2.844  12.630 -0.0449 -0.0828 -0.8134
14047TIP3   OH263631   3.377   0.916   5.415 -0.4225 -0.3375 -0.0644
14047TIP3    H163632   3.347   1.002   5.386 -0.0440 -0.2519 -0.2034
14047TIP3    H263633   3.299   0.874   5.453 -0.5511  0.1564  0.2144
14048TIP3   OH263634   1.388   4.623  11.871  0.1047  0.3800 -0.2005
14048TIP3    H163635   1.367   4.620  11.964  5.0873  2.3205  1.1209
14048TIP3    H263636   1.421   4.536  11.850  0.2591  0.3440  0.1912
14049TIP3   OH263637   1.572   2.666   6.752  0.8651  0.2629 -0.4703
14049TIP3    H163638   1.505   2.644   6.687  0.0155 -0.8551  0.7505
14049TIP3    H263639   1.572   2.591   6.812  1.2568  1.4991  1.1082
14050TIP3   OH263640   4.512   4.489   2.158  0.2778  0.4250  0.2770
14050TIP3    H163641   4.560   4.497   2.240 -0.7872  1.5231  0.8061
14050TIP3    H263642   4.580   4.486   2.090  1.1251  0.5504  1.1179
14051TIP3   OH263643   3.970   1.391  13.943  0.2156  0.0062 -0.2567
14051TIP3    H163644   4.002   1.342  13.867  0.6383 -0.9166  0.5005
14051TIP3    H263645   3.889   1.347  13.967  1.4820 -1.4726  1.4938
14052TIP3   OH263646   4.561   1.931   5.123  0.2407  0.1345 -0.0098
14052TIP3    H163647   4.504   1.955   5.049  1.1691  0.3624 -0.6640
14052TIP3    H263648   4.517   1.967   5.199 -0.0857  1.0358 -0.6078
14053TIP3   OH263649   1.225   4.721  16.758  0.1468 -0.1124 -0.1565
14053TIP3    H163650   1.173   4.794  16.792  0.6458  0.0056  0.3582
14053TIP3    H263651   1.192   4.708  16.669  1.0735  1.7163 -0.7955
14054TIP3   OH263652   5.991   4.162  16.516 -0.3913  0.3665 -0.0937
14054TIP3    H163653   6.046   4.145  16.440 -0.9883  0.0705 -0.4568
14054TIP3    H263654   5.990   4.080  16.564  0.4487  0.7153  0.5364
14055TIP3   OH263655   4.905   0.023   0.126 -0.0616  0.2207 -0.2427
14055TIP3    H163656   4.812   0.030   0.148  0.2290  0.3200  0.9823
14055TIP3    H263657   4.949   0.082   0.188  0.8540 -0.1311 -0.5455
14056TIP3   OH263658   1.002   4.742  15.264  0.2008 -0.5954  0.4766
14056TIP3    H163659   1.026   4.830  15.235 -0.3836 -0.6151 -0.0690
14056TIP3    H263660   1.083   4.691  15.256  0.3869 -0.2565  0.2224
14057TIP3   OH263661   4.389   5.900   3.504  0.3451 -0.0010 -0.1981
14057TIP3    H163662   4.447   5.976   3.502 -0.3585  0.5455 -0.0764
14057TIP3    H263663   4.355   5.893   3.415  1.1553 -0.7626 -0.4554
14058TIP3   OH263664   1.271   2.930   2.059  0.5205 -0.1640 -0.5132
14058TIP3    H163665   1.311   2.991   2.121 -1.0063 -0.6850  1.0223
14058TIP3    H263666   1.257   2.850   2.110 -1.8000 -0.2411 -1.1952
14059TIP3   OH263667   1.142   3.664  17.049  0.0625 -0.0852 -0.3672
14059TIP3    H163668   1.194   3.617  16.983  0.7346 -0.3326  0.3331
14059TIP3    H263669   1.165   3.756  17.037  1.9684 -0.3586  1.0747
14060TIP3   OH263670   2.779   5.995  16.601 -1.0537 -0.5776 -0.4931
14060TIP3    H163671   2.802   5.906  16.574 -0.0987 -0.2071 -0.9428
14060TIP3    H263672   2.699   6.014  16.553 -0.1828 -0.4793 -1.9663
14061TIP3   OH263673   2.651   2.563   5.337  0.4013  0.0866  0.3617
14061TIP3    H163674   2.659   2.521   5.422  1.2883  1.0517  0.7623
14061TIP3    H263675   2.570   2.613   5.342  0.7070  0.5441  0.8248
14062TIP3   OH263676   4.970   1.135   2.479  0.3179 -0.1727 -0.1718
14062TIP3    H163677   4.912   1.199   2.437  0.0639 -0.9810 -1.0656
14062TIP3    H263678   4.917   1.056   2.487  0.5940 -0.2356  1.0450
14063TIP3   OH263679   4.483   2.419   0.442  0.5010  0.2417 -0.1485
14063TIP3    H163680   4.552   2.364   0.406 -0.5025 -0.6584 -0.7458
14063TIP3    H263681   4.409   2.408   0.382  0.0278  1.6607  0.1392
14064TIP3   OH263682   5.889   3.845  13.852  0.1495 -0.3389 -0.7160
14064TIP3    H163683   5.890   3.817  13.943 -0.7807 -0.1368 -0.6354
14064TIP3    H263684   5.895   3.941  13.857  1.4830 -0.4018 -0.9241
14065TIP3   OH263685   4.188   6.256   1.557  0.4515  0.7844 -0.0248
14065TIP3    H163686   4.269   6.233   1.602  0.0870  0.7875  0.6369
14065TIP3    H263687   4.149   6.325   1.610  0.1017  0.9053 -0.4327
14066TIP3   OH263688   3.538   0.914  12.464 -0.0996  0.1551  0.2434
14066TIP3    H163689   3.617   0.924  12.411  1.8903 -1.1434  2.8331
14066TIP3    H263690   3.485   0.850  12.415  0.1343  1.4431 -1.7856
14067TIP3   OH263691   6.327   2.935  11.237  0.3389  0.4341 -0.1768
14067TIP3    H163692   6.413   2.967  11.211 -0.2582 -0.3478 -3.3393
14067TIP3    H263693   6.344   2.853  11.284  1.2881 -0.0926 -1.4239
14068TIP3   OH263694   3.030   4.986  11.299 -0.6736 -0.0577  0.1007
14068TIP3    H163695   3.114   4.939  11.299 -1.5343 -1.6498  1.0021
14068TIP3    H263696   2.971   4.929  11.249 -1.1634  1.1721 -0.7413
14069TIP3   OH263697   5.747   3.681  15.077  0.4784  0.1918  1.0526
14069TIP3    H163698   5.738   3.594  15.036  0.7546  0.3708  0.6092
14069TIP3    H263699   5.793   3.664  15.159 -2.7059 -0.5789  2.7597
14070TIP3   OH263700   2.945   4.514  17.153 -0.2182  0.1779 -0.5610
14070TIP3    H163701   2.938   4.501  17.248  2.6324  0.9944 -0.2022
14070TIP3    H263702   2.942   4.425  17.117  1.5553 -0.3658  0.5382
14071TIP3   OH263703   2.615   4.061   1.472 -0.2065  0.5700  0.1322
14071TIP3    H163704   2.545   4.115   1.436 -1.7981 -2.1186 -0.9268
14071TIP3    H263705   2.670   4.039   1.397 -2.9289 -4.1381 -0.7119
14072TIP3   OH263706   4.450   4.015  14.162 -0.3765 -0.0183  0.8441
14072TIP3    H163707   4.382   4.025  14.229  0.6997  0.8406  1.8355
14072TIP3    H263708   4.437   4.091  14.104 -2.0087 -1.3473 -0.6037
14073TIP3   OH263709   2.723   0.957   2.894 -0.1804 -0.0171  0.0749
14073TIP3    H163710   2.730   0.914   2.979  1.4472 -1.7843 -0.9468
14073TIP3    H263711   2.644   0.919   2.855  0.9373 -1.6767 -0.5901
14074TIP3   OH263712   3.788   1.105   0.924 -0.1617  0.1302 -0.0502
14074TIP3    H163713   3.737   1.042   0.975 -1.1169  0.0030 -1.1523
14074TIP3    H263714   3.734   1.124   0.848  1.2830  0.2752 -1.0583
14075TIP3   OH263715   1.094   3.822   4.434  0.9502 -0.3125  0.5807
14075TIP3    H163716   1.090   3.728   4.446 -0.8981 -0.1557  1.3973
14075TIP3    H263717   1.022   3.842   4.374  0.3465  0.7537  1.6359
14076TIP3   OH263718   3.354   4.661  16.201 -0.3466  0.0373  0.3923
14076TIP3    H163719   3.271   4.704  16.181  0.1008  0.6185 -0.2268
14076TIP3    H263720   3.369   4.601  16.128  0.7991  1.4443 -0.5636
14077TIP3   OH263721   0.654   5.708   5.172  0.7503 -0.0664 -0.3962
14077TIP3    H163722   0.571   5.746   5.201  0.5580 -0.3542 -0.5663
14077TIP3    H263723   0.699   5.780   5.128  0.7991  0.2186  0.1226
14078TIP3   OH263724   5.699   4.311   4.368  0.1753  0.9110  0.7065
14078TIP3    H163725   5.608   4.294   4.393 -0.5189  2.1663 -0.8733
14078TIP3    H263726   5.749   4.297   4.449 -0.8915 -3.6996  0.7043
14079TIP3   OH263727   4.766   4.216   4.615 -0.1015 -0.2457  0.0533
14079TIP3    H163728   4.674   4.223   4.590 -0.0783  1.3655  0.3883
14079TIP3    H263729   4.797   4.136   4.572 -1.6417 -0.7569 -0.1051
14080TIP3   OH263730   3.692   3.635  15.283  0.0705 -0.1597  0.3402
14080TIP3    H163731   3.706   3.729  15.278  1.3389 -0.4034 -0.7643
14080TIP3    H263732   3.780   3.597  15.285 -0.4107 -1.4422 -1.5400
14081TIP3   OH263733   1.858   6.734   0.756 -0.5844 -0.3716 -0.2932
14081TIP3    H163734   1.817   6.761   0.674  0.2084 -1.7162 -1.1525
14081TIP3    H263735   1.951   6.752   0.744 -0.5588  0.1585  0.6193
14082TIP3   OH263736   4.424   1.343  15.611 -0.2536  0.0614  0.0757
14082TIP3    H163737   4.450   1.430  15.581  0.0852 -0.1760 -0.3214
14082TIP3    H263738   4.465   1.282  15.549  1.4593 -0.5103  1.7154
14083TIP3   OH263739   5.348   5.555   1.669  0.0983  0.2561  0.9734
14083TIP3    H163740   5.383   5.510   1.746 -0.9233  0.7764  1.7506
14083TIP3    H263741   5.410   5.534   1.599 -0.6632 -2.9003  1.1724
14084TIP3   OH263742   0.865   2.206  15.941  0.3548 -0.2338  0.1579
14084TIP3    H163743   0.832   2.187  16.028 -0.4134  1.4921  0.2577
14084TIP3    H263744   0.787   2.229  15.890  0.8743 -0.6039 -0.8255
14085TIP3   OH263745   3.154   4.313   2.153  0.8260 -0.0214 -0.1233
14085TIP3    H163746   3.219   4.355   2.209  0.7848  0.6260 -0.5512
14085TIP3    H263747   3.189   4.225   2.138  0.3813 -0.5250  1.6628
14086TIP3   OH263748   3.501   4.084   1.462  0.1371 -0.2342  0.8406
14086TIP3    H163749   3.525   4.173   1.491 -2.1579  0.9303 -0.7016
14086TIP3    H263750   3.560   4.067   1.389  1.3920 -0.4823  1.8898
14087TIP3   OH263751   2.090   2.914  13.388 -0.7076  0.7276  0.2925
14087TIP3    H163752   2.133   2.883  13.467 -0.2105  1.7310  0.4204
14087TIP3    H263753   2.017   2.853  13.374 -0.8300  0.5842  1.5469
14088TIP3   OH263754   4.958   4.223   2.189  0.1695 -0.1391  0.3603
14088TIP3    H163755   4.891   4.262   2.133  0.5333 -0.6954 -0.4680
14088TIP3    H263756   5.041   4.245   2.146  0.4100 -1.3064  0.2270
14089TIP3   OH263757   3.004   3.624   6.070  0.9503 -0.6986 -0.6943
14089TIP3    H163758   2.925   3.639   6.122  0.1994  2.5579 -2.6095
14089TIP3    H263759   3.075   3.622   6.134 -0.2771  0.2304  0.7342
14090TIP3   OH263760   2.641   2.540   1.540 -0.1600  0.5831 -0.1453
14090TIP3    H163761   2.584   2.614   1.523 -1.8525 -0.9995 -1.5962
14090TIP3    H263762   2.610   2.471   1.480  1.3468 -1.2790  1.1442
14091TIP3   OH263763   5.482   1.997   3.290 -0.3228  0.1559  0.2575
14091TIP3    H163764   5.466   2.004   3.384 -1.4764  0.0644  0.0758
14091TIP3    H263765   5.472   2.087   3.258 -0.0289  0.1716  0.2137
14092TIP3   OH263766   1.078   6.058  11.940 -0.2142 -0.6214  0.5782
14092TIP3    H163767   1.013   5.990  11.922 -0.8805  0.2577 -0.4005
14092TIP3    H263768   1.155   6.032  11.891 -0.4140 -0.7493  0.3335
14093TIP3   OH263769   3.215   2.510   5.415 -0.4445 -0.1219 -0.5394
14093TIP3    H163770   3.227   2.529   5.508 -0.5848  0.9013 -0.7146
14093TIP3    H263771   3.189   2.418   5.412  0.6896 -0.4778  0.3383
14094TIP3   OH263772   5.130   4.387  12.803  0.6293  0.3409 -0.2641
14094TIP3    H163773   5.125   4.297  12.769  0.6856  0.5649 -0.8752
14094TIP3    H263774   5.143   4.441  12.725  1.5414  0.7910  0.1890
14095TIP3   OH263775   0.982   5.056   0.968 -0.1196 -0.2756  0.5451
14095TIP3    H163776   1.039   5.098   0.904  1.0109  0.2300  1.8664
14095TIP3    H263777   0.950   5.128   1.022 -0.9234 -0.7213  0.6631
14096TIP3   OH263778   4.408   1.903  12.013  0.6539  0.5249  0.2360
14096TIP3    H163779   4.468   1.900  11.938  2.0102 -0.8216  1.3262
14096TIP3    H263780   4.339   1.841  11.991  0.8365  0.4329 -0.0787
14097TIP3   OH263781   0.701   5.438  12.494  0.0386 -0.7117  0.0202
14097TIP3    H163782   0.785   5.464  12.458 -0.7141 -0.0247 -1.2721
14097TIP3    H263783   0.695   5.486  12.577 -0.1950  1.2888 -1.1034
14098TIP3   OH263784   3.092   2.121   0.311 -0.0159 -0.0064 -0.7325
14098TIP3    H163785   3.157   2.104   0.243  0.6147 -0.9352  0.0771
14098TIP3    H263786   3.025   2.174   0.269  0.9976  0.4968 -1.7380
14099TIP3   OH263787   6.502   2.081  13.735 -0.3825 -0.0800 -0.3705
14099TIP3    H163788   6.438   2.051  13.799 -1.4409 -0.1193 -1.4231
14099TIP3    H263789   6.450   2.128  13.669  0.8202  1.0047 -0.5725
14100TIP3   OH263790   3.004   4.133   1.385  0.0910 -0.1331  0.5740
14100TIP3    H163791   3.035   4.180   1.308  0.2656  0.2094  0.8553
14100TIP3    H263792   3.083   4.102   1.429 -0.0136 -0.4707  0.5280
14101TIP3   OH263793   4.454   1.302  10.952  0.0298 -0.7538  0.2264
14101TIP3    H163794   4.433   1.211  10.933  2.2558 -0.9463 -1.5286
14101TIP3    H263795   4.474   1.341  10.867 -1.6158  1.5931  0.8720
14102TIP3   OH263796   4.528   4.899  15.936 -0.1063 -0.0733 -0.1903
14102TIP3    H163797   4.551   4.914  16.027 -0.1046  0.0149 -0.2039
14102TIP3    H263798   4.434   4.886  15.936  0.1172 -1.8386  0.0570
14103TIP3   OH263799   4.802   5.938  11.618  1.0576 -0.8251  0.3524
14103TIP3    H163800   4.881   5.984  11.590 -0.3110 -0.5294 -3.2848
14103TIP3    H263801   4.740   6.008  11.639  1.0519 -1.0466  1.0713
14104TIP3   OH263802   0.823   3.555   1.965  0.3708 -0.2493  0.8358
14104TIP3    H163803   0.733   3.527   1.952  0.3930 -0.1327  0.4297
14104TIP3    H263804   0.819   3.650   1.967  0.6457 -0.1991 -0.4165
14105TIP3   OH263805   1.368   0.168  15.101  0.3792  0.6289  0.7460
14105TIP3    H163806   1.278   0.145  15.125 -0.1520  0.5794 -1.2493
14105TIP3    H263807   1.360   0.226  15.026  2.0532 -2.3328 -1.8978
14106TIP3   OH263808   2.844   1.916   6.220  0.4148 -0.2993  0.3866
14106TIP3    H163809   2.770   1.936   6.278 -1.4874 -0.6310 -1.8643
14106TIP3    H263810   2.891   2.000   6.211 -0.1474  0.1047  1.1560
14107TIP3   OH263811   3.170   5.229   0.958 -0.1610  0.3561  0.0739
14107TIP3    H163812   3.176   5.134   0.959  0.6853  0.4013 -0.6888
14107TIP3    H263813   3.090   5.248   0.910 -0.5016  0.0307  0.5076
14108TIP3   OH263814   1.219   4.740   1.266  0.3683  0.1607  0.4102
14108TIP3    H163815   1.279   4.809   1.238  1.9954 -0.6764  1.7501
14108TIP3    H263816   1.267   4.659   1.248 -1.0330 -0.5928 -0.0193
14109TIP3   OH263817   6.081   4.077   1.862 -0.2193 -0.3802 -0.1727
14109TIP3    H163818   6.021   4.134   1.910  1.5064  1.5887 -0.3043
14109TIP3    H263819   6.143   4.047   1.928  0.9648  0.7281 -0.7609
14110TIP3   OH263820   2.135   2.480  12.828 -0.2742 -0.7251  0.3528
14110TIP3    H163821   2.186   2.514  12.901 -1.1487  1.1814  0.0988
14110TIP3    H263822   2.181   2.510  12.750 -0.5042 -0.9792  0.1160
14111TIP3   OH263823   2.092   1.475  12.372 -0.1067 -0.6910 -0.0695
14111TIP3    H163824   2.011   1.481  12.422  0.3396 -1.9674  0.8416
14111TIP3    H263825   2.064   1.479  12.280 -1.1933 -0.9939  0.2432
14112TIP3   OH263826   6.406   3.970   0.368  0.0831 -0.1657 -0.7403
14112TIP3    H163827   6.445   3.986   0.281 -0.8891  2.8073 -0.7052
14112TIP3    H263828   6.459   4.023   0.428 -0.2604 -0.9122  0.2299
14113TIP3   OH263829   3.776   5.638   3.703  0.1931 -0.2900 -0.0519
14113TIP3    H163830   3.690   5.615   3.737 -0.5311 -0.3749 -1.8654
14113TIP3    H263831   3.766   5.634   3.607  2.1188  0.0089 -0.2911
14114TIP3   OH263832   2.786   2.464  13.794  0.1305 -0.0071  0.3874
14114TIP3    H163833   2.745   2.542  13.758  0.3886  1.0388  2.3121
14114TIP3    H263834   2.871   2.459  13.750 -0.0745  0.5251 -0.0761
14115TIP3   OH263835   5.833   3.549  15.910 -0.0004 -0.0472  0.5894
14115TIP3    H163836   5.817   3.536  16.003  0.0821 -0.9194  0.4883
14115TIP3    H263837   5.794   3.473  15.868  1.3802 -0.4745  0.0564
14116TIP3   OH263838   0.280   6.024   5.241  0.4019 -0.0117 -0.0738
14116TIP3    H163839   0.303   6.076   5.318 -0.4949 -1.1356  0.9711
14116TIP3    H263840   0.329   5.942   5.251  0.1875 -0.2117 -0.6352
14117TIP3   OH263841   4.940   0.619  13.374 -0.7008  0.2264  0.2082
14117TIP3    H163842   4.979   0.551  13.319  3.3912  0.8889  2.1232
14117TIP3    H263843   5.015   0.671  13.404 -3.3014  2.7659  2.5304
14118TIP3   OH263844   6.017   2.057   2.828  0.2295  0.4636  0.1454
14118TIP3    H163845   6.102   2.014   2.823  0.1971  0.5281 -1.0045
14118TIP3    H263846   5.994   2.053   2.921  1.8466  1.1777  0.5865
14119TIP3   OH263847   6.203   3.639   6.061 -0.3398  0.1995 -0.8289
14119TIP3    H163848   6.273   3.697   6.091 -0.6611  0.6512 -0.9519
14119TIP3    H263849   6.146   3.628   6.137 -0.2211 -0.0380 -0.7744
14120TIP3   OH263850   3.217   2.418   0.335 -0.7322 -0.1175 -0.3689
14120TIP3    H163851   3.233   2.482   0.266 -0.7214 -0.8936 -1.0881
14120TIP3    H263852   3.267   2.451   0.410 -1.5894  1.2844 -0.3939
14121TIP3   OH263853   5.064   0.256   6.287  0.0796 -0.1882  0.0399
14121TIP3    H163854   5.003   0.188   6.318 -0.2485  0.6506  1.2877
14121TIP3    H263855   5.008   0.329   6.264  0.4899 -0.0779 -0.5935
14122TIP3   OH263856   5.090   2.766  16.132  0.1114  0.1548 -0.4073
14122TIP3    H163857   5.116   2.679  16.099 -1.7480  0.4726 -2.8430
14122TIP3    H263858   5.059   2.813  16.054 -1.6515  1.9932  1.3416
14123TIP3   OH263859   5.845   3.021  15.009  0.1614  0.5193  0.2147
14123TIP3    H163860   5.910   2.953  15.019  1.7516  1.8067 -1.0486
14123TIP3    H263861   5.764   2.975  14.986  0.8459 -1.0204  0.8891
14124TIP3   OH263862   6.346   0.933  12.661  0.2619 -0.1476  1.1891
14124TIP3    H163863   6.436   0.907  12.683  0.5471  1.1472  1.6198
14124TIP3    H263864   6.343   1.026  12.683 -0.8440  0.0868  0.0611
14125TIP3   OH263865   3.165   1.900  12.044 -0.1912 -0.7290  0.0597
14125TIP3    H163866   3.177   1.973  11.983 -1.4028 -0.0461  0.6429
14125TIP3    H263867   3.077   1.911  12.079  0.4664 -1.1503  1.9124
14126TIP3   OH263868   6.300   1.182  15.337 -0.2893  1.0814  0.3570
14126TIP3    H163869   6.288   1.174  15.242  0.3440  1.8098  0.2082
14126TIP3    H263870   6.225   1.136  15.374 -1.0924  1.6733 -0.5047
14127TIP3   OH263871   4.433   1.299  13.902  0.9694 -0.0023  0.4588
14127TIP3    H163872   4.386   1.265  13.978 -0.1244  1.8426  0.6541
14127TIP3    H263873   4.374   1.280  13.828  2.4194 -2.5729 -0.0900
14128TIP3   OH263874   0.452   6.637   4.870  0.4116  0.0474 -0.1506
14128TIP3    H163875   0.511   6.675   4.935  1.4933  1.5975 -1.9733
14128TIP3    H263876   0.473   6.544   4.869  1.6590  0.3145  0.4370
14129TIP3   OH263877   1.718   1.380  15.634  0.6466  0.0397  0.2936
14129TIP3    H163878   1.707   1.401  15.726  2.8039  1.0213  0.3422
14129TIP3    H263879   1.734   1.285  15.633  0.0755 -0.0679  0.8659
14130TIP3   OH263880   2.574   0.664  11.886 -0.3281 -0.2588  0.2300
14130TIP3    H163881   2.613   0.751  11.877  0.8629 -0.8244 -0.2855
14130TIP3    H263882   2.597   0.619  11.805 -0.4297 -1.2514  0.7399
14131TIP3   OH263883   4.321   4.397   4.532 -0.2018  0.1342  0.4364
14131TIP3    H163884   4.368   4.396   4.615 -1.6141 -0.2755  1.2493
14131TIP3    H263885   4.236   4.436   4.553 -0.2042  0.9550 -1.0296
14132TIP3   OH263886   1.690   5.555   4.903  0.2564 -0.1844 -0.3983
14132TIP3    H163887   1.731   5.586   4.984  1.5576 -0.2297 -1.0356
14132TIP3    H263888   1.759   5.560   4.837 -1.0276  0.6753 -1.7127
14133TIP3   OH263889   3.899   6.302  16.796  0.2795 -0.0319  0.0735
14133TIP3    H163890   3.904   6.398  16.802  1.9305 -0.0535 -0.9177
14133TIP3    H263891   3.820   6.286  16.744  0.3819  0.8053 -0.3542
14134TIP3   OH263892   6.614   2.275   3.581  0.3340 -0.3634 -0.6851
14134TIP3    H163893   6.645   2.198   3.629  2.0878  0.6485 -0.1782
14134TIP3    H263894   6.592   2.338   3.650  0.5996  0.2386 -1.1514
14135TIP3   OH263895   6.444   5.075   3.130  0.0785  0.2633 -0.4850
14135TIP3    H163896   6.397   5.153   3.158 -2.0236 -0.9632 -0.4236
14135TIP3    H263897   6.374   5.014   3.103  1.5789 -2.1102  0.8678
14136TIP3   OH263898   1.229   2.213   3.638  0.2308 -0.0986  0.8474
14136TIP3    H163899   1.258   2.157   3.710  2.0953  0.1373  0.3297
14136TIP3    H263900   1.303   2.273   3.624 -0.9376  1.1884  0.0934
14137TIP3   OH263901   2.330   6.722   1.301  1.3810  0.6516 -0.4554
14137TIP3    H163902   2.358   6.676   1.221 -2.5221 -3.4989  0.3236
14137TIP3    H263903   2.300   6.807   1.270  0.0865 -0.7955 -3.4970
14138TIP3   OH263904   0.543   4.572  16.871 -0.6062  0.3565 -0.2732
14138TIP3    H163905   0.563   4.618  16.953 -1.8283  1.3520 -0.5209
14138TIP3    H263906   0.476   4.509  16.895  0.0966 -0.3852 -0.2231
14139TIP3   OH263907   1.629   3.406  16.961 -0.5403 -0.0026  0.6488
14139TIP3    H163908   1.657   3.389  16.871 -1.6119 -0.9558  0.4769
14139TIP3    H263909   1.601   3.320  16.993 -1.4848  0.5906  1.4232
14140TIP3   OH263910   3.744   6.038  12.294  0.2729 -0.5632  0.4166
14140TIP3    H163911   3.825   5.994  12.269  0.7647  0.0086  1.0247
14140TIP3    H263912   3.738   6.026  12.389  0.8818  1.5034  0.7183
14141TIP3   OH263913   5.876   3.726  14.105 -0.1233 -0.2611 -0.0435
14141TIP3    H163914   5.826   3.653  14.069 -0.5915 -0.2661  0.6060
14141TIP3    H263915   5.949   3.685  14.151  0.0050 -0.2920 -0.2764
14142TIP3   OH263916   3.918   6.707   1.231 -0.0154 -0.0717 -0.2791
14142TIP3    H163917   3.863   6.661   1.168 -1.8267 -0.4820  1.5475
14142TIP3    H263918   3.939   6.642   1.298 -0.3777  1.0479  0.9511
14143TIP3   OH263919   1.448   4.215  14.579  0.0283 -0.2739  0.3482
14143TIP3    H163920   1.533   4.172  14.587  0.3523 -0.3051 -2.7439
14143TIP3    H263921   1.389   4.146  14.549 -0.5824  0.3043  0.2171
14144TIP3   OH263922   2.637   0.175   3.907 -0.0839  0.3212  0.0198
14144TIP3    H163923   2.561   0.216   3.949  0.3655 -0.0342  1.2077
14144TIP3    H263924   2.633   0.083   3.935  1.4532  0.5601  1.0850
14145TIP3   OH263925   3.858   3.348  11.793  0.3204 -0.0261  0.5572
14145TIP3    H163926   3.839   3.401  11.716 -0.5139  0.0589  0.8245
14145TIP3    H263927   3.773   3.318  11.824  0.7644 -1.2800  0.5930
14146TIP3   OH263928   2.603   1.295  11.565  0.3603 -0.4252  0.2466
14146TIP3    H163929   2.670   1.230  11.587  1.1998 -0.3104 -1.8650
14146TIP3    H263930   2.627   1.373  11.615  1.1776 -0.7269  0.3287
14147TIP3   OH263931   6.392   1.272   6.265 -0.0899 -0.0149 -0.0332
14147TIP3    H163932   6.338   1.266   6.344 -1.1382  1.0730 -0.6480
14147TIP3    H263933   6.443   1.352   6.276  1.8036 -1.3182  0.7805
14148TIP3   OH263934   2.033   3.185  16.285 -1.0575  0.1070  0.1208
14148TIP3    H163935   2.075   3.265  16.315 -1.4369  0.8222 -1.1987
14148TIP3    H263936   2.033   3.193  16.189 -0.7178 -1.6582 -0.0448
14149TIP3   OH263937   2.556   4.936  13.887  0.4353 -0.3372  0.3888
14149TIP3    H163938   2.595   4.852  13.861  1.7430  0.6712 -1.0189
14149TIP3    H263939   2.591   4.999  13.824 -0.4520  1.2916  1.4883
14150TIP3   OH263940   3.152   3.701  16.051  0.3176 -0.1499 -0.4765
14150TIP3    H163941   3.134   3.790  16.082  1.5510 -0.2477  0.5647
14150TIP3    H263942   3.193   3.713  15.966 -1.2785  0.2073 -1.1973
14151TIP3   OH263943   4.563   5.093   1.221 -0.5176  0.0488 -0.2679
14151TIP3    H163944   4.488   5.097   1.280 -0.2776 -0.5589  0.0864
14151TIP3    H263945   4.532   5.039   1.147 -0.2337 -0.7363  0.1782
14152TIP3   OH263946   4.825   3.695  13.253  0.1548  0.5016 -0.4354
14152TIP3    H163947   4.755   3.692  13.318  1.0684  2.9462  0.7609
14152TIP3    H263948   4.783   3.675  13.170 -1.2564 -1.5546  0.7377
14153TIP3   OH263949   6.340   2.023   0.210  0.1295 -0.8592 -0.0842
14153TIP3    H163950   6.275   1.977   0.263 -0.9010 -1.3356 -1.7324
14153TIP3    H263951   6.385   1.954   0.161  0.8981 -0.4070 -0.0285
14154TIP3   OH263952   1.446   0.949   4.884 -0.0040  0.0124 -0.1406
14154TIP3    H163953   1.412   0.892   4.815 -0.8571 -0.0921  0.3575
14154TIP3    H263954   1.496   0.892   4.941  0.9786  0.1560 -0.8487
14155TIP3   OH263955   4.728   1.068   1.213 -0.3406  0.8763  0.0492
14155TIP3    H163956   4.785   1.007   1.259  1.8550  2.7484 -0.1030
14155TIP3    H263957   4.739   1.047   1.120  0.0786  1.1828  0.0251
14156TIP3   OH263958   6.453   3.553  12.784  0.7017 -0.0502 -0.5719
14156TIP3    H163959   6.473   3.591  12.698  1.4831 -0.9657 -0.8000
14156TIP3    H263960   6.499   3.469  12.784  0.0120 -0.4289  0.4194
14157TIP3   OH263961   6.538   6.023  15.016  0.1623  0.3664 -0.1101
14157TIP3    H163962   6.503   6.096  15.069  0.4533  0.0657  0.4997
14157TIP3    H263963   6.501   6.038  14.929 -0.0754  1.0433  0.0967
14158TIP3   OH263964   2.041   1.208  15.106 -0.0895  0.5197  0.1047
14158TIP3    H163965   2.002   1.131  15.147  1.2263  0.0174  0.4295
14158TIP3    H263966   2.048   1.272  15.177  3.1116 -0.6907  0.9943
14159TIP3   OH263967   2.605   3.532   1.892  0.3171 -0.3261  0.6121
14159TIP3    H163968   2.670   3.570   1.833  1.8068 -0.8742  1.8498
14159TIP3    H263969   2.644   3.542   1.979 -1.9599  0.7280  1.5356
14160TIP3   OH263970   2.739   4.146   3.146  0.2038  0.3933 -0.1572
14160TIP3    H163971   2.688   4.080   3.099  1.4260 -0.6936 -0.0049
14160TIP3    H263972   2.735   4.224   3.091  0.0487 -0.2928 -1.1253
14161TIP3   OH263973   4.059   0.803  16.130 -0.0474 -0.2609 -0.0821
14161TIP3    H163974   3.979   0.856  16.131 -0.2096 -0.3957 -2.3852
14161TIP3    H263975   4.127   0.863  16.100 -0.1850 -1.2337 -2.4589
14162TIP3   OH263976   0.264   3.608  15.437 -0.1986  0.0854 -0.0646
14162TIP3    H163977   0.336   3.651  15.391 -0.1595 -0.0468 -0.1275
14162TIP3    H263978   0.191   3.669  15.430  0.0425  0.4251  0.4092
14163TIP3   OH263979   1.284   5.084  14.572 -0.3447  0.1596 -0.2420
14163TIP3    H163980   1.207   5.037  14.539 -2.0542  3.5594 -1.3323
14163TIP3    H263981   1.342   5.093  14.497 -0.7043  1.0505 -0.4248
14164TIP3   OH263982   6.563   0.602  14.776 -0.0111 -0.1837 -0.2340
14164TIP3    H163983   6.561   0.612  14.681  0.4506 -0.1578 -0.2375
14164TIP3    H263984   6.479   0.638  14.805 -0.8816 -1.6988 -0.7736
14165TIP3   OH263985   6.182   4.592   3.576  0.2864  0.5359 -0.5206
14165TIP3    H163986   6.225   4.531   3.636  0.1138  1.8172  0.9407
14165TIP3    H263987   6.239   4.594   3.499  1.0294 -0.3885 -0.0050
14166TIP3   OH263988   0.005   2.039  16.634 -0.2592  0.4613  0.0868
14166TIP3    H163989   0.042   2.124  16.611  0.2694  0.6378  1.5690
14166TIP3    H263990  -0.076   2.060  16.680  0.0943  0.1685  0.8372
14167TIP3   OH263991   2.666   6.514   4.422 -0.1262 -0.4095 -0.0405
14167TIP3    H163992   2.749   6.547   4.387  0.2218 -0.8678  0.3460
14167TIP3    H263993   2.600   6.577   4.392  0.1774 -0.7336 -1.4439
14168TIP3   OH263994   5.985   6.051  14.081  0.5144  0.0599  0.9773
14168TIP3    H163995   5.941   6.045  13.997  2.1609 -1.3439  0.1771
14168TIP3    H263996   6.079   6.053  14.059  1.0378 -1.9488  2.8007
14169TIP3   OH263997   6.079   4.165  12.474 -0.1548  0.2183  0.4277
14169TIP3    H163998   6.033   4.248  12.488  0.3128  0.5845 -0.1923
14169TIP3    H263999   6.022   4.115  12.415 -0.0264  0.4413  0.1171
14170TIP3   OH264000   6.612   1.040  14.857  0.4179  0.1349  0.3318
14170TIP3    H164001   6.567   1.028  14.940  0.0408  0.8357  0.2279
14170TIP3    H264002   6.549   1.084  14.801  1.0261  0.5816 -0.0104
14171TIP3   OH264003   0.074   4.677   0.102 -0.1895 -0.2008 -0.2786
14171TIP3    H164004   0.103   4.686   0.012  0.5999  1.3093  0.1185
14171TIP3    H264005   0.071   4.582   0.116  1.1572 -0.4373 -1.4148
14172TIP3   OH264006   6.293   1.195  12.701  0.6504 -0.5381 -0.1658
14172TIP3    H164007   6.301   1.274  12.755  1.1290 -0.7449  0.0643
14172TIP3    H264008   6.242   1.223  12.625  1.0941  0.0678 -0.2413
14173TIP3   OH264009   2.017   4.057   4.413 -0.1054 -0.2086  0.0326
14173TIP3    H164010   2.060   4.120   4.354 -1.5820  1.3019  0.5445
14173TIP3    H264011   2.021   3.974   4.366  2.0542  0.2079 -0.5752
14174TIP3   OH264012   6.679   6.475  12.612 -0.2462 -0.0818  0.3832
14174TIP3    H164013   6.732   6.553  12.598 -0.7187  0.4606  1.6299
14174TIP3    H264014   6.608   6.481  12.547 -0.5344  0.7403  0.7788
14175TIP3   OH264015   6.714   2.809  14.388 -0.1203 -0.1462 -0.5205
14175TIP3    H164016   6.779   2.816  14.318  2.1123  2.3182  1.6593
14175TIP3    H264017   6.744   2.734  14.440  0.7866  0.7350  0.2489
14176TIP3   OH264018   0.936   1.755   3.905  0.0291  0.4397  0.1068
14176TIP3    H164019   0.921   1.806   3.984 -0.7817 -1.2832  1.0909
14176TIP3    H264020   0.859   1.773   3.851  0.1317  0.8769  0.1007
14177TIP3   OH264021   6.001   5.890   0.690 -0.7630  0.2228 -0.8797
14177TIP3    H164022   5.997   5.795   0.703  0.2363  0.2148 -0.5737
14177TIP3    H264023   5.910   5.917   0.681 -1.0029 -0.9384 -2.1442
14178TIP3   OH264024   2.711   2.477   4.102 -0.1331 -0.7512  0.5138
14178TIP3    H164025   2.738   2.560   4.140  1.2593 -0.8396 -0.2438
14178TIP3    H264026   2.754   2.411   4.156  0.7006 -0.9104 -0.3341
14179TIP3   OH264027   0.229   2.676   3.571 -0.4397  0.6363  0.0261
14179TIP3    H164028   0.253   2.769   3.569  0.2119  0.4866  0.6494
14179TIP3    H264029   0.163   2.667   3.503  1.6178  0.9742 -2.0695
14180TIP3   OH264030   0.393   0.874  11.120  0.0070 -0.0609 -0.0200
14180TIP3    H164031   0.359   0.951  11.166  0.1801  1.4655 -2.3729
14180TIP3    H264032   0.315   0.829  11.087 -0.1128 -1.1154  1.6194
14181TIP3   OH264033   6.778   3.602   3.967 -0.0006 -0.5058  0.1641
14181TIP3    H164034   6.696   3.610   4.016  0.3874 -0.8274  0.8781
14181TIP3    H264035   6.846   3.620   4.032  0.5164 -0.8313 -0.2857
14182TIP3   OH264036   1.256   0.332  11.677  0.4441  0.5936  0.7981
14182TIP3    H164037   1.181   0.273  11.665  0.7114  0.4889 -0.4709
14182TIP3    H264038   1.267   0.338  11.772 -0.2386 -0.5848  0.9639
14183TIP3   OH264039   2.984   3.140   0.562  0.5774 -0.3791 -0.2706
14183TIP3    H164040   2.968   3.141   0.657  1.7448 -0.8510 -0.0556
14183TIP3    H264041   2.951   3.224   0.531  1.9917  0.6144  0.8644
14184TIP3   OH264042   1.153   0.633  13.725 -0.0484  0.0515 -0.0497
14184TIP3    H164043   1.142   0.592  13.811 -0.2980 -1.1444 -0.6416
14184TIP3    H264044   1.074   0.686  13.713 -0.1425 -0.0010  0.3431
14185TIP3   OH264045   0.466   6.295  13.250  0.8733  0.1704 -0.5942
14185TIP3    H164046   0.560   6.293  13.234  0.9197  0.0247 -0.2964
14185TIP3    H264047   0.458   6.316  13.343  0.6129  0.0422 -0.5883
14186TIP3   OH264048   0.851   3.530   2.567 -0.4307 -0.0966 -0.2215
14186TIP3    H164049   0.847   3.503   2.475 -0.2679  0.4918 -0.4025
14186TIP3    H264050   0.808   3.615   2.569  1.1138  0.7089 -0.0698
14187TIP3   OH264051   3.655   5.414  16.106 -0.3128 -0.6407 -0.1496
14187TIP3    H164052   3.649   5.509  16.113 -0.2636 -0.4970 -1.7984
14187TIP3    H264053   3.687   5.398  16.017  0.2533 -2.1806  0.3030
14188TIP3   OH264054   4.247   0.132  13.386 -0.2596 -0.2213 -0.4246
14188TIP3    H164055   4.328   0.159  13.343 -0.1229  0.2578  0.1303
14188TIP3    H264056   4.192   0.211  13.385 -0.1203 -0.1070  0.5942
14189TIP3   OH264057   6.078   0.475  11.128 -0.2780 -0.0632 -0.0557
14189TIP3    H164058   6.039   0.544  11.182 -0.5808  1.0858 -1.6939
14189TIP3    H264059   6.008   0.448  11.070  0.9618  1.1055 -2.1559
14190TIP3   OH264060   3.585   5.505   3.481  0.9154  0.8489 -0.0605
14190TIP3    H164061   3.588   5.414   3.510 -0.1591  0.5932 -0.7188
14190TIP3    H264062   3.628   5.504   3.395  1.1951  1.0201  0.0785
14191TIP3   OH264063   4.918   0.107   2.454 -0.1491  0.2028 -0.1170
14191TIP3    H164064   4.968   0.181   2.419  0.5167 -0.9084 -1.5479
14191TIP3    H264065   4.924   0.039   2.387 -4.0263  0.1896 -0.6127
14192TIP3   OH264066   3.190   5.532  13.326  0.3043  0.3659  0.6050
14192TIP3    H164067   3.210   5.585  13.403  1.8554 -1.4525  1.5057
14192TIP3    H264068   3.137   5.459  13.361  0.1709  0.0626 -0.2202
14193TIP3   OH264069   2.551   3.294   4.612  0.0492  0.1702  0.4823
14193TIP3    H164070   2.540   3.227   4.545 -0.0791 -0.5201  1.1819
14193TIP3    H264071   2.604   3.362   4.570 -0.6996  0.1200 -0.5666
14194TIP3   OH264072   0.723   4.495   1.490  0.0802  0.5005  0.3400
14194TIP3    H164073   0.811   4.506   1.455 -0.2072  0.1188 -0.5066
14194TIP3    H264074   0.668   4.554   1.438 -0.1007  1.0582  1.1457
14195TIP3   OH264075   1.119   4.017   2.666 -0.1541 -0.6414 -0.5251
14195TIP3    H164076   1.162   3.940   2.704  0.4145  0.4343  1.0307
14195TIP3    H264077   1.191   4.075   2.641 -0.6530  1.0012  1.7278
14196TIP3   OH264078   4.733   3.510  11.505  0.1844 -0.0545 -0.5204
14196TIP3    H164079   4.736   3.422  11.468 -1.6573 -1.2388  2.0491
14196TIP3    H264080   4.793   3.507  11.579 -2.0955 -0.0619  1.3783
14197TIP3   OH264081   5.012   3.075  11.292 -0.1775  0.1892  0.7817
14197TIP3    H164082   5.053   3.059  11.207 -0.4698  2.7421  0.1043
14197TIP3    H264083   5.064   3.025  11.354  2.4001  1.3047 -0.4029
14198TIP3   OH264084   6.098   2.968   3.259 -0.2169 -0.2949  0.5558
14198TIP3    H164085   6.148   3.039   3.298  0.3589 -0.9983  1.1156
14198TIP3    H264086   6.131   2.889   3.301  0.0576 -1.0324 -0.9879
14199TIP3   OH264087   4.151   1.091   1.886 -0.1925 -0.4344  0.0890
14199TIP3    H164088   4.211   1.165   1.890  1.3778 -1.6690 -0.3056
14199TIP3    H264089   4.108   1.099   1.801  0.2856 -0.2289 -0.1303
14200TIP3   OH264090   0.966   1.688  13.526  0.1721  0.0356 -0.4564
14200TIP3    H164091   1.050   1.689  13.480  0.7925 -0.0411  0.6491
14200TIP3    H264092   0.936   1.598  13.520  0.8965 -0.2750  0.4129
14201TIP3   OH264093   3.498   3.860   3.752  0.0234  0.1167 -0.5100
14201TIP3    H164094   3.448   3.782   3.776 -1.3344  1.3387  0.7710
14201TIP3    H264095   3.561   3.830   3.687  0.2052 -2.2403  0.7209
14202TIP3   OH264096   5.226   5.401   4.899  0.1852 -0.1669  0.2307
14202TIP3    H164097   5.170   5.364   4.830 -1.4285 -1.2125  2.0278
14202TIP3    H264098   5.192   5.490   4.912 -1.0616 -0.7645  1.2478
14203TIP3   OH264099   5.512   0.858  13.484  0.0315 -0.1599 -1.3353
14203TIP3    H164100   5.456   0.911  13.540 -1.0905 -0.3122 -2.3054
14203TIP3    H264101   5.566   0.807  13.545  1.8250  2.7587 -0.3759
14204TIP3   OH264102   0.781   2.534   2.640 -0.0907 -0.2350  0.4187
14204TIP3    H164103   0.799   2.624   2.615 -1.4368  0.5858  2.3048
14204TIP3    H264104   0.745   2.539   2.728 -0.9369 -2.5404  0.2694
14205TIP3   OH264105   3.570   4.982  12.116  0.3676 -0.1446 -0.0691
14205TIP3    H164106   3.547   4.988  12.023 -1.0130  2.7717  0.4303
14205TIP3    H264107   3.649   5.035  12.124  1.7533 -2.1697  0.0612
14206TIP3   OH264108   6.011   5.408  15.261  0.4109  0.7294 -0.2322
14206TIP3    H164109   5.944   5.473  15.282 -0.2077 -0.2354  0.8527
14206TIP3    H264110   6.084   5.430  15.317  0.1427  0.4058  0.2483
14207TIP3   OH264111   6.714   5.063   3.360 -0.4685  1.1069  0.4489
14207TIP3    H164112   6.767   5.034   3.286  0.3466  0.2467  1.3560
14207TIP3    H264113   6.773   5.117   3.412 -0.7618  0.9417  0.9551
14208TIP3   OH264114   0.977   0.519   5.008 -0.4347 -0.6013 -0.4668
14208TIP3    H164115   1.030   0.597   4.993  1.5116 -1.7182  0.4058
14208TIP3    H264116   0.902   0.529   4.950  0.4983  1.2436 -1.3898
14209TIP3   OH264117   3.989   4.705   0.559  0.2879  0.0143  0.6167
14209TIP3    H164118   4.006   4.680   0.468 -2.0792 -1.3725  0.5003
14209TIP3    H264119   3.977   4.622   0.605 -3.9119  0.7160  1.0190
14210TIP3   OH264120   1.006   3.367  16.524 -0.1034  0.4149 -0.2568
14210TIP3    H164121   0.945   3.329  16.460 -1.4415 -1.9127  2.3279
14210TIP3    H264122   1.078   3.305  16.529 -0.6899 -0.1322  1.5351
14211TIP3   OH264123   5.422   5.107  13.718  0.3927  0.4294  0.6332
14211TIP3    H164124   5.393   5.126  13.629 -0.6020 -1.5418  0.5247
14211TIP3    H264125   5.390   5.180  13.770 -1.0123  0.4297 -0.2271
14212TIP3   OH264126   3.674   3.097   1.999 -0.3761 -0.0211  0.0162
14212TIP3    H164127   3.710   3.168   2.051  2.7980 -0.1684 -1.8491
14212TIP3    H264128   3.609   3.138   1.943  0.5307  1.2109 -0.1476
14213TIP3   OH264129   1.429   3.741  15.419  0.1929  0.9010 -0.1376
14213TIP3    H164130   1.429   3.834  15.445  0.4680  0.6249  0.8668
14213TIP3    H264131   1.405   3.743  15.326 -0.7122  1.9192  0.0957
14214TIP3   OH264132   3.357   6.605  12.680 -0.0134 -0.3592 -0.1309
14214TIP3    H164133   3.351   6.606  12.584 -0.1681  1.9030 -0.1260
14214TIP3    H264134   3.289   6.543  12.708 -1.6406  0.7985 -1.4065
14215TIP3   OH264135   3.100   6.775  12.459 -0.6103 -0.0403 -0.0307
14215TIP3    H164136   3.051   6.719  12.399  0.3381  1.0092 -1.7993
14215TIP3    H264137   3.190   6.744  12.454 -0.6878 -0.6274  1.6764
14216TIP3   OH264138   6.195   6.468  11.441  0.0809  0.1313 -0.2385
14216TIP3    H164139   6.112   6.474  11.394 -0.2530 -0.1792  0.3185
14216TIP3    H264140   6.216   6.559  11.462  0.4417  0.3107 -1.3584
14217TIP3   OH264141   5.801   5.504   4.050 -0.3141 -0.8497 -0.1697
14217TIP3    H164142   5.894   5.521   4.067 -0.2577  0.2147 -1.5616
14217TIP3    H264143   5.798   5.472   3.960 -1.4168  0.0361 -0.4503
14218TIP3   OH264144   4.055   2.054  11.813 -0.3920  0.2801 -0.0599
14218TIP3    H164145   4.081   1.964  11.794 -0.5006 -0.7043  3.9319
14218TIP3    H264146   4.136   2.098  11.839 -0.6951  0.6889  0.2081
14219TIP3   OH264147   2.245   1.114  16.615 -0.4518  0.1212 -0.4221
14219TIP3    H164148   2.158   1.103  16.654 -0.0516 -3.6295 -0.3976
14219TIP3    H264149   2.305   1.114  16.689 -0.3204  1.8842 -0.5016
14220TIP3   OH264150   6.819   1.856   5.740  0.1303 -0.3946 -0.3613
14220TIP3    H164151   6.904   1.899   5.742  0.8323 -1.5324 -3.0921
14220TIP3    H264152   6.840   1.762   5.742 -1.0324 -0.6838 -1.3191
14221TIP3   OH264153   0.928   0.860   0.520  0.2684  0.1381 -0.1141
14221TIP3    H164154   0.850   0.911   0.539  0.2520 -0.0040  0.1923
14221TIP3    H264155   0.927   0.850   0.425  0.1968  0.5896 -0.1640
14222TIP3   OH264156   2.537   4.807  14.196  0.1022 -0.2096  0.3044
14222TIP3    H164157   2.615   4.763  14.231  0.2789 -1.0913 -1.1074
14222TIP3    H264158   2.561   4.827  14.105 -1.1587 -0.0892 -0.0046
14223TIP3   OH264159   2.163   3.075   5.908 -0.2631  0.7837 -0.3672
14223TIP3    H164160   2.067   3.076   5.917 -0.2251 -0.2332  0.2357
14223TIP3    H264161   2.192   3.016   5.977  0.7650  0.6170 -0.9515
14224TIP3   OH264162   6.036   0.511  15.239 -0.2281  0.0800 -0.0045
14224TIP3    H164163   5.965   0.502  15.302  0.6537 -2.3637  0.7390
14224TIP3    H264164   6.023   0.438  15.177  0.8705  0.3720 -0.6076
14225TIP3   OH264165   4.882   5.033  16.236 -0.2660  0.6170 -0.6693
14225TIP3    H164166   4.919   5.070  16.315 -0.7965 -0.1753 -0.0464
14225TIP3    H264167   4.896   4.939  16.244  0.7115  0.6270 -2.0570
14226TIP3   OH264168   5.728   0.291   1.884  0.0648  0.5295 -0.2313
14226TIP3    H164169   5.655   0.308   1.944  1.0861  0.9172  0.9140
14226TIP3    H264170   5.765   0.377   1.867  0.3422  0.3155 -0.7203
14227TIP3   OH264171   4.698   6.249  15.272 -0.3780  0.5378  0.1660
14227TIP3    H164172   4.739   6.321  15.320  0.1963  0.1068  0.3272
14227TIP3    H264173   4.678   6.183  15.339  0.3531 -0.0313 -0.1746
14228TIP3   OH264174   5.528   1.430   2.367 -0.5557  0.2614 -0.2316
14228TIP3    H164175   5.506   1.483   2.443 -2.0054 -0.3961 -0.1753
14228TIP3    H264176   5.474   1.467   2.296  0.3760  0.5213 -0.8101
14229TIP3   OH264177   1.494   4.559   4.440  0.0284  0.2633 -0.7037
14229TIP3    H164178   1.541   4.523   4.515 -0.4794  0.7995 -0.1267
14229TIP3    H264179   1.488   4.486   4.379  0.6196 -0.1211 -0.3100
14230TIP3   OH264180   0.695   3.781   0.277  0.0518  0.0219 -0.2071
14230TIP3    H164181   0.708   3.796   0.370 -0.4288 -1.5423  0.1263
14230TIP3    H264182   0.778   3.808   0.237  0.5385 -0.0190  0.7532
14231TIP3   OH264183   0.718   1.315  16.413 -0.7051 -0.3982 -0.1988
14231TIP3    H164184   0.790   1.363  16.373 -0.1857 -0.9198  0.0875
14231TIP3    H264185   0.663   1.382  16.454 -0.6377  0.0408 -0.8182
14232TIP3   OH264186   2.327   0.383   3.113 -0.0374  0.0067  1.0490
14232TIP3    H164187   2.333   0.473   3.082  0.8090  0.3211  2.1079
14232TIP3    H264188   2.371   0.331   3.046 -3.1025 -0.0014 -1.0672
14233TIP3   OH264189   2.205   1.061   2.548 -0.0853  0.4715  0.4305
14233TIP3    H164190   2.207   0.966   2.545 -1.6261  0.4335  0.2228
14233TIP3    H264191   2.179   1.082   2.637 -0.4685  0.6808  0.2715
14234TIP3   OH264192   4.355   2.984   2.939  0.1827  1.1017  0.2789
14234TIP3    H164193   4.427   3.045   2.921  0.3265  1.3435  1.6305
14234TIP3    H264194   4.331   2.951   2.853  1.8541  1.0775 -0.2092
14235TIP3   OH264195   3.988   1.232  16.010  0.6258  0.0990  0.6636
14235TIP3    H164196   3.978   1.289  15.933  1.3925  1.8573  1.8298
14235TIP3    H264197   3.899   1.213  16.037  0.3487 -0.4063 -0.5679
14236TIP3   OH264198   5.728   5.626  11.161 -0.3966  0.1831  0.1125
14236TIP3    H164199   5.733   5.638  11.066  2.1578 -0.2146  0.1691
14236TIP3    H264200   5.688   5.706  11.193  0.8953  1.3328 -1.0904
14237TIP3   OH264201   1.361   5.029   3.569 -0.3467  0.0083  0.6862
14237TIP3    H164202   1.322   4.956   3.618 -0.7898 -0.1783  0.0654
14237TIP3    H264203   1.393   5.089   3.636  2.2804 -1.9352  1.2678
14238TIP3   OH264204   6.412   4.477   2.977  0.1062 -0.5865 -0.2694
14238TIP3    H164205   6.353   4.551   2.961  1.8942  0.5058 -2.0410
14238TIP3    H264206   6.435   4.445   2.890  1.0255 -1.8669  0.4297
14239TIP3   OH264207   0.350   1.389   1.969 -0.9462 -0.3043  0.0331
14239TIP3    H164208   0.371   1.393   1.876 -2.6913  1.4468 -0.3161
14239TIP3    H264209   0.309   1.303   1.981  0.8848 -1.2580 -0.4440
14240TIP3   OH264210   1.080   2.774   1.789  0.1396 -0.2297  0.4490
14240TIP3    H164211   1.115   2.863   1.795  1.6057 -0.8094  0.7007
14240TIP3    H264212   0.992   2.780   1.826  0.3588  1.0481  0.7721
14241TIP3   OH264213   0.918   4.096  13.871  0.3434  0.6917  0.2262
14241TIP3    H164214   0.925   4.108  13.966 -2.2940 -0.1627  0.5784
14241TIP3    H264215   0.857   4.164  13.843 -0.4931 -0.3634 -0.5280
14242TIP3   OH264216   5.316   3.127  12.039 -0.5329  0.3475  0.4681
14242TIP3    H164217   5.357   3.050  11.999 -3.4641 -1.1676  0.2567
14242TIP3    H264218   5.387   3.192  12.043  2.0025 -2.3019  0.6182
14243TIP3   OH264219   2.270   4.360  15.111  0.1652 -0.6579 -0.2209
14243TIP3    H164220   2.307   4.346  15.198 -0.6323 -0.7115  0.1110
14243TIP3    H264221   2.316   4.298  15.055  2.5987  1.2024 -0.3765
14244TIP3   OH264222   2.890   4.260  17.128 -0.2174  0.7328  0.0637
14244TIP3    H164223   2.939   4.268  17.210 -1.9499  2.3024  0.9881
14244TIP3    H264224   2.889   4.166  17.109  2.4159  0.5967  0.4347
14245TIP3   OH264225   5.847   0.633  13.835 -0.2496  0.6905  0.4683
14245TIP3    H164226   5.859   0.623  13.930 -0.2680 -0.0763  0.3916
14245TIP3    H264227   5.855   0.544  13.800  0.0090  1.0078 -0.2806
14246TIP3   OH264228   2.260   2.113  16.672 -0.0549 -0.2687  0.1923
14246TIP3    H164229   2.316   2.170  16.620 -0.1538  0.9875  1.4374
14246TIP3    H264230   2.300   2.027  16.664  0.5680  0.1174 -1.0321
14247TIP3   OH264231   0.338   1.519   5.265  0.2532 -0.1244  0.2532
14247TIP3    H164232   0.428   1.541   5.242 -0.5344  0.2503 -2.7524
14247TIP3    H264233   0.285   1.572   5.205 -2.0142  0.5127  2.7148
14248TIP3   OH264234   4.898   0.985  16.190 -0.1843  0.0098 -0.0532
14248TIP3    H164235   4.982   1.014  16.227  1.3752 -0.4892 -3.0887
14248TIP3    H264236   4.903   0.890  16.193 -1.4108 -0.0285  1.3399
14249TIP3   OH264237   6.337   2.363   4.647  1.0283 -0.5305  0.0556
14249TIP3    H164238   6.392   2.404   4.580  0.6091 -1.9916 -1.1978
14249TIP3    H264239   6.258   2.417   4.649  0.6701 -0.9931 -1.2614
14250TIP3   OH264240   5.958   1.082   4.140 -0.0078 -0.2788 -0.0587
14250TIP3    H164241   5.915   1.136   4.074 -0.9868  1.4892  1.9548
14250TIP3    H264242   5.898   1.010   4.155 -0.3636 -0.0163 -0.2110
14251TIP3   OH264243   5.139   0.970   4.778  0.2816  0.5993  0.0874
14251TIP3    H164244   5.068   1.013   4.730 -0.2603  0.3251  0.6377
14251TIP3    H264245   5.206   1.038   4.788 -0.7149  1.4289  1.2598
14252TIP3   OH264246   6.775   0.188  17.062 -0.7685  0.5257  0.7270
14252TIP3    H164247   6.857   0.183  17.013 -0.9431  1.3407  0.3495
14252TIP3    H264248   6.795   0.248  17.134 -0.8597  0.2366  0.9979
14253TIP3   OH264249   4.535   3.466   0.898  0.2130 -0.3988  0.0108
14253TIP3    H164250   4.617   3.429   0.866 -0.6055 -2.0300 -0.2692
14253TIP3    H264251   4.555   3.495   0.987  1.3728  0.2584 -0.4518
14254TIP3   OH264252   2.780   1.685  14.285  0.5407  0.3410  0.1005
14254TIP3    H164253   2.716   1.737  14.333 -1.4939 -0.3126 -1.8097
14254TIP3    H264254   2.754   1.594  14.300  0.5475  0.0921 -1.2649
14255TIP3   OH264255   1.760   4.728  14.900 -0.1303  0.0582  0.0896
14255TIP3    H164256   1.793   4.687  14.980 -2.2051 -1.9042 -0.0226
14255TIP3    H264257   1.819   4.698  14.831  0.4592  0.1381  0.5515
14256TIP3   OH264258   4.694   6.633   6.106 -0.5625  0.7430  0.1227
14256TIP3    H164259   4.766   6.572   6.092 -1.3076  0.1367 -1.1385
14256TIP3    H264260   4.733   6.706   6.154  0.6146 -0.1365  0.5096
14257TIP3   OH264261   0.258   1.428  16.696 -0.2919 -0.4019 -0.0030
14257TIP3    H164262   0.324   1.370  16.661 -0.7585 -0.5700 -0.6044
14257TIP3    H264263   0.183   1.418  16.638 -1.1613 -0.8685  1.1672
14258TIP3   OH264264   0.701   0.028   2.206  0.0085  0.6733 -0.2455
14258TIP3    H164265   0.664   0.114   2.227 -0.1009  0.1522  1.7929
14258TIP3    H264266   0.795   0.040   2.211  0.1109  1.3245 -2.7405
14259TIP3   OH264267   1.856   0.312   0.140 -0.0291 -0.2518  0.1981
14259TIP3    H164268   1.905   0.388   0.171 -0.0002 -0.0459 -0.3576
14259TIP3    H264269   1.789   0.349   0.083  0.8448 -0.7572 -1.1618
14260TIP3   OH264270   3.907   6.718  13.255 -0.4330  0.7171  0.3911
14260TIP3    H164271   3.852   6.750  13.183 -0.2696 -1.3141 -0.6586
14260TIP3    H264272   3.989   6.691  13.212  0.6634  1.8775  1.6868
14261TIP3   OH264273   0.004   2.582   0.050  0.4370 -0.1818 -0.0738
14261TIP3    H164274   0.008   2.537  -0.034 -0.4659 -1.3868  0.5222
14261TIP3    H264275   0.093   2.575   0.084  0.5135 -0.7613 -0.3782
14262TIP3   OH264276   3.368   1.757  12.939  0.2411 -0.0180 -0.0632
14262TIP3    H164277   3.367   1.850  12.963  0.4186 -0.0697  0.1480
14262TIP3    H264278   3.461   1.733  12.941  0.2944  0.0803 -1.2211
14263TIP3   OH264279   2.951   3.001  12.553  0.5130  0.4623  0.2075
14263TIP3    H164280   3.017   2.942  12.518 -0.2454  0.4151 -1.1624
14263TIP3    H264281   2.979   3.017  12.643  0.6257 -2.1707  0.6952
14264TIP3   OH264282   0.748   3.748   2.806  0.8148 -0.4029 -0.4658
14264TIP3    H164283   0.753   3.831   2.854  0.0654 -1.0486  0.7655
14264TIP3    H264284   0.771   3.771   2.716  2.4224  0.8100  0.2243
14265TIP3   OH264285   2.682   1.336   4.961  0.4503  0.4063 -0.6370
14265TIP3    H164286   2.615   1.288   5.011  1.6962  0.5522  1.2134
14265TIP3    H264287   2.718   1.271   4.900 -1.5632  0.4037 -1.8866
14266TIP3   OH264288   3.370   0.832  13.241 -0.3209 -0.4897 -0.4309
14266TIP3    H164289   3.341   0.835  13.332  1.2979  0.4952  0.0652
14266TIP3    H264290   3.322   0.758  13.204 -0.3677 -1.4327  1.4357
14267TIP3   OH264291   2.168   1.690  11.961 -0.1685  0.3045 -0.0697
14267TIP3    H164292   2.097   1.667  11.901  0.3208  0.7161 -0.8226
14267TIP3    H264293   2.189   1.608  12.006  0.1637 -0.2688 -1.2272
14268TIP3   OH264294   5.146   2.170  15.642 -0.0224  0.0615  0.0681
14268TIP3    H164295   5.165   2.194  15.552  1.5483  1.3080  0.7031
14268TIP3    H264296   5.064   2.120  15.637 -0.8997  1.6109 -1.8316
14269TIP3   OH264297   6.417   4.153  13.150  0.0957  0.1049  0.3395
14269TIP3    H164298   6.364   4.234  13.147  1.5518  1.2648  3.6512
14269TIP3    H264299   6.369   4.096  13.210  0.8029 -0.2028  0.6082
14270TIP3   OH264300   1.981   0.374   5.425  0.0713  0.1177  0.0969
14270TIP3    H164301   1.937   0.432   5.362  1.9945  1.9281  0.3952
14270TIP3    H264302   1.926   0.378   5.503 -1.4817 -0.9292 -0.8853
14271TIP3   OH264303   2.478   0.023   2.309 -0.3985  0.0285  0.0702
14271TIP3    H164304   2.391  -0.002   2.278 -0.2805  0.0555 -0.2819
14271TIP3    H264305   2.526   0.048   2.230 -0.1647  0.3025  0.2961
14272TIP3   OH264306   5.404   6.695  12.740 -0.2778  1.1475  0.6940
14272TIP3    H164307   5.309   6.706  12.738 -0.4581 -0.2690  1.2214
14272TIP3    H264308   5.418   6.607  12.773  1.2058  0.9419 -0.3864
14273TIP3   OH264309   2.880   5.190  12.787  0.2941 -0.5658 -0.2587
14273TIP3    H164310   2.842   5.172  12.874  1.1652 -1.0529  0.0259
14273TIP3    H264311   2.831   5.266  12.755 -0.2306 -0.5614  0.5376
14274TIP3   OH264312   0.523   6.706  14.323 -0.0165 -0.3927 -0.4989
14274TIP3    H164313   0.451   6.764  14.297 -1.0883 -1.0707  0.8518
14274TIP3    H264314   0.502   6.683  14.414  1.9494 -0.5614 -0.0798
14275TIP3   OH264315   3.887   5.158   0.378  0.3210  0.0954  0.1826
14275TIP3    H164316   3.807   5.171   0.327 -1.2417  0.9543  2.7230
14275TIP3    H264317   3.930   5.243   0.377 -0.8675  0.7724  2.0662
14276TIP3   OH264318   5.720   5.416   5.383  0.0262  0.8211 -0.1017
14276TIP3    H164319   5.751   5.468   5.457  0.4490 -1.1155  1.1092
14276TIP3    H264320   5.652   5.359   5.420 -0.8695  0.9480 -1.5287
14277TIP3   OH264321   5.998   6.000   5.572 -0.7844 -0.0858 -0.4578
14277TIP3    H164322   5.917   6.001   5.520 -1.6185 -0.8591  0.8209
14277TIP3    H264323   5.969   6.006   5.663  0.5165 -1.9679  0.1085
14278TIP3   OH264324   3.881   5.659   0.871  0.2917 -0.1398 -0.3299
14278TIP3    H164325   3.844   5.573   0.891  0.6258  0.0069  0.9759
14278TIP3    H264326   3.955   5.668   0.931  0.0525  1.1893 -0.2066
14279TIP3   OH264327   4.685   5.467   2.856 -0.2373  0.1669  0.4135
14279TIP3    H164328   4.735   5.433   2.930  0.8948  0.2073 -0.3243
14279TIP3    H264329   4.623   5.397   2.836  0.8989 -0.7479  0.0240
14280TIP3   OH264330   1.128   4.210  13.230 -0.7514 -0.6852  0.0632
14280TIP3    H164331   1.070   4.252  13.294 -1.0151  0.5636 -0.9687
14280TIP3    H264332   1.190   4.160  13.283  0.0130  1.5771  1.4164
14281TIP3   OH264333   0.697   6.754  12.591 -0.4500 -0.0537  0.0619
14281TIP3    H164334   0.735   6.840  12.609 -1.2069  0.5387 -1.0998
14281TIP3    H264335   0.772   6.697  12.578  0.0755  0.9582 -1.5025
14282TIP3   OH264336   0.293   4.747   6.213 -0.6929  0.3021 -0.3391
14282TIP3    H164337   0.331   4.824   6.256 -1.1923  0.0283  0.6117
14282TIP3    H264338   0.250   4.781   6.135  1.0202  0.6923 -1.1276
14283TIP3   OH264339   2.165   6.577  16.889  0.1763 -0.4128 -0.5977
14283TIP3    H164340   2.161   6.659  16.840 -2.7230  0.1960  0.5845
14283TIP3    H264341   2.208   6.600  16.971  0.9202 -0.4655 -0.9650
14284TIP3   OH264342   3.301   5.058  16.857  0.2543 -0.1255  0.8970
14284TIP3    H164343   3.314   4.964  16.842 -1.4437 -0.5729  2.1638
14284TIP3    H264344   3.230   5.082  16.797 -0.1087  0.1051  1.4213
14285TIP3   OH264345   5.292   3.531   0.694 -0.1641 -0.2516  0.6291
14285TIP3    H164346   5.362   3.549   0.757  1.0969 -0.8655 -0.5730
14285TIP3    H264347   5.223   3.595   0.715  2.0153  2.4561 -0.1434
14286TIP3   OH264348   0.009   1.148   3.304  0.3051 -0.0088 -0.5219
14286TIP3    H164349  -0.043   1.198   3.242  0.4010  2.5385  1.3735
14286TIP3    H264350  -0.044   1.148   3.384  1.4450 -0.8019  0.2423
14287TIP3   OH264351   6.568   0.463  13.386 -0.3430 -0.1040  0.2549
14287TIP3    H164352   6.480   0.458  13.423  0.7206  0.8261  3.0831
14287TIP3    H264353   6.567   0.541  13.330 -0.9812  0.6526  1.2967
14288TIP3   OH264354   5.634   0.305   3.096 -0.4987  0.2205 -0.0682
14288TIP3    H164355   5.592   0.224   3.065 -0.1220 -0.0809  0.2067
14288TIP3    H264356   5.624   0.366   3.023 -0.5693 -0.1553 -0.3759
14289TIP3   OH264357   3.842   5.834   3.064 -0.2568  0.4771  0.6665
14289TIP3    H164358   3.924   5.787   3.074  0.1429  0.3662 -2.6497
14289TIP3    H264359   3.777   5.778   3.107  1.0393 -0.4569  1.4481
14290TIP3   OH264360   1.247   0.451   5.500 -0.3494  0.2192  0.4286
14290TIP3    H164361   1.262   0.440   5.406  1.7608 -0.4296  0.8103
14290TIP3    H264362   1.334   0.467   5.536 -0.9125 -1.2398  2.5059
14291TIP3   OH264363   1.526   0.221  14.218 -0.0659 -0.1036  0.2179
14291TIP3    H164364   1.598   0.237  14.279  0.1358 -1.0184  0.2125
14291TIP3    H264365   1.454   0.273  14.253  0.0036 -0.7373  1.3214
14292TIP3   OH264366   3.518   2.222  14.880 -0.7192  0.0488 -0.0409
14292TIP3    H164367   3.444   2.244  14.824 -1.2672 -1.2823  0.1392
14292TIP3    H264368   3.571   2.161  14.828 -0.6216 -0.2852  0.4374
14293TIP3   OH264369   2.800   2.447   3.618  0.8467 -0.2330  0.3904
14293TIP3    H164370   2.820   2.458   3.711  3.0310 -1.3439  0.0789
14293TIP3    H264371   2.776   2.355   3.609  1.3607 -0.3111 -0.2541
14294TIP3   OH264372   1.115   2.588  11.132  0.4396  0.4076  0.2177
14294TIP3    H164373   1.195   2.582  11.079 -0.0121  0.5536 -0.4903
14294TIP3    H264374   1.115   2.508  11.184  1.1524  0.5034  0.3693
14295TIP3   OH264375   3.397   2.236   0.865  0.1558  0.0997  0.4274
14295TIP3    H164376   3.402   2.226   0.960 -2.0965 -1.3855  0.4335
14295TIP3    H264377   3.387   2.147   0.832 -0.2533  0.7025 -1.1159
14296TIP3   OH264378   4.993   1.771  15.581 -0.0519 -0.5848  0.3729
14296TIP3    H164379   5.029   1.686  15.606 -0.2138 -1.1392 -1.2486
14296TIP3    H264380   4.941   1.798  15.658  1.7255 -0.9316  1.7280
14297TIP3   OH264381   5.942   2.081   2.401  0.1853 -0.1475 -0.4012
14297TIP3    H164382   5.869   2.129   2.440  0.0661  0.1645 -1.0010
14297TIP3    H264383   5.925   2.082   2.307 -0.1052 -1.8481 -0.3902
14298TIP3   OH264384   4.834   1.403  13.855 -0.3598  0.1746 -0.1569
14298TIP3    H164385   4.789   1.477  13.896 -0.1596  0.5121 -0.5461
14298TIP3    H264386   4.884   1.364  13.926  0.3163  1.0106 -0.1635
14299TIP3   OH264387   3.997   6.214  17.051 -0.3518 -0.6688 -0.8923
14299TIP3    H164388   3.961   6.247  16.968 -1.1703 -1.1088 -0.7196
14299TIP3    H264389   4.055   6.283  17.081 -0.1501 -0.4406 -1.7683
14300TIP3   OH264390   4.431   4.192  17.205 -0.1047  0.4569  0.2117
14300TIP3    H164391   4.435   4.125  17.273  0.9819  0.0452 -0.2608
14300TIP3    H264392   4.386   4.150  17.131  1.1977  0.0290 -0.3379
14301TIP3   OH264393   2.767   0.573   5.454  0.2119  0.1576  0.2991
14301TIP3    H164394   2.861   0.559   5.467  0.8971  3.5476 -0.6011
14301TIP3    H264395   2.752   0.554   5.362  0.0661 -0.0602  0.3664
14302TIP3   OH264396   0.353   5.479  12.006  0.0561 -0.0566  0.9430
14302TIP3    H164397   0.264   5.513  12.012 -0.1528 -0.6904  1.4604
14302TIP3    H264398   0.403   5.550  11.965 -0.5968  0.4577  1.0300
14303TIP3   OH264399   4.895   4.580  17.208 -0.2563 -0.3159  0.4342
14303TIP3    H164400   4.971   4.602  17.262  0.7551 -0.7532 -0.7889
14303TIP3    H264401   4.827   4.643  17.236  0.5527  0.1056  1.5013
14304TIP3   OH264402   2.520   1.545   1.470 -0.5338 -0.6751  0.1175
14304TIP3    H164403   2.487   1.596   1.544  0.8626 -1.0656  1.0169
14304TIP3    H264404   2.487   1.457   1.485 -0.6189 -0.6591  0.0280
14305TIP3   OH264405   2.909   1.219   4.423  0.6122  0.0979  0.1542
14305TIP3    H164406   2.849   1.288   4.395  0.7426 -0.1817 -0.8163
14305TIP3    H264407   2.969   1.209   4.350  0.7498 -0.8737  0.4047
14306TIP3   OH264408   5.613   5.384   2.699  0.0415  0.0331  0.1022
14306TIP3    H164409   5.612   5.397   2.604  1.1502  1.4405  0.2755
14306TIP3    H264410   5.522   5.366   2.721  0.0165 -1.9286 -1.4321
14307TIP3   OH264411   5.529   6.568  14.719  0.0538  0.5319 -0.1819
14307TIP3    H164412   5.582   6.488  14.717 -0.2241  0.3579 -0.8601
14307TIP3    H264413   5.446   6.542  14.677 -0.0985  1.1313 -0.2540
14308TIP3   OH264414   4.683   3.257  16.838  0.7767  0.2345  0.6624
14308TIP3    H164415   4.741   3.310  16.784 -0.4797  0.1720 -0.7897
14308TIP3    H264416   4.608   3.314  16.855  0.8402  0.0026  1.7471
14309TIP3   OH264417   5.705   2.298  11.567  0.7686 -0.1382  0.8793
14309TIP3    H164418   5.717   2.206  11.591 -0.1954 -0.5218 -0.0874
14309TIP3    H264419   5.732   2.303  11.475  0.4654  0.4693  0.8177
14310TIP3   OH264420   1.095   6.579   1.270 -0.6929 -0.2215  0.1023
14310TIP3    H164421   1.080   6.621   1.355  0.5975  1.3645 -0.4299
14310TIP3    H264422   1.047   6.634   1.208 -2.0644 -1.6688 -0.1625
14311TIP3   OH264423   3.615   4.595   2.814 -0.7373 -0.4375 -0.2332
14311TIP3    H164424   3.625   4.628   2.903 -4.6832 -0.7398  0.4010
14311TIP3    H264425   3.694   4.542   2.799  1.0374  1.3856  2.2286
14312TIP3   OH264426   0.649   1.677  16.295  0.1865 -1.2005  0.4434
14312TIP3    H164427   0.578   1.621  16.327 -0.1864  1.7442  5.1065
14312TIP3    H264428   0.728   1.643  16.338  0.6759 -0.8591 -0.1734
14313TIP3   OH264429   0.307   1.656  10.313  0.0342 -0.4336  0.3420
14313TIP3    H164430   0.319   1.629  10.222 -1.5546 -1.3109  0.3761
14313TIP3    H264431   0.242   1.595  10.347  0.3236  0.1462  1.9580
14314TIP3   OH264432   4.153   1.278   2.523 -0.2124 -0.4676 -0.3273
14314TIP3    H164433   4.238   1.280   2.568  0.6568 -0.8195 -1.9387
14314TIP3    H264434   4.113   1.363   2.544 -0.6591 -1.3522  2.6571
14315TIP3   OH264435   5.187   4.425  11.493  0.1180  0.3078 -0.0424
14315TIP3    H164436   5.124   4.457  11.428 -0.5709  0.8488  0.8754
14315TIP3    H264437   5.142   4.353  11.537  0.7387 -0.3290 -0.4446
14316TIP3   OH264438   0.482   1.385   0.029 -0.5462 -0.3274 -0.0728
14316TIP3    H164439   0.487   1.326  -0.046 -0.1191 -2.1322  1.3263
14316TIP3    H264440   0.571   1.417   0.041 -0.2421 -1.4048  0.6873
14317TIP3   OH264441   5.924   5.176   4.012 -0.0809  0.1601 -0.0049
14317TIP3    H164442   5.882   5.203   4.094  1.4560  2.2914  0.1166
14317TIP3    H264443   6.009   5.142   4.039  0.2381  0.4250 -0.6563
14318TIP3   OH264444   2.053   2.938   0.003  0.5294 -0.7060  0.1607
14318TIP3    H164445   1.971   2.908   0.041  0.0705 -0.6909 -0.7922
14318TIP3    H264446   2.027   3.007  -0.058  1.5053  1.1332  1.7856
14319TIP3   OH264447   5.788   6.791   4.265 -0.1214  0.4680  0.5808
14319TIP3    H164448   5.818   6.710   4.224 -2.7133  0.1019 -0.6895
14319TIP3    H264449   5.725   6.763   4.331 -1.1976  1.4395 -0.0186
14320TIP3   OH264450   2.140   6.398  12.611  0.0162 -0.5303  0.4034
14320TIP3    H164451   2.102   6.333  12.670  0.7404 -1.2749  0.0734
14320TIP3    H264452   2.086   6.393  12.532  0.2995 -1.0101  0.2361
14321TIP3   OH264453   3.055   2.763  12.438 -0.5798  0.0029 -0.0291
14321TIP3    H164454   3.056   2.674  12.475  1.7979 -0.2697 -0.6627
14321TIP3    H264455   3.055   2.749  12.343 -0.7438  0.6924 -0.1336
14322TIP3   OH264456   4.511   4.591  17.103 -0.7443 -0.0867 -0.2312
14322TIP3    H164457   4.582   4.640  17.144  0.4736 -1.6018 -0.4544
14322TIP3    H264458   4.431   4.638  17.128  0.2364  0.9330  1.0679
14323TIP3   OH264459   2.391   5.276   3.861  1.0133 -0.0543  0.2524
14323TIP3    H164460   2.331   5.216   3.904  1.3546 -0.1047  0.6549
14323TIP3    H264461   2.452   5.219   3.813  0.0157  0.0163 -1.1467
14324TIP3   OH264462   5.224   6.672  11.464 -0.0447 -0.1617  0.6652
14324TIP3    H164463   5.243   6.650  11.372 -0.4228  1.3618  0.2102
14324TIP3    H264464   5.307   6.706  11.498 -0.6398  1.8846  0.0858
14325TIP3   OH264465   0.232   6.145  10.773 -0.0312  0.1707 -0.2049
14325TIP3    H164466   0.328   6.152  10.779  0.0714  0.3590 -1.8362
14325TIP3    H264467   0.200   6.234  10.787  0.0010  0.0431  0.7230
14326TIP3   OH264468   2.647   2.172  15.509 -0.1926  0.6710  0.3428
14326TIP3    H164469   2.604   2.233  15.448 -0.1057  1.9882  1.5622
14326TIP3    H264470   2.704   2.119  15.454 -2.1461  0.0059 -1.0865
14327TIP3   OH264471   3.540   2.641  15.759  0.1114  0.0890 -0.3003
14327TIP3    H164472   3.606   2.631  15.690 -0.9886 -0.8210 -1.2539
14327TIP3    H264473   3.492   2.720  15.735 -1.4922 -1.2509 -1.6735
14328TIP3   OH264474   0.803   1.485  15.555 -0.6393 -0.3151 -0.8346
14328TIP3    H164475   0.785   1.547  15.485 -0.7062  1.3995  0.6720
14328TIP3    H264476   0.717   1.462  15.591 -0.5232 -0.1761 -0.4618
14329TIP3   OH264477   3.305   4.327   6.008 -1.2034  0.4051 -0.5354
14329TIP3    H164478   3.293   4.422   6.011 -0.1007  0.6442 -2.4961
14329TIP3    H264479   3.345   4.305   6.092 -0.4109  1.8668 -0.5048
14330TIP3   OH264480   3.704   3.867   2.214 -0.1076  0.2873 -0.7334
14330TIP3    H164481   3.610   3.882   2.212 -0.5952 -1.9689  1.9759
14330TIP3    H264482   3.718   3.798   2.149 -0.8556 -1.6757  1.1292
14331TIP3   OH264483   6.720   3.510  12.317  0.3401 -0.1027 -0.2541
14331TIP3    H164484   6.634   3.469  12.332  0.3152  0.4436  1.0717
14331TIP3    H264485   6.773   3.439  12.281 -0.0755 -0.9772  0.8412
14332TIP3   OH264486   3.283   1.958   6.629 -0.3507 -0.1054 -0.2398
14332TIP3    H164487   3.340   1.884   6.651  0.2599  0.9017  1.6564
14332TIP3    H264488   3.222   1.964   6.703 -1.2736  0.4427 -1.0347
14333TIP3   OH264489   5.926   1.790   0.798 -0.0926 -0.2847 -0.2725
14333TIP3    H164490   5.960   1.701   0.800 -0.2605 -0.3496 -0.3736
14333TIP3    H264491   5.855   1.788   0.734 -0.2570 -0.1367 -0.0969
14334TIP3   OH264492   2.311   1.831  14.227  0.4399  0.3228  0.4321
14334TIP3    H164493   2.326   1.919  14.193  2.8420 -0.9254 -1.8556
14334TIP3    H264494   2.219   1.813  14.206  0.9459  0.8875 -2.4420
14335TIP3   OH264495   3.092   0.243  12.326  0.3791 -0.2620  0.0258
14335TIP3    H164496   2.999   0.219  12.317  0.5277 -1.2136  1.0338
14335TIP3    H264497   3.096   0.289  12.410  0.8646 -0.3983  0.0724
14336TIP3   OH264498   1.355   3.468  15.916  0.1232 -0.3868 -0.0853
14336TIP3    H164499   1.397   3.449  16.000  0.8379 -0.4405 -0.4565
14336TIP3    H264500   1.371   3.562  15.902  1.0347 -0.6311 -0.7304
14337TIP3   OH264501   2.190   0.499  15.328 -0.1256  0.9802 -0.6385
14337TIP3    H164502   2.208   0.449  15.407  0.0279 -0.3451 -1.5068
14337TIP3    H264503   2.230   0.585  15.345 -1.5884  1.2794  1.3839
14338TIP3   OH264504   4.372   2.497  16.625 -0.3175  0.5776  0.5477
14338TIP3    H164505   4.416   2.456  16.700 -0.4406  0.2780  0.4564
14338TIP3    H264506   4.334   2.424  16.577 -0.4137  0.7889  0.3036
14339TIP3   OH264507   6.815   0.238  14.911  0.1668  0.8835 -0.2192
14339TIP3    H164508   6.908   0.230  14.891 -0.0236 -0.4279 -0.6198
14339TIP3    H264509   6.812   0.263  15.004  0.8619 -3.1463  0.9670
14340TIP3   OH264510   0.138   3.817   4.982 -0.0755 -0.1968 -0.2266
14340TIP3    H164511   0.149   3.908   4.953 -0.1408 -0.3444 -0.7208
14340TIP3    H264512   0.046   3.810   5.007  0.2909  0.2896  1.2764
14341TIP3   OH264513   4.193   0.722  16.336 -0.7255 -0.2076  0.4877
14341TIP3    H164514   4.145   0.652  16.379 -1.3855  0.5496  1.0188
14341TIP3    H264515   4.128   0.766  16.282 -0.3076 -0.0290  0.1223
14342TIP3   OH264516   5.403   5.677  11.040  0.5659  0.2772 -0.1262
14342TIP3    H164517   5.409   5.771  11.051  1.2334  0.0807  1.2417
14342TIP3    H264518   5.316   5.662  11.002  0.5239  1.4395 -0.4952
14343TIP3   OH264519   3.443   4.403   2.916 -0.0344 -0.5555 -0.0802
14343TIP3    H164520   3.499   4.460   2.864 -1.8710  0.8747 -0.5710
14343TIP3    H264521   3.443   4.443   3.003  0.6646 -1.2323  0.2277
14344TIP3   OH264522   4.435   3.440   3.280 -0.3905 -0.7122  0.8005
14344TIP3    H164523   4.367   3.420   3.215  0.1766  0.2425 -0.0932
14344TIP3    H264524   4.415   3.529   3.309 -0.8336 -1.2421  2.1950
14345TIP3   OH264525   5.904   1.386  16.727 -0.1279 -0.8549  0.7555
14345TIP3    H164526   5.831   1.336  16.761 -2.7829  2.0397 -0.4609
14345TIP3    H264527   5.897   1.379  16.632  0.2771  0.6155  0.5946
14346TIP3   OH264528   3.215   1.520   4.960  0.1997 -0.2811  0.3516
14346TIP3    H164529   3.170   1.578   4.899 -2.6046 -0.1146  2.4670
14346TIP3    H264530   3.170   1.436   4.951  1.2192 -0.8571  0.5849
14347TIP3   OH264531   2.391   2.863  13.918 -0.8972  0.1856 -0.7007
14347TIP3    H164532   2.456   2.923  13.882 -0.7041  0.5227  0.2022
14347TIP3    H264533   2.442   2.797  13.964 -1.2418  2.4370  3.1431
14348TIP3   OH264534   4.765   5.534   5.302  0.4126  0.1214 -0.7213
14348TIP3    H164535   4.702   5.485   5.356  1.7456  0.9215  1.6316
14348TIP3    H264536   4.747   5.625   5.322  3.3475  0.3259  1.2367
14349TIP3   OH264537   0.708   0.767   3.347  0.1454 -0.7592 -0.1271
14349TIP3    H164538   0.672   0.700   3.405  0.1298 -0.6110  0.0359
14349TIP3    H264539   0.665   0.848   3.374 -0.3681 -0.8018 -0.8057
14350TIP3   OH264540   1.749   5.989   5.690 -0.0864 -0.0799  0.0174
14350TIP3    H164541   1.712   6.077   5.679  1.4426  0.5682 -0.1298
14350TIP3    H264542   1.752   5.953   5.601 -1.9040 -0.7964  0.2275
14351TIP3   OH264543   6.385   0.259   4.038  0.1823 -0.2795 -0.1571
14351TIP3    H164544   6.351   0.217   4.118 -0.7495  0.1113 -0.3421
14351TIP3    H264545   6.342   0.211   3.967  1.2682 -0.8465 -0.4338
14352TIP3   OH264546   2.908   0.667  12.428  0.3482  0.5541 -0.0039
14352TIP3    H164547   2.951   0.740  12.473  0.7955  0.2811  0.0200
14352TIP3    H264548   2.860   0.707  12.356 -0.2257  0.9822  0.6039
14353TIP3   OH264549   1.767   4.163  12.240 -0.1062 -0.8001 -0.8725
14353TIP3    H164550   1.851   4.206  12.224 -2.0267  4.0400  1.0532
14353TIP3    H264551   1.766   4.145  12.334 -1.1772 -0.9766 -0.9101
14354TIP3   OH264552   2.033   1.793  14.179 -0.9208  0.0742 -0.0449
14354TIP3    H164553   2.022   1.842  14.098  1.3202  0.6498 -0.0120
14354TIP3    H264554   2.018   1.858  14.249 -1.9183 -0.2139  0.0243
14355TIP3   OH264555   3.348   2.838   8.944  0.0616  0.1760 -0.4234
14355TIP3    H164556   3.360   2.760   8.890  1.6563 -0.4578  0.8243
14355TIP3    H264557   3.429   2.846   8.994 -1.0774  1.2226  1.3098
14356TIP3   OH264558   3.867   2.113  14.237 -0.6430 -0.3491 -0.0953
14356TIP3    H164559   3.790   2.060  14.214 -0.7530  0.3183 -1.3179
14356TIP3    H264560   3.832   2.200  14.253 -0.0850  0.0794 -1.1791
14357TIP3   OH264561   1.421   2.693  11.957 -0.2131  0.5074  0.1218
14357TIP3    H164562   1.454   2.694  12.047 -1.8789 -0.0096  0.7602
14357TIP3    H264563   1.369   2.773  11.949 -0.8305  0.0882 -0.0838
14358TIP3   OH264564   6.602   1.142   3.449  0.2000 -0.4931 -0.0378
14358TIP3    H164565   6.558   1.225   3.434  0.6779 -0.7910 -3.5586
14358TIP3    H264566   6.539   1.091   3.500 -1.7594  0.6433 -1.2193
14359TIP3   OH264567   5.396   5.188   1.477  0.7286 -0.4366  0.1239
14359TIP3    H164568   5.311   5.231   1.468  1.5615  1.2550  0.0546
14359TIP3    H264569   5.376   5.102   1.512 -0.8638  0.6333  1.9443
14360TIP3   OH264570   4.699   3.593  13.038 -0.7494  0.5603 -0.2487
14360TIP3    H164571   4.613   3.602  13.079 -1.7578  0.2852 -2.2398
14360TIP3    H264572   4.687   3.626  12.949  0.6588 -1.4626 -1.2250
14361TIP3   OH264573   0.051   4.524  15.490 -0.8363 -0.3059  0.2377
14361TIP3    H164574   0.071   4.518  15.584  0.7357  2.3202  0.1144
14361TIP3    H264575   0.132   4.500  15.446 -1.1987 -0.2917 -0.4478
14362TIP3   OH264576   5.099   3.413  13.801  0.2255  0.5613  0.3574
14362TIP3    H164577   5.029   3.431  13.739  0.1394  1.4631  0.7027
14362TIP3    H264578   5.057   3.366  13.873 -0.1619  1.6976  0.8771
14363TIP3   OH264579   2.248   5.512   0.749  0.3684  0.3561  0.3173
14363TIP3    H164580   2.279   5.576   0.812 -0.4476 -0.0834  1.1793
14363TIP3    H264581   2.254   5.556   0.664 -1.9572  2.2788  1.0976
14364TIP3   OH264582   0.035   0.061   5.146  0.4827 -0.4524 -0.2177
14364TIP3    H164583   0.120   0.018   5.156 -0.2745 -1.2978  3.1116
14364TIP3    H264584  -0.024  -0.009   5.121  0.3672 -0.2393 -0.5424
14365TIP3   OH264585   6.302   2.168   1.688  0.0640 -0.2108  0.0931
14365TIP3    H164586   6.343   2.082   1.692  2.1314  0.6416 -1.8244
14365TIP3    H264587   6.296   2.188   1.595 -0.2527  1.7903  0.5221
14366TIP3   OH264588   1.588   2.294   6.039  0.2534  0.5224 -0.2779
14366TIP3    H164589   1.663   2.339   6.000 -0.3516  0.9530 -0.9475
14366TIP3    H264590   1.610   2.287   6.131  2.1454 -1.3650 -0.8334
14367TIP3   OH264591   0.667   2.041  13.168  0.0923  0.7801  0.4350
14367TIP3    H164592   0.704   1.998  13.244  0.5982 -0.8034 -0.6751
14367TIP3    H264593   0.597   2.097  13.203  0.5902  0.3847  2.0747
14368TIP3   OH264594   1.174   5.565  13.980  0.1698  0.4929  0.1475
14368TIP3    H164595   1.240   5.522  13.925 -0.6483 -0.4722 -0.0914
14368TIP3    H264596   1.117   5.611  13.918 -0.6871 -0.5053  0.1876
14369TIP3   OH264597   3.308   1.545   1.023  0.3323 -0.1391  0.5530
14369TIP3    H164598   3.217   1.515   1.026  0.5330 -0.7874  0.1297
14369TIP3    H264599   3.332   1.542   0.931 -0.4914  3.9086  0.0940
14370TIP3   OH264600   0.980   4.181  16.881 -0.4849  0.3965  0.3457
14370TIP3    H164601   0.915   4.242  16.916 -0.5097  0.7580 -0.3416
14370TIP3    H264602   1.046   4.237  16.841  0.6570  0.0656  1.7371
14371TIP3   OH264603   1.404   0.232  12.120 -0.4703  0.0333  0.4569
14371TIP3    H164604   1.496   0.211  12.101 -1.0203 -1.4953 -0.6267
14371TIP3    H264605   1.366   0.150  12.149 -1.6001  0.5700  0.5234
14372TIP3   OH264606   0.584   5.876  16.588 -0.4336 -0.1270  0.0728
14372TIP3    H164607   0.603   5.969  16.579  0.5786 -0.1348  1.7656
14372TIP3    H264608   0.516   5.871  16.655  0.7673 -0.6714  1.2955
14373TIP3   OH264609   6.005   5.655   6.310 -0.2757 -0.7016  0.3519
14373TIP3    H164610   6.023   5.717   6.240 -0.6298  2.4288  2.9302
14373TIP3    H264611   5.915   5.626   6.293  0.2107 -1.2789 -1.3781
14374TIP3   OH264612   0.953   0.272  15.951  0.0792 -0.3870  0.1695
14374TIP3    H164613   0.918   0.184  15.938  1.1837 -0.9676  0.9787
14374TIP3    H264614   0.927   0.295  16.041 -1.6999  0.8265 -0.6371
14375TIP3   OH264615   5.758   3.390   5.734 -0.0293 -0.2016  0.4377
14375TIP3    H164616   5.715   3.304   5.727 -1.8595  0.3943  3.5348
14375TIP3    H264617   5.687   3.450   5.755  1.5378  1.7970  0.1195
14376TIP3   OH264618   1.723   6.036  12.788 -0.4138  0.0457 -0.0816
14376TIP3    H164619   1.718   6.053  12.882  0.2671  1.2608 -0.2514
14376TIP3    H264620   1.704   5.943  12.779 -0.8851  0.0052  1.2204
14377TIP3   OH264621   5.403   2.362   1.430 -0.0428  0.3841  0.6338
14377TIP3    H164622   5.406   2.369   1.526 -0.9550 -1.7105  0.8387
14377TIP3    H264623   5.332   2.422   1.405  0.1521  0.8927  1.2628
14378TIP3   OH264624   4.639   3.765   1.521 -0.1961 -0.5806 -0.2904
14378TIP3    H164625   4.705   3.830   1.495  1.2169 -2.7223 -2.3264
14378TIP3    H264626   4.555   3.807   1.504  0.6933  0.6155 -1.8232
14379TIP3   OH264627   3.162   6.399  15.441  0.6317 -0.0736  0.1858
14379TIP3    H164628   3.136   6.477  15.392  0.0592 -0.2286  0.2340
14379TIP3    H264629   3.215   6.349  15.379  1.5585  0.6708  0.3705
14380TIP3   OH264630   0.176   4.839   4.006 -0.2995  0.1554  0.3726
14380TIP3    H164631   0.125   4.912   3.969 -0.9004 -0.0902  0.7147
14380TIP3    H264632   0.198   4.869   4.094 -2.4565 -0.9799  1.3348
14381TIP3   OH264633   4.253   1.509  15.087  0.2098  0.3731 -0.0566
14381TIP3    H164634   4.248   1.489  14.994 -1.5586 -0.1398  0.1313
14381TIP3    H264635   4.338   1.474  15.115  0.3636 -0.2442 -1.2865
14382TIP3   OH264636   3.022   2.288  13.298  0.1822 -0.3461 -0.3864
14382TIP3    H164637   3.093   2.229  13.322  0.7941 -0.3205 -2.0967
14382TIP3    H264638   3.049   2.326  13.214 -0.3642  2.1000  0.4970
14383TIP3   OH264639   0.637   2.856   5.063  0.3662  0.4462 -0.1989
14383TIP3    H164640   0.665   2.942   5.094 -0.8071  0.0223  2.1330
14383TIP3    H264641   0.711   2.798   5.082  0.6641  0.7016 -0.5932
14384TIP3   OH264642   1.769   6.120   1.122  0.2282  0.0597 -0.4067
14384TIP3    H164643   1.851   6.157   1.089  0.6480  1.6030  2.2559
14384TIP3    H264644   1.704   6.188   1.107 -0.2340 -0.4837 -0.9170
14385TIP3   OH264645   4.415   3.070  14.093  0.2880  0.6280  0.2158
14385TIP3    H164646   4.481   3.001  14.092  0.7169  1.0378 -0.8310
14385TIP3    H264647   4.446   3.133  14.028 -2.7580 -0.7022 -2.6427
14386TIP3   OH264648   2.062   1.585  12.865 -0.4536 -0.3642 -0.1516
14386TIP3    H164649   2.093   1.614  12.779  1.4913  0.0783  0.6663
14386TIP3    H264650   2.141   1.585  12.920 -1.3307 -2.3918  1.1607
14387TIP3   OH264651   6.269   0.736   3.384 -0.4314 -0.2284  0.5455
14387TIP3    H164652   6.331   0.715   3.454 -0.3271  0.4459  0.6653
14387TIP3    H264653   6.243   0.652   3.348  3.2074 -0.4251 -1.8681
14388TIP3   OH264654   1.345   3.635   5.166  0.8672  0.3947  0.4740
14388TIP3    H164655   1.313   3.550   5.196 -2.0576 -0.0304 -3.3884
14388TIP3    H264656   1.348   3.689   5.245 -2.9367 -1.6095  2.1292
14389TIP3   OH264657   0.848   4.184  15.018 -0.0657  0.2340 -0.0532
14389TIP3    H164658   0.911   4.256  15.026  0.9895 -0.7187  0.2249
14389TIP3    H264659   0.856   4.135  15.100  0.6912 -1.3804 -1.0763
14390TIP3   OH264660   2.719   1.950   5.077  0.7192  0.2609 -0.2174
14390TIP3    H164661   2.710   1.871   5.130 -0.1723  0.4772 -0.0462
14390TIP3    H264662   2.768   1.921   5.000 -0.1561 -0.6005 -0.4632
14391TIP3   OH264663   1.090   2.010  15.476 -0.6003 -0.2123  0.2492
14391TIP3    H164664   1.112   2.068  15.402  0.3056 -1.2175 -0.2784
14391TIP3    H264665   1.011   2.050  15.514 -0.3368  1.0390 -0.4659
14392TIP3   OH264666   4.607   5.373  12.332 -0.0877 -0.5891  0.6122
14392TIP3    H164667   4.633   5.393  12.422  2.9674  0.4635 -0.4569
14392TIP3    H264668   4.689   5.369  12.284 -1.6508 -1.7186 -2.0487
14393TIP3   OH264669   3.913   4.482  14.367  0.5132  0.3935 -0.3250
14393TIP3    H164670   3.869   4.430  14.300 -0.4135 -0.3517  0.8590
14393TIP3    H264671   3.923   4.569  14.327 -2.2959  0.6749 -0.5095
14394TIP3   OH264672   2.419   6.303  11.122  0.2700 -0.7502 -0.5348
14394TIP3    H164673   2.404   6.226  11.068 -2.0153 -0.9285  0.3057
14394TIP3    H264674   2.456   6.268  11.203 -0.8353 -0.9851 -0.1243
14395TIP3   OH264675   3.328   5.576  10.590 -0.7437  0.0789 -0.5935
14395TIP3    H164676   3.360   5.628  10.664  0.1142 -0.7047 -0.4149
14395TIP3    H264677   3.406   5.532  10.556 -1.2475 -0.0656 -1.5658
14396TIP3   OH264678   3.446   4.409   2.327 -0.4763  0.0683  0.6023
14396TIP3    H164679   3.448   4.406   2.423 -0.8117 -0.5666  0.5895
14396TIP3    H264680   3.519   4.352   2.300 -1.1292 -0.7135  0.4702
14397TIP3   OH264681   0.048   5.999  14.609  0.6407 -0.4318 -0.0925
14397TIP3    H164682   0.052   6.051  14.528  1.1740 -0.0186  0.1905
14397TIP3    H264683   0.063   5.909  14.580  0.8884 -0.2781 -0.4538
14398TIP3   OH264684   3.632   3.754  16.131 -0.5007 -0.0462 -0.2277
14398TIP3    H164685   3.721   3.788  16.116 -0.3131 -0.3708  0.1287
14398TIP3    H264686   3.646   3.674  16.181 -1.0917  0.8424  1.4165
14399TIP3   OH264687   4.676   4.516  16.266  0.1759 -0.1243  0.3818
14399TIP3    H164688   4.655   4.523  16.173 -1.8607 -0.6697  0.7863
14399TIP3    H264689   4.717   4.430  16.274  0.8619  0.1515 -0.0954
14400TIP3   OH264690   5.097   1.371  13.996 -0.2667 -0.1856 -0.5362
14400TIP3    H164691   5.181   1.376  13.951 -0.0097 -1.2292 -0.2026
14400TIP3    H264692   5.073   1.278  13.992 -1.4652  0.1196 -0.7460
14401TIP3   OH264693   5.157   1.564  13.106 -0.0556  0.0548 -0.6184
14401TIP3    H164694   5.155   1.468  13.111  2.3742  0.1167  2.3926
14401TIP3    H264695   5.230   1.583  13.047 -0.2185  0.0559 -0.8186
14402TIP3   OH264696   6.443   0.542  16.827  0.2381 -0.2379  0.4143
14402TIP3    H164697   6.526   0.505  16.855  0.3638 -0.4742 -0.2469
14402TIP3    H264698   6.456   0.636  16.827  0.3384 -0.2544  0.8304
14403TIP3   OH264699   4.333   2.149  13.501 -0.0118 -0.1614  0.2060
14403TIP3    H164700   4.340   2.223  13.441  0.2955  0.3028  0.8030
14403TIP3    H264701   4.421   2.113  13.505 -0.1727 -0.5864 -0.1180
14404TIP3   OH264702   0.752   4.676  15.069  0.4614 -0.6057  0.8932
14404TIP3    H164703   0.666   4.717  15.059  1.4232  1.6339  1.3392
14404TIP3    H264704   0.809   4.748  15.097  2.4599 -2.0701  0.6909
14405TIP3   OH264705   4.920   6.206   0.553  0.7047 -0.0633 -0.5477
14405TIP3    H164706   4.825   6.210   0.536  0.4261 -1.8456  0.4652
14405TIP3    H264707   4.940   6.288   0.598 -0.1936  0.7139 -1.5343
14406TIP3   OH264708   3.428   5.426  11.001 -0.4949 -0.2961 -0.1040
14406TIP3    H164709   3.499   5.363  10.994  0.2212  0.3096  1.4531
14406TIP3    H264710   3.431   5.475  10.919 -0.6168 -1.7907 -1.0346
14407TIP3   OH264711   5.501   1.272   0.796  0.3904  0.0508  0.1932
14407TIP3    H164712   5.546   1.216   0.733 -0.7418  1.8303 -2.2830
14407TIP3    H264713   5.563   1.282   0.868  1.5463 -2.3785 -0.3995
14408TIP3   OH264714   6.772   0.265  15.785  0.0595 -0.1290 -0.2226
14408TIP3    H164715   6.691   0.280  15.834  0.4196  0.0129  0.3281
14408TIP3    H264716   6.765   0.174  15.756  0.4498 -0.6425  1.2375
14409TIP3   OH264717   1.764   3.377   2.051  0.4074  0.2186 -0.5404
14409TIP3    H164718   1.767   3.393   2.145 -0.2614  0.1731 -0.5117
14409TIP3    H264719   1.702   3.305   2.041 -0.0422  0.6764 -1.0802
14410TIP3   OH264720   1.804   2.068   3.233 -0.1210  0.0804 -0.1159
14410TIP3    H164721   1.785   1.997   3.172  0.0745 -0.6100  0.6169
14410TIP3    H264722   1.744   2.053   3.306  1.8289 -0.9770  1.3296
14411TIP3   OH264723   5.975   2.768  12.974 -0.1199 -0.6952 -0.3814
14411TIP3    H164724   5.908   2.781  12.907 -0.0233  0.4903 -0.2516
14411TIP3    H264725   6.057   2.767  12.926  0.0274  1.1469 -0.1730
14412TIP3   OH264726   5.626   1.457  12.764  0.0734 -0.1878  0.1075
14412TIP3    H164727   5.662   1.368  12.761  2.2751  0.6909 -0.2042
14412TIP3    H264728   5.537   1.447  12.730  0.3359 -2.2540 -0.0751
14413TIP3   OH264729   1.201   5.023   3.082  0.4432 -0.6472  0.7613
14413TIP3    H164730   1.270   5.021   3.148  0.5402 -0.2085  0.6729
14413TIP3    H264731   1.243   5.059   3.004 -0.3636  1.4613  1.2745
14414TIP3   OH264732   4.259   1.074  14.746 -0.0071 -0.2680 -0.2848
14414TIP3    H164733   4.179   1.122  14.764 -0.4475 -0.8146 -0.7755
14414TIP3    H264734   4.310   1.132  14.690  0.1670  0.2926  0.4474
14415TIP3   OH264735   5.484   4.583  10.973 -0.1016 -0.4849 -0.0898
14415TIP3    H164736   5.474   4.494  10.940  0.3317 -0.3246 -0.6705
14415TIP3    H264737   5.518   4.633  10.898  2.7069 -0.4975  1.1035
14416TIP3   OH264738   0.149   2.486   1.011  0.4155 -0.0514  0.0197
14416TIP3    H164739   0.177   2.438   1.089 -0.5816  1.1715  1.1680
14416TIP3    H264740   0.088   2.427   0.968  3.0288 -1.8442 -1.3377
14417TIP3   OH264741   2.727   0.476   5.197 -0.1273 -0.5841  0.2134
14417TIP3    H164742   2.709   0.384   5.176  0.2107 -0.6524  0.2347
14417TIP3    H264743   2.781   0.507   5.124 -0.0984 -0.4463  0.2930
14418TIP3   OH264744   3.122   5.788  13.191 -0.1702  0.3573  0.5496
14418TIP3    H164745   3.068   5.766  13.115  2.0216  1.5155 -1.4024
14418TIP3    H264746   3.136   5.705  13.236 -0.6835 -0.4913 -0.8397
14419TIP3   OH264747   4.152   1.667   6.012  0.3796 -0.2569  0.0172
14419TIP3    H164748   4.077   1.608   6.014  0.8288 -0.8084  1.2872
14419TIP3    H264749   4.124   1.744   6.063  0.2889  0.0289 -0.4584
14420TIP3   OH264750   0.267   5.653   1.654 -0.6216 -0.1572  0.0990
14420TIP3    H164751   0.362   5.650   1.669 -0.4060  2.7617 -0.3164
14420TIP3    H264752   0.257   5.627   1.562  0.0105  1.3951 -0.4376
14421TIP3   OH264753   6.769   4.421   5.049 -0.0311 -0.0804 -0.0162
14421TIP3    H164754   6.732   4.336   5.072 -0.0378 -0.1380 -0.2496
14421TIP3    H264755   6.835   4.437   5.117  0.5445 -0.6452 -0.4414
14422TIP3   OH264756   3.155   3.942  12.991 -0.0038  0.3798 -0.2056
14422TIP3    H164757   3.157   3.997  12.913  0.9355 -0.2053 -0.5929
14422TIP3    H264758   3.174   3.854  12.959 -0.4480 -0.0060  0.5671
14423TIP3   OH264759   3.045   0.575  16.854 -0.0046 -0.3154 -0.6145
14423TIP3    H164760   2.953   0.595  16.836 -0.5083 -0.5548  1.5833
14423TIP3    H264761   3.044   0.534  16.940  2.3803  1.6765  0.4141
14424TIP3   OH264762   5.666   4.149   1.102 -0.9547  0.0442 -0.2291
14424TIP3    H164763   5.615   4.074   1.135 -1.2893  0.6179  0.5860
14424TIP3    H264764   5.684   4.128   1.011 -0.8126 -1.1623  0.0667
14425TIP3   OH264765   6.057   4.400   1.233 -0.1843 -0.5392 -0.2963
14425TIP3    H164766   6.101   4.377   1.315  1.6787  1.7686 -0.6026
14425TIP3    H264767   6.101   4.347   1.167 -0.4335 -1.0260 -0.0760
14426TIP3   OH264768   1.063   1.122  11.483 -0.2770 -0.5346 -0.6680
14426TIP3    H164769   1.011   1.054  11.526 -0.8546 -0.4550 -1.2236
14426TIP3    H264770   1.001   1.194  11.469 -0.6183 -1.2815 -3.3537
14427TIP3   OH264771   4.907   4.317  16.561  0.1264 -0.3917 -0.1792
14427TIP3    H164772   4.895   4.412  16.563 -1.2715 -0.4394 -3.0967
14427TIP3    H264773   4.844   4.283  16.625 -1.2212  0.5287 -0.9859
14428TIP3   OH264774   1.621   2.721   2.716 -0.1637 -0.0063 -0.3313
14428TIP3    H164775   1.710   2.704   2.688  0.2253  0.6537  0.4661
14428TIP3    H264776   1.629   2.745   2.809 -1.2613 -0.8333 -0.0086
14429TIP3   OH264777   5.379   2.760  14.549  0.0255 -0.8962  0.3318
14429TIP3    H164778   5.293   2.719  14.561  0.0412 -1.0608 -0.0940
14429TIP3    H264779   5.404   2.736  14.459 -0.0024  0.1100  0.0471
14430TIP3   OH264780   5.095   6.530  10.961 -0.1158  0.3792 -0.6784
14430TIP3    H164781   5.010   6.561  10.994  0.0534 -0.8639  1.0320
14430TIP3    H264782   5.076   6.444  10.924  0.2987  0.3231 -0.7601
14431TIP3   OH264783   3.820   1.156   2.234  0.3890  0.1174  0.0676
14431TIP3    H164784   3.864   1.150   2.318  0.9840  0.6021 -0.2071
14431TIP3    H264785   3.796   1.249   2.226 -0.8567 -0.1681  0.3023
14432TIP3   OH264786   3.919   5.000   2.447  0.1070  0.1134 -0.0187
14432TIP3    H164787   4.003   5.043   2.462  0.1260  0.0950 -0.0740
14432TIP3    H264788   3.931   4.952   2.365 -0.1926  0.7076 -0.4146
14433TIP3   OH264789   0.487   3.801  14.775 -0.2803 -0.2866 -0.4181
14433TIP3    H164790   0.401   3.838  14.792  0.2578  0.5367  0.6162
14433TIP3    H264791   0.539   3.824  14.853  0.6196 -1.5414 -0.6178
14434TIP3   OH264792   4.314   0.670   0.124  0.2374 -0.1109 -0.4766
14434TIP3    H164793   4.220   0.660   0.136  0.3185 -0.9217 -0.4767
14434TIP3    H264794   4.322   0.732   0.052 -0.3078 -0.7110 -1.0629
14435TIP3   OH264795   6.562   0.104  15.090  0.1995  0.1903 -0.3175
14435TIP3    H164796   6.538   0.135  15.003  3.1954  1.3244 -0.8127
14435TIP3    H264797   6.654   0.130  15.100 -0.0181 -0.0973  3.0949
14436TIP3   OH264798   2.029   3.569   0.642 -0.5131 -0.5011  0.3528
14436TIP3    H164799   2.090   3.579   0.569 -2.1496  0.6111 -0.9221
14436TIP3    H264800   1.972   3.497   0.616 -0.5900 -0.6441  0.9147
14437TIP3   OH264801   0.678   0.931  15.152 -0.1653 -0.4197  0.4043
14437TIP3    H164802   0.639   0.851  15.187  0.8146 -1.4229 -0.7455
14437TIP3    H264803   0.725   0.969  15.225  0.8187 -1.8293  0.5067
14438TIP3   OH264804   1.890   0.028   5.187  0.1268  0.0253 -0.7142
14438TIP3    H164805   1.873  -0.034   5.117 -0.2962  0.3588 -0.9107
14438TIP3    H264806   1.805   0.041   5.229  0.5613 -0.9160  0.4806
14439TIP3   OH264807   6.742   4.989   0.414  0.8104  0.2334  0.4489
14439TIP3    H164808   6.791   5.019   0.338 -0.3691 -0.1065 -0.4654
14439TIP3    H264809   6.717   4.899   0.392 -0.3726  0.4620  0.8082
14440TIP3   OH264810   4.329   4.535  13.142  0.4222 -0.0683  0.3530
14440TIP3    H164811   4.317   4.467  13.077 -0.8320  1.3907 -0.9856
14440TIP3    H264812   4.417   4.570  13.124  0.1221  0.2593 -0.4902
14441TIP3   OH264813   6.065   6.462   3.662 -0.5543  0.0097  0.1525
14441TIP3    H164814   6.004   6.513   3.610 -0.4336 -0.5447 -0.5424
14441TIP3    H264815   6.042   6.371   3.643  0.3995 -0.2001 -0.0166
14442TIP3   OH264816   3.254   5.389   1.464 -1.0877  0.0928 -0.7667
14442TIP3    H164817   3.316   5.353   1.528 -1.8640  1.3807  0.7277
14442TIP3    H264818   3.280   5.349   1.381  0.5816 -0.8076  0.1643
14443TIP3   OH264819   2.451   2.842  16.938  0.8970 -0.9311  0.1974
14443TIP3    H164820   2.361   2.825  16.965  0.1007  0.9600 -1.1554
14443TIP3    H264821   2.447   2.927  16.894  3.0555 -1.6113 -1.3623
14444TIP3   OH264822   0.120   1.939  14.046 -0.8006 -0.0746 -0.1639
14444TIP3    H164823   0.081   1.913  14.129 -0.6717 -0.5596 -0.2545
14444TIP3    H264824   0.046   1.963  13.991 -0.8938  0.1290  0.0490
14445TIP3   OH264825   1.502   6.280   3.774 -0.2558 -0.8415 -0.7100
14445TIP3    H164826   1.529   6.364   3.735  2.2689 -2.3203 -2.2646
14445TIP3    H264827   1.410   6.271   3.747 -1.0912  2.1474  0.8518
14446TIP3   OH264828   4.767   5.837   3.674 -0.8231  0.2444 -0.9316
14446TIP3    H164829   4.856   5.869   3.688 -0.3719 -1.3085 -0.0160
14446TIP3    H264830   4.778   5.761   3.617 -1.4118 -0.7516  0.2617
14447TIP3   OH264831   6.657   1.298   0.641 -0.1501  0.5070  0.2347
14447TIP3    H164832   6.589   1.279   0.577  0.1209  0.0815  0.0703
14447TIP3    H264833   6.635   1.243   0.717  0.1488  0.1826  0.0869
14448TIP3   OH264834   6.249   2.881   1.553 -0.1063 -0.3110 -0.0692
14448TIP3    H164835   6.207   2.810   1.504  0.9158 -2.3445  1.9153
14448TIP3    H264836   6.208   2.879   1.639 -0.4546  1.9133 -0.1552
14449TIP3   OH264837   2.797   2.841   1.561  0.3170  0.0073  0.3555
14449TIP3    H164838   2.765   2.774   1.501 -0.9589  0.5985  0.3536
14449TIP3    H264839   2.862   2.796   1.615  0.2334 -0.9574 -0.3381
14450TIP3   OH264840   5.268   5.044   2.985  0.5089  0.6013 -0.5453
14450TIP3    H164841   5.258   4.954   3.017  0.2940  0.0136 -2.2569
14450TIP3    H264842   5.271   5.097   3.065 -2.0775 -0.6418  0.4330
14451TIP3   OH264843   6.016   3.566  13.106  0.3660  0.2545  0.4947
14451TIP3    H164844   6.058   3.494  13.059 -1.0601 -0.0001 -0.4376
14451TIP3    H264845   6.080   3.637  13.103  0.8779 -0.2268 -0.5924
14452TIP3   OH264846   5.996   6.344  13.393  0.1858 -0.1546  0.1015
14452TIP3    H164847   5.938   6.290  13.446  2.4168 -0.6635  2.1553
14452TIP3    H264848   5.998   6.429  13.437  0.1173  0.2194 -0.6011
14453TIP3   OH264849   4.811   4.092   0.085  0.3251 -0.4074 -0.0368
14453TIP3    H164850   4.829   4.181   0.052 -0.6110  0.0958  0.8026
14453TIP3    H264851   4.854   4.035   0.022  1.0507  0.6479 -0.5226
14454TIP3   OH264852   6.560   2.725   0.911 -0.0175  0.0596 -0.0156
14454TIP3    H164853   6.538   2.694   0.823  0.9509 -0.6555 -0.0112
14454TIP3    H264854   6.485   2.701   0.964 -0.3236 -0.1003 -0.5119
14455TIP3   OH264855   1.032   0.558   0.371 -0.0677 -0.0049 -1.1792
14455TIP3    H164856   1.085   0.512   0.436  1.9424  1.3445 -1.8521
14455TIP3    H264857   0.942   0.545   0.402  0.7722 -0.2730  1.3137
14456TIP3   OH264858   1.167   6.502  13.812  0.9440 -0.9078 -0.1277
14456TIP3    H164859   1.236   6.555  13.851  1.0015 -0.7244 -0.4787
14456TIP3    H264860   1.210   6.420  13.788  1.4062 -0.1800 -1.8308
14457TIP3   OH264861   1.412   3.057   3.694 -1.1933 -0.4798 -0.2006
14457TIP3    H164862   1.498   3.036   3.730 -0.7937 -0.5320 -1.1694
14457TIP3    H264863   1.426   3.063   3.600 -2.3658 -1.0453 -0.4236
14458TIP3   OH264864   2.789   5.919   4.324 -0.3151 -0.9067 -0.0790
14458TIP3    H164865   2.769   5.936   4.416 -1.7163 -0.5042 -0.4381
14458TIP3    H264866   2.879   5.949   4.313 -1.0161  1.6057  0.5377
14459TIP3   OH264867   6.634   0.647   0.727 -0.0035 -0.6991  0.6448
14459TIP3    H164868   6.639   0.554   0.747 -2.4565 -0.7758  1.0705
14459TIP3    H264869   6.542   0.669   0.739  0.2262  1.4070 -1.1408
14460TIP3   OH264870   1.991   5.271   1.258  0.5797 -0.4571 -0.0205
14460TIP3    H164871   2.051   5.202   1.287 -0.0712 -0.8936  0.3024
14460TIP3    H264872   1.908   5.226   1.247 -0.2396  0.5778  1.6977
14461TIP3   OH264873   5.873   2.459   1.407 -0.5971  0.7090 -0.2008
14461TIP3    H164874   5.791   2.416   1.380 -0.3005 -0.6939  1.0965
14461TIP3    H264875   5.848   2.550   1.422 -1.8312  0.3848 -0.2162
14462TIP3   OH264876   5.093   6.047  11.026 -0.0847  0.1905  0.6066
14462TIP3    H164877   5.061   6.135  11.048  0.9556  0.7147  0.0458
14462TIP3    H264878   5.154   6.025  11.096 -2.2479 -1.1587  2.1295
14463TIP3   OH264879   2.364   4.062   4.858 -0.1010 -0.1152  0.7252
14463TIP3    H164880   2.304   4.040   4.787 -1.1840  0.8002  1.3453
14463TIP3    H264881   2.308   4.091   4.929  1.0061 -0.7073  1.8512
14464TIP3   OH264882   3.463   0.171  13.911  0.0577  0.2828 -0.2309
14464TIP3    H164883   3.446   0.253  13.958 -0.7679 -0.1475  0.2214
14464TIP3    H264884   3.379   0.127  13.909  0.1492  0.1601 -1.8697
14465TIP3   OH264885   4.565   2.502   5.197 -0.3588 -0.6351  0.6081
14465TIP3    H164886   4.627   2.537   5.260 -2.1418  1.7673  1.1264
14465TIP3    H264887   4.578   2.555   5.118  0.7472 -2.5483 -0.5324
14466TIP3   OH264888   1.544   4.974   4.602  0.3524  0.3536 -0.1793
14466TIP3    H164889   1.630   4.995   4.566  0.6393 -0.1397  0.2031
14466TIP3    H264890   1.541   5.020   4.686  0.0977  0.6703 -0.3633
14467TIP3   OH264891   5.615   2.527   4.577  0.5971  0.2230  0.2331
14467TIP3    H164892   5.521   2.511   4.563  0.9758  0.3315 -2.6033
14467TIP3    H264893   5.639   2.464   4.645 -1.7571  0.9376  1.8089
14468TIP3   OH264894   5.671   1.527  11.854  0.4000 -0.1922  0.8302
14468TIP3    H164895   5.760   1.494  11.862  0.2109 -0.9269  0.0145
14468TIP3    H264896   5.618   1.449  11.841 -0.2703  0.3078  0.5326
14469TIP3   OH264897   3.375   3.436  13.372 -0.3764 -0.2602  0.0732
14469TIP3    H164898   3.292   3.452  13.417 -0.6298  0.5687 -0.6863
14469TIP3    H264899   3.382   3.340  13.370 -0.3555 -0.3186  1.8583
14470TIP3   OH264900   3.990   6.042   5.230  0.6762  0.3002  0.0422
14470TIP3    H164901   4.071   6.079   5.195  0.5558  1.0041  0.5143
14470TIP3    H264902   4.004   6.036   5.324  1.3107 -2.3688 -0.1928
14471TIP3   OH264903   4.974   1.626   1.719 -0.3476  0.1736  0.1026
14471TIP3    H164904   5.024   1.565   1.664 -1.0141  1.2340 -1.7412
14471TIP3    H264905   4.885   1.621   1.684 -0.6710  1.2389  0.7657
14472TIP3   OH264906   3.697   1.293  14.933  0.0385  0.3226 -0.1739
14472TIP3    H164907   3.651   1.290  14.850  0.6178 -0.3831 -0.4750
14472TIP3    H264908   3.643   1.242  14.993 -0.6836  1.3311  0.0386
14473TIP3   OH264909   2.793   2.473   0.083  0.4535  0.6742 -0.3541
14473TIP3    H164910   2.833   2.543   0.031 -0.5253  1.0820 -0.5728
14473TIP3    H264911   2.706   2.461   0.043  0.1028  0.2644  0.5250
14474TIP3   OH264912   0.846   3.117   4.135  0.4868 -0.1844  0.1569
14474TIP3    H164913   0.815   3.165   4.058 -0.5590  0.6476  1.0784
14474TIP3    H264914   0.846   3.182   4.205  0.5453 -1.1536  1.0650
14475TIP3   OH264915   6.761   4.466  15.142  0.3503  0.0655  0.0490
14475TIP3    H164916   6.676   4.458  15.097 -0.0591 -2.4753  1.1573
14475TIP3    H264917   6.825   4.461  15.071 -0.3808 -0.2479 -0.6108
14476TIP3   OH264918   2.080   5.714  16.885 -0.4022  0.3130  0.1341
14476TIP3    H164919   1.993   5.737  16.918 -0.0012 -0.0334  1.4696
14476TIP3    H264920   2.094   5.624  16.915  0.7530  0.6484  0.6373
14477TIP3   OH264921   4.485   2.066   5.368  0.0562 -0.5459 -0.5646
14477TIP3    H164922   4.534   2.139   5.406 -1.5939 -0.1750  0.9063
14477TIP3    H264923   4.506   1.992   5.425 -1.7995 -0.1668  0.6589
14478TIP3   OH264924   0.173   0.165   3.150 -0.3917 -0.3316  0.2963
14478TIP3    H164925   0.177   0.172   3.245 -1.6390  0.4482  0.3047
14478TIP3    H264926   0.197   0.252   3.119  1.8777 -1.0861 -0.1785
14479TIP3   OH264927   4.019   1.780  13.654 -0.1586 -0.4660 -0.1232
14479TIP3    H164928   3.971   1.858  13.682 -0.9547 -0.8330 -0.4604
14479TIP3    H264929   4.106   1.813  13.631 -0.3341  0.2473  0.1944
14480TIP3   OH264930   1.027   2.161   5.192 -0.0796 -0.3077  0.2648
14480TIP3    H164931   1.020   2.160   5.288  0.2831 -1.0340  0.2899
14480TIP3    H264932   1.007   2.251   5.168 -2.5128 -0.6551  0.8363
14481TIP3   OH264933   1.733   4.419   2.867  0.3279 -0.3066  0.2505
14481TIP3    H164934   1.722   4.358   2.940  1.3796 -0.2574  0.4577
14481TIP3    H264935   1.791   4.487   2.901 -1.2315  1.0950  0.1861
14482TIP3   OH264936   0.954   6.329   0.642 -0.1638  0.6763 -0.3136
14482TIP3    H164937   1.016   6.267   0.605  0.8109  2.4564 -1.7370
14482TIP3    H264938   0.941   6.394   0.574 -2.2541  1.2984  0.6278
14483TIP3   OH264939   0.956   1.585   2.896 -0.3072  0.0983 -0.6190
14483TIP3    H164940   1.035   1.541   2.927 -0.2578 -0.0341 -0.9328
14483TIP3    H264941   0.908   1.607   2.976 -0.6332 -1.0844 -0.4769
14484TIP3   OH264942   1.753   5.815   3.497 -0.2758  0.0702 -0.1403
14484TIP3    H164943   1.848   5.824   3.482 -0.1237  0.1114  0.7885
14484TIP3    H264944   1.734   5.878   3.566 -0.8287 -0.5152  0.2473
14485TIP3   OH264945   5.789   2.394  14.003 -0.0997  0.2663 -0.1870
14485TIP3    H164946   5.695   2.400  13.988 -0.5043  0.0352  2.0409
14485TIP3    H264947   5.798   2.389  14.099  2.2445  1.4397 -0.3110
14486TIP3   OH264948   3.316   5.664   4.291  0.1337 -0.0258  0.6016
14486TIP3    H164949   3.320   5.748   4.244 -3.5892 -0.0637  0.0230
14486TIP3    H264950   3.287   5.688   4.379 -0.2202 -0.6396  0.6514
14487TIP3   OH264951   1.940   6.455   0.499 -0.5084  0.6918 -0.4452
14487TIP3    H164952   1.940   6.424   0.589  0.0208  0.6285 -0.4699
14487TIP3    H264953   1.981   6.542   0.503 -0.3254  0.6157 -0.6505
14488TIP3   OH264954   4.570   0.726   0.425 -0.0785  0.5074  0.3146
14488TIP3    H164955   4.579   0.799   0.364  0.2265  0.3855  0.2139
14488TIP3    H264956   4.501   0.671   0.388  2.1567 -1.1562 -1.5145
14489TIP3   OH264957   5.776   4.278   4.997 -0.3542  0.0706  0.3591
14489TIP3    H164958   5.763   4.278   5.092 -1.7850 -0.4594  0.1780
14489TIP3    H264959   5.727   4.202   4.966  0.6773 -0.1611 -0.7420
14490TIP3   OH264960   0.923   4.568  12.738  0.0717  0.0324  0.0736
14490TIP3    H164961   0.955   4.478  12.729 -0.4897 -0.1616  0.0188
14490TIP3    H264962   0.983   4.608  12.802 -0.0380 -0.5483  0.5477
14491TIP3   OH264963   5.991   2.079  15.534  0.1827  0.2076  0.0058
14491TIP3    H164964   6.032   1.993  15.533  0.3265  0.2548  1.0604
14491TIP3    H264965   6.053   2.137  15.490  0.2117 -0.1650 -0.4446
14492TIP3   OH264966   3.236   0.818  16.874 -0.1580 -0.6616 -0.4461
14492TIP3    H164967   3.241   0.760  16.950  0.5326  0.7386  0.6022
14492TIP3    H264968   3.142   0.823  16.854 -0.4215 -0.3862  0.8172
14493TIP3   OH264969   5.719   3.634   3.818  0.1017  0.2468 -0.7737
14493TIP3    H164970   5.790   3.602   3.762  0.1594 -1.8016  0.4021
14493TIP3    H264971   5.737   3.727   3.829  2.8916 -0.3302 -0.1011
14494TIP3   OH264972   3.549   2.566   1.299  0.1371  0.0457 -0.0150
14494TIP3    H164973   3.460   2.571   1.336  0.8332  1.6595  1.4943
14494TIP3    H264974   3.565   2.653   1.262  0.7859 -0.5001 -1.0413
14495TIP3   OH264975   2.886   2.126   4.537 -0.1218 -0.9044  0.1325
14495TIP3    H164976   2.876   2.186   4.610 -0.4067  1.4242 -1.7504
14495TIP3    H264977   2.980   2.116   4.526 -0.0530  0.1426 -0.2734
14496TIP3   OH264978   3.187   3.312  14.010  0.4507 -0.0103  0.2174
14496TIP3    H164979   3.121   3.246  13.989  1.6804 -1.4706  0.8793
14496TIP3    H264980   3.140   3.376  14.064  0.2887 -2.6822  3.4088
14497TIP3   OH264981   1.767   6.672  14.965  0.3801 -0.5644  0.4392
14497TIP3    H164982   1.730   6.650  14.880  0.5482 -0.0594  0.2318
14497TIP3    H264983   1.852   6.711  14.944  0.6907 -1.0136  0.8688
14498TIP3   OH264984   3.115   5.470  12.646  0.1250 -0.0161 -0.1291
14498TIP3    H164985   3.120   5.476  12.550  1.2287 -0.3292 -0.0999
14498TIP3    H264986   3.109   5.561  12.675 -0.5792  0.0594 -0.5148
14499TIP3   OH264987   5.088   4.454   5.314 -0.4404  0.0408 -0.4007
14499TIP3    H164988   5.046   4.414   5.238 -0.0636  2.2688 -1.7897
14499TIP3    H264989   5.017   4.498   5.360 -0.2814  0.5542 -0.6503
14500TIP3   OH264990   0.951   3.747   3.603  0.8211  0.8023 -0.0409
14500TIP3    H164991   0.996   3.808   3.662 -1.8004  0.2060  2.6692
14500TIP3    H264992   0.988   3.662   3.624  0.5044  0.7063  0.1280
14501TIP3   OH264993   4.323   3.496   0.084  0.1984 -0.4251  0.5280
14501TIP3    H164994   4.302   3.575   0.034 -0.2908 -0.9770 -0.1360
14501TIP3    H264995   4.240   3.468   0.123  0.7570  0.6168  2.5848
14502TIP3   OH264996   6.063   4.803  16.311 -0.6227 -0.0039 -0.3755
14502TIP3    H164997   6.147   4.831  16.274 -0.4371 -2.7756 -2.2043
14502TIP3    H264998   6.021   4.884  16.340  2.3245  1.5107 -0.1721
14503TIP3   OH264999   5.001   0.477  10.861 -0.4873 -0.0466 -0.2717
14503TIP3    H165000   5.042   0.415  10.801  0.5557  0.6204 -0.2600
14503TIP3    H265001   5.073   0.510  10.915 -1.2477  0.1396  0.6521
14504TIP3   OH265002   0.587   2.803  12.917 -0.2241 -0.4902  0.6011
14504TIP3    H165003   0.582   2.711  12.892 -0.2880  0.2369 -2.1764
14504TIP3    H265004   0.679   2.826  12.909 -0.3976  0.0231  0.0420
14505TIP3   OH265005   0.962   4.379   5.115  0.3089  0.3903  0.6318
14505TIP3    H165006   1.049   4.418   5.122  1.6651 -1.7494 -2.8824
14505TIP3    H265007   0.926   4.416   5.034 -0.4001 -1.7204 -0.0575
14506TIP3   OH265008   4.961   2.963  11.929 -0.6623  0.0236 -0.1077
14506TIP3    H165009   4.872   2.986  11.904 -0.1461  0.0448 -2.0275
14506TIP3    H265010   5.013   3.040  11.908 -0.1084 -0.1714  0.5196
14507TIP3   OH265011   4.347   0.021  12.316  0.2192  0.0856  0.7182
14507TIP3    H165012   4.346  -0.001  12.409  1.4913 -0.9958  0.4895
14507TIP3    H265013   4.289  -0.044  12.276  0.2533  0.0911  0.6602
14508TIP3   OH265014   6.638   0.519  12.835  0.2185  0.3592 -0.0027
14508TIP3    H165015   6.549   0.547  12.816 -0.1806 -1.2063 -0.5559
14508TIP3    H265016   6.664   0.469  12.757  1.3898  0.3633  0.3758
14509TIP3   OH265017   3.227   1.164   3.860 -0.2175 -0.5117 -0.0246
14509TIP3    H165018   3.131   1.162   3.855 -0.1611 -0.5102 -1.1432
14509TIP3    H265019   3.247   1.254   3.884 -0.4519 -0.2645 -0.7591
14510TIP3   OH265020   4.816   2.841  10.089  0.9174 -0.0423 -0.3936
14510TIP3    H165021   4.781   2.827  10.177  1.2859 -1.6915 -0.4927
14510TIP3    H265022   4.802   2.934  10.072  0.4765  0.2027  1.2491
14511TIP3   OH265023   6.198   6.146   5.932 -0.3525 -0.5466 -0.2147
14511TIP3    H165024   6.189   6.107   6.019 -0.8795  0.9046  0.4117
14511TIP3    H265025   6.113   6.130   5.890 -0.2326 -0.9235 -0.3034
14512TIP3   OH265026   2.729   6.568  16.027 -0.3843 -0.0053 -0.1427
14512TIP3    H165027   2.688   6.485  16.002 -0.4250  0.3755 -1.3918
14512TIP3    H265028   2.659   6.632  16.021  0.4017  0.6963 -2.5319
14513TIP3   OH265029   6.033   4.999  11.871  0.2907  0.1553  0.0181
14513TIP3    H165030   6.024   5.039  11.785  0.2937 -1.1705 -0.6183
14513TIP3    H265031   5.946   4.963  11.890  0.6360 -0.7140 -0.0283
14514TIP3   OH265032   6.698   3.873   5.061  0.7842 -0.3132  0.0141
14514TIP3    H165033   6.690   3.952   5.115 -0.4994  0.6760 -1.5919
14514TIP3    H265034   6.637   3.810   5.102  0.3279  0.2021  0.1360
14515TIP3   OH265035   4.402   0.079   5.793 -0.3607 -0.4581  0.8549
14515TIP3    H165036   4.354   0.121   5.864  0.7727 -0.5225  1.6651
14515TIP3    H265037   4.483   0.048   5.833 -0.8485 -2.7652  0.0859
14516TIP3   OH265038   6.534   5.713  14.835  0.2450 -0.3019 -0.2848
14516TIP3    H165039   6.541   5.618  14.842  0.7024 -0.3368 -1.0616
14516TIP3    H265040   6.497   5.741  14.918 -0.5933 -1.2361 -0.3268
14517TIP3   OH265041   1.624   5.611   2.309  0.3440  0.3632  0.3917
14517TIP3    H165042   1.611   5.682   2.246  1.0645  0.3029  0.1728
14517TIP3    H265043   1.551   5.551   2.293 -0.0351  0.8442  0.2963
14518TIP3   OH265044   5.383   3.647  13.198  0.2578  0.2911 -0.2211
14518TIP3    H165045   5.416   3.570  13.245  0.6036  0.0758 -0.7982
14518TIP3    H265046   5.427   3.721  13.239 -0.5306  0.2372  0.7325
14519TIP3   OH265047   2.721   3.209   2.031 -0.8296 -0.0277  0.2354
14519TIP3    H165048   2.772   3.174   2.105  2.0512  1.9222 -0.7344
14519TIP3    H265049   2.644   3.248   2.072  0.3208  0.2895  2.1574
14520TIP3   OH265050   3.766   6.613  15.423  0.0296  0.3238 -0.3359
14520TIP3    H165051   3.803   6.660  15.349  2.7553 -0.1772  0.6653
14520TIP3    H265052   3.827   6.629  15.495 -0.4497 -2.4471  0.7514
14521TIP3   OH265053   2.693   5.031  12.444 -0.0116 -0.3689 -0.3148
14521TIP3    H165054   2.616   5.085  12.428  0.0641 -0.1583  0.0339
14521TIP3    H265055   2.661   4.941  12.439  0.1397 -0.3420 -2.3943
14522TIP3   OH265056   2.114   4.280   1.863 -0.1304 -0.2387  0.1649
14522TIP3    H165057   2.076   4.194   1.848 -0.1741 -0.2301  0.2238
14522TIP3    H265058   2.057   4.340   1.817 -0.3120 -0.2034  0.4360
14523TIP3   OH265059   5.992   5.350  13.958  0.7442 -0.2396  0.3428
14523TIP3    H165060   6.001   5.353  14.054  0.5078  1.9474  0.3202
14523TIP3    H265061   6.042   5.426  13.927 -1.3404  0.5925 -1.0684
14524TIP3   OH265062   0.829   1.834  13.315  0.8743  0.4938 -0.4838
14524TIP3    H165063   0.828   1.751  13.268  0.2869  0.3551 -0.2323
14524TIP3    H265064   0.875   1.815  13.397  1.8989  0.7360 -0.9958
14525TIP3   OH265065   4.047   4.197   4.209  0.2780 -0.0085  0.3441
14525TIP3    H165066   4.125   4.252   4.216  0.9233 -1.0373  1.4055
14525TIP3    H265067   4.015   4.189   4.299  0.5671 -1.9087  0.2771
14526TIP3   OH265068   5.414   1.218  15.819 -1.0517 -0.4447  0.6476
14526TIP3    H165069   5.357   1.239  15.745  0.4541  0.1129 -0.3472
14526TIP3    H265070   5.450   1.302  15.847  2.2009 -1.1975 -1.0931
14527TIP3   OH265071   6.026   5.104  13.100 -0.2305  0.2704  0.1238
14527TIP3    H165072   5.971   5.040  13.055 -1.0856  1.4466 -0.5365
14527TIP3    H265073   5.976   5.185  13.098  0.2151  0.6323  2.2184
14528TIP3   OH265074   1.827   4.553  15.634  0.0967  0.0132  0.2537
14528TIP3    H165075   1.902   4.607  15.608 -0.0599  0.0452 -0.1222
14528TIP3    H265076   1.806   4.583  15.723  0.7273 -0.2098  0.4813
14529TIP3   OH265077   4.372   5.929  15.285  0.0455 -0.0453  0.7353
14529TIP3    H165078   4.308   5.970  15.227  1.7546  0.2813 -0.9740
14529TIP3    H265079   4.379   5.988  15.360 -0.6598  0.5857  0.2999
14530TIP3   OH265080   5.805   2.382  12.501 -0.4746  0.1305  0.0654
14530TIP3    H165081   5.856   2.312  12.541 -1.2110 -1.3757 -1.5492
14530TIP3    H265082   5.868   2.428  12.445 -0.3726 -0.3376 -0.2089
14531TIP3   OH265083   5.473   1.465  14.305  1.0016  0.8062 -0.6725
14531TIP3    H165084   5.528   1.415  14.245  0.7633  0.8579 -0.9339
14531TIP3    H265085   5.385   1.432  14.290  1.2975 -1.1642  1.6277
14532TIP3   OH265086   3.082   0.481  14.380  0.2280 -0.0317  0.2051
14532TIP3    H165087   3.178   0.479  14.372  0.2768 -1.2892  0.8971
14532TIP3    H265088   3.067   0.497  14.474 -0.2273 -1.6672  0.4172
14533TIP3   OH265089   6.299   2.979   1.135 -0.1714  1.1014 -0.1573
14533TIP3    H165090   6.342   3.018   1.212 -0.6757  1.8514 -0.2475
14533TIP3    H265091   6.206   2.998   1.147 -0.7960 -2.3678  1.1036
14534TIP3   OH265092   1.760   4.303   0.481 -0.2288 -0.8030 -0.3951
14534TIP3    H165093   1.670   4.337   0.481  0.4469  1.0670  0.4542
14534TIP3    H265094   1.800   4.340   0.559  1.1130 -2.1312 -0.4294
14535TIP3   OH265095   6.204   5.782  11.947 -0.4758  0.3472 -1.1039
14535TIP3    H165096   6.139   5.742  12.005 -0.9453 -0.4840 -2.1804
14535TIP3    H265097   6.187   5.876  11.953  1.9439  0.6083  3.0155
14536TIP3   OH265098   2.951   0.539   2.890 -0.1817  0.6484 -0.3518
14536TIP3    H165099   3.007   0.521   2.815 -0.0038 -0.3073  0.0042
14536TIP3    H265100   2.903   0.618   2.865 -0.0964  0.3644 -1.4576
14537TIP3   OH265101   1.682   1.144  11.171  0.1969 -0.4075 -0.2075
14537TIP3    H165102   1.705   1.172  11.260  1.1631  0.8522 -0.8412
14537TIP3    H265103   1.695   1.222  11.118  1.0691 -1.5775 -1.7199
14538TIP3   OH265104   4.088   3.188  11.791  0.5019  0.4475 -0.0141
14538TIP3    H165105   4.015   3.247  11.811  0.6555  0.5040  0.3815
14538TIP3    H265106   4.058   3.139  11.715 -0.9941 -1.2904  1.6266
14539TIP3   OH265107   5.179   2.686   0.024  0.8721 -0.0714  0.4345
14539TIP3    H165108   5.209   2.722   0.108  0.2221  1.2401  0.1116
14539TIP3    H265109   5.087   2.712   0.018  0.6253 -1.0541 -0.2111
14540TIP3   OH265110   5.325   0.130   5.749  0.1386 -0.2744  0.1377
14540TIP3    H165111   5.307   0.099   5.838  2.3514 -1.9669  0.0351
14540TIP3    H265112   5.306   0.055   5.693 -1.5099  0.8700 -0.8699
14541TIP3   OH265113   5.254   2.047  11.049  0.2973  0.4544  0.8553
14541TIP3    H165114   5.184   2.111  11.059  0.0096  0.2469  0.2036
14541TIP3    H265115   5.271   2.045  10.955 -0.1461 -0.9129  0.8023
14542TIP3   OH265116   1.813   0.141  13.054 -0.0912 -0.3408 -0.1518
14542TIP3    H165117   1.860   0.219  13.083 -1.3531  0.5275 -0.3874
14542TIP3    H265118   1.769   0.168  12.974 -1.3445 -0.9973  0.3040
14543TIP3   OH265119   3.645   2.333   4.742  0.0694  0.6755  0.4044
14543TIP3    H165120   3.564   2.369   4.705 -1.7689 -1.1400  2.4550
14543TIP3    H265121   3.644   2.363   4.833  1.5219  0.3289  0.5371
14544TIP3   OH265122   3.739   5.451   4.613  0.1174 -0.1667 -0.3958
14544TIP3    H165123   3.778   5.393   4.548 -1.4702  0.9479 -2.4067
14544TIP3    H265124   3.812   5.478   4.668  1.6344 -0.6501 -2.1102
14545TIP3   OH265125   1.485   2.165  14.720 -0.2250  0.5699  0.2417
14545TIP3    H165126   1.412   2.179  14.659 -0.8586  1.2010  1.1481
14545TIP3    H265127   1.496   2.070  14.721 -2.6993  0.2533  2.0223
14546TIP3   OH265128   3.923   2.373   4.335  0.8069  0.2084  0.1957
14546TIP3    H165129   3.883   2.299   4.290 -0.2847  0.9908 -0.1286
14546TIP3    H265130   4.006   2.386   4.290  1.3099 -1.2341  0.6792
14547TIP3   OH265131   3.302   0.899   6.670  0.0662 -0.3017  0.0693
14547TIP3    H165132   3.389   0.913   6.634  0.8770 -1.2512  1.6139
14547TIP3    H265133   3.287   0.805   6.660 -1.0068 -0.0621 -0.6748
14548TIP3   OH265134   5.264   0.911   2.927 -0.8135  0.1401 -0.4578
14548TIP3    H165135   5.193   0.930   2.866  0.0859  0.3924 -1.4364
14548TIP3    H265136   5.276   0.993   2.976 -1.5730 -0.0820  0.1139
14549TIP3   OH265137   3.233   5.073   4.255 -0.1300  0.0259 -0.0028
14549TIP3    H165138   3.275   5.008   4.200 -1.3585 -0.9589  0.2021
14549TIP3    H265139   3.246   5.041   4.345  0.4970  0.8041  0.1941
14550TIP3   OH265140   0.144   5.465   5.608  0.0014 -0.1817  0.3334
14550TIP3    H165141   0.056   5.467   5.571  0.0565 -0.1133  0.2082
14550TIP3    H265142   0.142   5.526   5.681  0.7233  1.9083 -1.3585
14551TIP3   OH265143   5.410   2.313   2.108 -0.4931  0.1145  0.1274
14551TIP3    H165144   5.474   2.245   2.130  1.2814  0.9731 -2.1792
14551TIP3    H265145   5.463   2.387   2.079 -2.5292  0.7925 -1.9857
14552TIP3   OH265146   3.042   2.260   5.430  0.3902  1.2696 -0.0557
14552TIP3    H165147   3.011   2.288   5.344  0.3874 -0.1679 -0.5434
14552TIP3    H265148   3.009   2.326   5.490  0.1048  2.1090 -1.1264
14553TIP3   OH265149   4.439   1.566   5.954  0.5239 -0.0243  0.0288
14553TIP3    H165150   4.388   1.638   5.916 -0.2398 -0.2800  0.5582
14553TIP3    H265151   4.419   1.569   6.047 -0.9263 -2.0240 -0.1816
14554TIP3   OH265152   0.420   3.643  15.179 -0.0304  0.2643 -0.3862
14554TIP3    H165153   0.450   3.585  15.109 -0.2308  1.0061 -1.0951
14554TIP3    H265154   0.446   3.731  15.151  0.6524  0.4832  0.8769
14555TIP3   OH265155   4.651   5.210   0.613 -0.4671 -1.0692  0.0258
14555TIP3    H165156   4.682   5.288   0.659 -0.1169 -0.4690 -1.2047
14555TIP3    H265157   4.563   5.195   0.648 -2.0510  2.0532 -2.2703
14556TIP3   OH265158   3.950   1.646  12.640 -0.5051  0.6115  0.3218
14556TIP3    H165159   4.018   1.677  12.699 -0.6084  0.4965  0.5012
14556TIP3    H265160   3.975   1.681  12.554 -0.7238  1.3534  0.5525
14557TIP3   OH265161   5.683   6.214   0.693 -0.4233 -0.3518  0.0824
14557TIP3    H165162   5.774   6.243   0.704 -1.1040  1.5055  1.0944
14557TIP3    H265163   5.643   6.283   0.640 -0.9330 -1.8416 -1.5393
14558TIP3   OH265164   2.972   6.650   1.485  0.3573  0.1142 -0.1055
14558TIP3    H165165   3.015   6.606   1.412  2.0200 -0.0031  0.9213
14558TIP3    H265166   3.029   6.634   1.560  0.0956  2.5240  0.6618
14559TIP3   OH265167   4.281   4.079   2.003 -0.2296  0.0446 -0.1281
14559TIP3    H165168   4.207   4.018   2.000  0.5166 -0.8602 -0.4492
14559TIP3    H265169   4.357   4.023   2.019  0.6156  0.7601 -1.5649
14560TIP3   OH265170   2.418   3.699  11.976 -0.4131  0.1456 -0.5887
14560TIP3    H165171   2.505   3.673  12.007 -1.1190 -1.2990  0.2526
14560TIP3    H265172   2.366   3.619  11.983 -1.9670  1.1484 -0.5322
14561TIP3   OH265173   0.901   6.213   1.678  0.0811  0.3400 -0.5862
14561TIP3    H165174   0.896   6.234   1.771 -2.6684  0.8735 -0.7998
14561TIP3    H265175   0.868   6.292   1.634 -0.8196 -0.7275 -1.8850
14562TIP3   OH265176   1.722   5.156   1.248  0.4316  0.2999  0.1423
14562TIP3    H165177   1.686   5.106   1.174 -1.2140 -0.2042  1.2615
14562TIP3    H265178   1.684   5.243   1.238  0.0238  0.1664  0.5175
14563TIP3   OH265179   6.125   4.786  14.776 -0.1685  0.2482 -0.2674
14563TIP3    H165180   6.132   4.755  14.867  0.2576  0.6115 -0.1690
14563TIP3    H265181   6.145   4.880  14.782 -2.1508  0.6989 -0.4576
14564TIP3   OH265182   0.657   0.692   1.980  0.3136  0.0972  0.0445
14564TIP3    H165183   0.577   0.670   1.933  0.0479  0.9825  0.0766
14564TIP3    H265184   0.628   0.744   2.055  0.8345 -0.3877  0.5906
14565TIP3   OH265185   6.745   4.451  14.753 -0.4533  0.4595 -0.2239
14565TIP3    H165186   6.663   4.498  14.742 -1.0551 -0.6539 -0.6573
14565TIP3    H265187   6.780   4.443  14.664 -0.4301 -0.0235 -0.1736
14566TIP3   OH265188   0.390   3.918  15.069  0.3448  0.2700  0.5166
14566TIP3    H165189   0.448   3.966  15.010 -0.6137 -0.0678 -0.6977
14566TIP3    H265190   0.303   3.925  15.030 -0.4433  0.7144  2.2952
14567TIP3   OH265191   6.545   5.781   4.301  0.2349  0.1629  0.1874
14567TIP3    H165192   6.468   5.793   4.246  1.2354  3.5141 -0.5998
14567TIP3    H265193   6.512   5.788   4.391 -0.8688 -1.9382 -0.0139
14568TIP3   OH265194   2.539   2.638  14.007 -0.3246  0.6367 -0.5361
14568TIP3    H165195   2.531   2.555  14.055 -0.4913  0.2146 -1.2875
14568TIP3    H265196   2.625   2.672  14.033 -1.4627  1.6752  2.0408
14569TIP3   OH265197   4.748   1.152   0.157  0.3000  0.0849 -0.2543
14569TIP3    H165198   4.784   1.199   0.082  1.8300 -0.1790  0.3071
14569TIP3    H265199   4.697   1.081   0.119  1.8603 -0.6266 -1.0294
14570TIP3   OH265200   2.375   5.787  14.166 -0.5183 -0.3570  0.5334
14570TIP3    H165201   2.305   5.793  14.101  0.0740 -1.3648 -0.2234
14570TIP3    H265202   2.332   5.804  14.250 -1.2212  1.3557 -0.1507
14571TIP3   OH265203   5.479   2.642   2.277  0.0771  0.0778 -0.3810
14571TIP3    H165204   5.555   2.612   2.325  0.5990 -0.5335 -1.5708
14571TIP3    H265205   5.491   2.608   2.188 -0.0805  2.5086 -1.3702
14572TIP3   OH265206   1.370   0.441   0.085  0.4436 -0.4305 -0.4647
14572TIP3    H165207   1.306   0.507   0.113  0.9387 -0.7018  1.3879
14572TIP3    H265208   1.453   0.470   0.123  1.4139 -0.1800 -2.7061
14573TIP3   OH265209   5.178   3.192   2.017  0.3026 -0.0944  0.6714
14573TIP3    H165210   5.152   3.284   2.027  1.2383  0.1543  0.8013
14573TIP3    H265211   5.273   3.194   2.008  0.1669 -0.9043 -1.1788
14574TIP3   OH265212   2.378   6.125  11.315 -0.0511 -0.0964 -0.7456
14574TIP3    H165213   2.344   6.036  11.306 -0.6654  0.0004  0.4226
14574TIP3    H265214   2.384   6.138  11.410  1.4338  0.5890 -0.9339
14575TIP3   OH265215   2.678   0.870  13.705 -0.3688  0.3991  0.0268
14575TIP3    H165216   2.695   0.844  13.614  1.4731 -0.7514  0.6761
14575TIP3    H265217   2.623   0.948  13.698  1.2578  1.4058 -2.1030
14576TIP3   OH265218   5.613   1.370   5.345 -0.0847 -0.5636 -0.2684
14576TIP3    H165219   5.657   1.446   5.307 -0.8352  0.4276  0.8074
14576TIP3    H265220   5.591   1.397   5.434  0.0255 -2.2032  0.2724
14577TIP3   OH265221   0.542   5.716  11.450 -0.4022  0.3825 -0.1698
14577TIP3    H165222   0.447   5.711  11.453 -0.3857  0.6827  0.9063
14577TIP3    H265223   0.563   5.714  11.357 -1.5545  1.9805 -0.4879
14578TIP3   OH265224   3.581   0.065  12.019 -0.0539  0.2838  0.3327
14578TIP3    H165225   3.651   0.080  11.955  0.3254  0.0185  0.6857
14578TIP3    H265226   3.602   0.123  12.092 -1.2828  1.6769 -0.3919
14579TIP3   OH265227   0.689   0.222   0.967  0.1178 -0.2104  0.1486
14579TIP3    H165228   0.644   0.142   0.937  2.5965 -2.5339  2.4040
14579TIP3    H265229   0.769   0.225   0.914 -0.2816  1.2096 -0.3981
14580TIP3   OH265230   5.870   4.495  16.094 -0.1133  0.0288 -0.4121
14580TIP3    H165231   5.842   4.586  16.088 -0.0171  0.2163  1.5533
14580TIP3    H265232   5.942   4.496  16.158 -0.7043 -1.5477  0.3014
14581TIP3   OH265233   4.407   3.847   3.114 -1.0673 -0.7784  0.0681
14581TIP3    H165234   4.415   3.781   3.182 -0.4398  0.0608  0.8111
14581TIP3    H265235   4.455   3.811   3.039 -0.9063 -1.2430  0.3945
14582TIP3   OH265236   5.356   6.740   0.971 -0.4900 -0.4891 -0.5659
14582TIP3    H165237   5.346   6.795   0.894  1.1958  0.9306  0.1683
14582TIP3    H265238   5.441   6.766   1.007 -1.0409 -1.4492  1.4931
14583TIP3   OH265239   1.881   4.705  16.197  0.0858  0.7585 -0.2867
14583TIP3    H165240   1.820   4.644  16.239 -1.2894  1.6882 -0.8656
14583TIP3    H265241   1.941   4.732  16.266  1.0541 -1.6348 -0.1383
14584TIP3   OH265242   6.627   1.446   4.268  0.0486 -0.5208  0.2192
14584TIP3    H165243   6.573   1.415   4.340 -2.0726  0.1132 -1.0602
14584TIP3    H265244   6.645   1.368   4.215  0.0645 -0.6669  0.4425
14585TIP3   OH265245   6.479   3.437  12.396  0.1687 -0.2177  0.0862
14585TIP3    H165246   6.433   3.518  12.419 -0.2555  0.3202 -2.4422
14585TIP3    H265247   6.409   3.376  12.374  0.5370 -0.7729  0.4573
14586TIP3   OH265248   3.141   1.810   1.098 -0.1053 -0.0261 -0.6510
14586TIP3    H165249   3.131   1.900   1.067 -0.9294  0.8183  1.9932
14586TIP3    H265250   3.136   1.757   1.018  0.2406  2.2358 -2.2301
14587TIP3   OH265251   2.339   4.430   1.465 -0.7857  0.3107  0.2935
14587TIP3    H165252   2.321   4.516   1.426 -0.8350  0.4581  0.6429
14587TIP3    H265253   2.270   4.374   1.432 -1.7336  0.8069  1.4198
14588TIP3   OH265254   1.255   1.781  11.726 -0.3345  0.0488 -0.0213
14588TIP3    H165255   1.216   1.812  11.808 -0.2513 -0.8835  0.3724
14588TIP3    H265256   1.320   1.716  11.754 -0.3383 -0.3032 -0.8313
14589TIP3   OH265257   2.233   3.270   3.297  0.2916  0.1272  0.0181
14589TIP3    H165258   2.137   3.264   3.290  0.3244 -0.7408  0.2871
14589TIP3    H265259   2.265   3.220   3.221  0.5319  0.0938  0.1418
14590TIP3   OH265260   1.586   5.550  11.496 -0.0076 -0.0545 -0.0531
14590TIP3    H165261   1.637   5.528  11.574  0.7660  1.4161 -0.1303
14590TIP3    H265262   1.575   5.645  11.500 -1.1635 -0.1320 -1.0141
14591TIP3   OH265263   2.164   3.251  13.994  0.3069 -0.0024 -0.6620
14591TIP3    H165264   2.070   3.263  13.979  0.3510  0.9314 -0.2587
14591TIP3    H265265   2.185   3.312  14.065  0.9600 -1.1657  0.1735
14592TIP3   OH265266   4.531   5.512  13.792 -1.0092  0.2514 -0.7561
14592TIP3    H165267   4.575   5.594  13.769 -1.0616  0.6847  0.6408
14592TIP3    H265268   4.478   5.534  13.868 -1.2133 -1.0247 -0.5191
14593TIP3   OH265269   1.855   1.900   4.372  0.4067 -0.0090 -0.5139
14593TIP3    H165270   1.948   1.923   4.370 -0.1987  2.4275 -1.5854
14593TIP3    H265271   1.853   1.807   4.349  2.3860  0.4813 -2.8342
14594TIP3   OH265272   2.807   3.558  14.490 -0.1676  0.2403 -0.9926
14594TIP3    H165273   2.891   3.512  14.487 -0.9877 -1.5847  1.8581
14594TIP3    H265274   2.803   3.595  14.578 -2.2265  0.6108 -1.2093
14595TIP3   OH265275   6.369   5.819  13.629 -0.2155  0.1697 -0.2930
14595TIP3    H165276   6.397   5.846  13.541  3.4325  0.1417  0.7550
14595TIP3    H265277   6.411   5.882  13.688 -2.3342 -0.0221  1.4859
14596TIP3   OH265278   4.904   2.974   2.682 -0.1395 -0.2103  0.1791
14596TIP3    H165279   4.891   3.064   2.712  2.1542  0.5982 -1.1446
14596TIP3    H265280   4.946   2.930   2.756  2.5357  0.9307 -0.5874
14597TIP3   OH265281   6.246   0.824   1.182  0.1505  0.1758  0.1932
14597TIP3    H165282   6.216   0.909   1.214  0.0867  0.6795 -1.1443
14597TIP3    H265283   6.253   0.770   1.260 -1.3689  0.9280  0.8728
14598TIP3   OH265284   3.895   4.196   2.116  0.0319 -0.0618 -0.2960
14598TIP3    H165285   3.956   4.137   2.072 -2.3403 -2.2207 -0.7992
14598TIP3    H265286   3.853   4.244   2.045  0.2945  0.5776 -0.0216
14599TIP3   OH265287   2.552   1.307  12.194  0.5101  0.4076 -0.0819
14599TIP3    H165288   2.599   1.390  12.186  0.6397  0.3519  0.0955
14599TIP3    H265289   2.554   1.288  12.288  1.6587 -0.4814 -0.2863
14600TIP3   OH265290   6.137   1.058   5.808  0.1615 -0.2810 -0.8826
14600TIP3    H165291   6.149   0.974   5.853 -1.2020  0.3131  0.6446
14600TIP3    H265292   6.225   1.096   5.803  0.4672 -0.7765  0.4688
14601TIP3   OH265293   4.635   3.211   0.166  0.3098  0.3535 -0.2712
14601TIP3    H165294   4.630   3.306   0.154  0.5058  0.8211  3.0240
14601TIP3    H265295   4.611   3.197   0.257 -0.2498 -2.8404 -0.8700
14602TIP3   OH265296   5.325   3.230   1.207 -0.4638  0.2587  0.0784
14602TIP3    H165297   5.377   3.307   1.184 -1.6906  1.1839  0.3183
14602TIP3    H265298   5.365   3.197   1.288 -0.4007  1.1060  0.3976
14603TIP3   OH265299   4.029   5.994  15.524 -0.0043  0.4394 -0.2735
14603TIP3    H165300   3.965   5.993  15.595 -0.0382  0.1396 -0.3067
14603TIP3    H265301   4.114   5.986  15.568 -0.0334  0.1204 -0.2752
14604TIP3   OH265302   0.700   1.585   2.225 -0.4228  0.0390  0.1302
14604TIP3    H165303   0.766   1.524   2.258  0.3220  0.8532  0.1634
14604TIP3    H265304   0.702   1.574   2.130 -0.8199 -0.5166  0.1797
14605TIP3   OH265305   6.100   1.112  13.131 -0.2056  0.0160 -0.5458
14605TIP3    H165306   6.093   1.049  13.059  1.0596  1.2655 -1.7867
14605TIP3    H265307   6.179   1.084  13.178 -0.1745  0.1141 -0.5408
14606TIP3   OH265308   1.579   4.691  12.658  0.3815  0.0953 -0.4186
14606TIP3    H165309   1.637   4.668  12.731 -1.1343 -1.5299  0.2984
14606TIP3    H265310   1.621   4.653  12.581 -0.2056 -1.8960  0.2356
14607TIP3   OH265311   5.849   3.684  11.233 -0.5941 -0.0962  0.1388
14607TIP3    H165312   5.868   3.615  11.297 -1.3835 -0.9791 -0.5666
14607TIP3    H265313   5.846   3.765  11.285  0.3236 -0.5898  0.9709
14608TIP3   OH265314   5.291   4.473   2.925  0.0173  0.3650  0.0758
14608TIP3    H165315   5.197   4.490   2.914 -0.0932  0.4778  1.1499
14608TIP3    H265316   5.330   4.561   2.930 -0.1450  0.3306  2.2543
14609TIP3   OH265317   5.344   5.864   0.132 -0.5039 -0.3546  0.5203
14609TIP3    H165318   5.347   5.878   0.227 -1.0375 -1.2033  0.6605
14609TIP3    H265319   5.336   5.770   0.122 -2.2533 -0.1181 -0.3382
14610TIP3   OH265320   3.230   6.755   1.226  0.0866 -0.2232  0.1949
14610TIP3    H165321   3.205   6.676   1.273 -0.2894  0.1149  0.5734
14610TIP3    H265322   3.223   6.731   1.134  0.3476 -0.7430  0.3075
14611TIP3   OH265323   3.644   0.364   4.806 -0.1139 -0.4124 -0.8476
14611TIP3    H165324   3.626   0.277   4.768 -0.9527 -1.3385  1.5651
14611TIP3    H265325   3.718   0.349   4.865  0.0294  0.6175 -0.7683
14612TIP3   OH265326   3.984   6.589  14.770  0.1242 -0.3443 -0.0360
14612TIP3    H165327   3.993   6.659  14.705  1.5170 -0.8282 -0.3782
14612TIP3    H265328   3.967   6.510  14.719  1.6477 -0.8021  0.1582
14613TIP3   OH265329   1.765   0.465  12.392 -0.1213 -0.0252  0.8877
14613TIP3    H165330   1.681   0.420  12.393  0.7467 -1.6675  0.7487
14613TIP3    H265331   1.823   0.409  12.342  1.3239  0.6133  1.7857
14614TIP3   OH265332   2.561   2.552  15.121 -0.0904 -0.0638 -0.2263
14614TIP3    H165333   2.519   2.636  15.138 -1.3783 -0.4195 -1.5031
14614TIP3    H265334   2.536   2.532  15.031  0.2052 -1.8275  0.0824
14615TIP3   OH265335   2.589   6.660   2.472 -0.6743  0.3727 -0.1842
14615TIP3    H165336   2.651   6.724   2.508  0.2759 -0.2372 -0.7099
14615TIP3    H265337   2.548   6.705   2.398  1.3251 -0.2233 -1.6965
14616TIP3   OH265338   5.027   5.487   4.566 -0.3918  0.1194  0.3323
14616TIP3    H165339   4.965   5.477   4.495  0.6590  1.7473 -0.8395
14616TIP3    H265340   5.025   5.580   4.588 -0.4039 -0.2783  2.1760
14617TIP3   OH265341   4.017   2.080  15.737 -0.7116 -0.3175  0.3155
14617TIP3    H165342   4.077   2.072  15.811 -2.4171  0.6044  1.8257
14617TIP3    H265343   3.974   1.994  15.732  1.3907 -1.3306 -1.4108
14618TIP3   OH265344   3.215   2.612   4.205  0.2118 -0.2451 -0.2052
14618TIP3    H165345   3.281   2.565   4.256  1.3781  1.5886  0.0012
14618TIP3    H265346   3.244   2.703   4.205 -1.9145  0.4704 -0.7705
14619TIP3   OH265347   0.155   4.995  12.669  0.6561 -0.2453  0.2110
14619TIP3    H165348   0.078   4.997  12.726  1.0062  1.0074  0.6525
14619TIP3    H265349   0.138   5.063  12.604  1.4923  0.1880  0.4466
14620TIP3   OH265350   3.663   3.681  16.434 -0.1878 -0.1508 -0.5108
14620TIP3    H165351   3.740   3.665  16.379  1.4061  1.3417  1.2287
14620TIP3    H265352   3.627   3.763  16.400 -2.3004 -1.9028 -2.6872
14621TIP3   OH265353   2.820   5.737   0.142  0.0709  0.1464 -0.0441
14621TIP3    H165354   2.844   5.806   0.204  0.1131 -0.2930  0.4346
14621TIP3    H265355   2.748   5.774   0.091  0.5166  0.7787 -0.2150
14622TIP3   OH265356   0.226   1.420  12.165  0.1100  0.2099 -0.5177
14622TIP3    H165357   0.176   1.397  12.243  1.9447  0.9235  0.9230
14622TIP3    H265358   0.184   1.371  12.094 -0.5867 -1.7695  1.1930
14623TIP3   OH265359   0.062   5.301   3.046 -0.2941 -0.1597 -0.0088
14623TIP3    H165360  -0.010   5.240   3.028 -1.5789  1.3172 -0.0437
14623TIP3    H265361   0.024   5.387   3.030  1.7368  0.6181 -0.8331
14624TIP3   OH265362   2.284   2.131   3.338 -0.0086  0.5210 -0.1025
14624TIP3    H165363   2.325   2.215   3.359  1.0347 -0.1919  0.7288
14624TIP3    H265364   2.192   2.144   3.360 -0.0375  1.7503 -0.8783
14625TIP3   OH265365   1.481   4.204   2.603  0.1631  0.5507  0.1554
14625TIP3    H165366   1.514   4.294   2.596 -2.1658  1.3586 -0.7613
14625TIP3    H265367   1.520   4.159   2.528 -0.1255  1.2808 -0.4452
14626TIP3   OH265368   2.300   1.293  15.706  0.1601 -0.7865 -0.0035
14626TIP3    H165369   2.374   1.341  15.668  0.2678  0.8959  2.2350
14626TIP3    H265370   2.340   1.220  15.752  0.3804 -0.3714  0.4730
14627TIP3   OH265371   3.875   4.490   4.959  0.5358  0.6400 -0.4189
14627TIP3    H165372   3.953   4.453   4.919  0.7128  1.7310 -1.1023
14627TIP3    H265373   3.899   4.580   4.980 -0.9360  1.3740 -1.7728
14628TIP3   OH265374   5.353   5.424   2.160 -0.6214  0.2483  0.0732
14628TIP3    H165375   5.370   5.502   2.213  0.2056  0.3712 -0.3496
14628TIP3    H265376   5.260   5.429   2.139 -0.6942  0.8273  0.5207
14629TIP3   OH265377   3.947   5.942  17.134  0.2530  0.4276 -0.3375
14629TIP3    H165378   4.002   5.877  17.090  0.5190 -0.1643  0.8480
14629TIP3    H265379   3.997   6.024  17.128 -0.1502  0.5806 -1.9643
14630TIP3   OH265380   5.370   1.126  13.619 -0.6412  0.1279 -0.0733
14630TIP3    H165381   5.460   1.123  13.649 -0.7733  0.2509  0.3452
14630TIP3    H265382   5.346   1.218  13.623 -1.0254  0.0080  0.5637
14631TIP3   OH265383   1.939   0.420  10.157  0.1847 -0.2979  0.3135
14631TIP3    H165384   2.003   0.376  10.214 -2.0914 -1.8907  1.6978
14631TIP3    H265385   1.908   0.494  10.209 -1.0712 -1.1095  0.7510
14632TIP3   OH265386   3.459   2.719  13.812 -0.0463 -1.2279  0.0315
14632TIP3    H165387   3.550   2.707  13.786 -0.4620 -1.3477 -1.3766
14632TIP3    H265388   3.410   2.723  13.730 -1.0609  0.9084  0.7059
14633TIP3   OH265389   1.081   1.191   5.794  0.3080  0.4471  0.0818
14633TIP3    H165390   1.016   1.203   5.864 -0.7324 -5.4734  0.3504
14633TIP3    H265391   1.162   1.169   5.841  0.4531 -0.2772 -0.5104
14634TIP3   OH265392   3.956   6.809  14.161 -0.1902 -0.1063 -0.3515
14634TIP3    H165393   3.924   6.740  14.218 -0.3202  0.7621  0.6501
14634TIP3    H265394   3.920   6.788  14.075 -0.5890 -1.0333  0.0306
14635TIP3   OH265395   3.912   0.659   5.438  0.5598 -0.3598  0.0305
14635TIP3    H165396   3.822   0.662   5.405  0.8451  1.0122 -0.6649
14635TIP3    H265397   3.935   0.566   5.435 -0.4511 -0.5988 -0.8255
14636TIP3   OH265398   5.467   0.682  15.239 -0.0384 -0.0999  0.6612
14636TIP3    H165399   5.472   0.769  15.199  1.3903 -0.4698 -0.0132
14636TIP3    H265400   5.380   0.649  15.214 -0.2664  0.8107  0.2297
14637TIP3   OH265401   4.537   4.488   6.316  0.2368  0.3848 -0.0453
14637TIP3    H165402   4.563   4.441   6.395  1.8748  2.9545  1.0135
14637TIP3    H265403   4.477   4.556   6.347  0.1928  0.8689 -1.1581
14638TIP3   OH265404   0.431   5.003   1.684 -0.2566  0.2128  0.1030
14638TIP3    H165405   0.419   4.912   1.659  0.2826 -0.1675  1.1958
14638TIP3    H265406   0.346   5.030   1.718 -0.3199  0.0065  0.1093
14639TIP3   OH265407   0.715   0.143   3.645 -0.0699  0.1167 -0.2009
14639TIP3    H165408   0.697   0.227   3.604  2.0033  1.1476  0.9323
14639TIP3    H265409   0.749   0.088   3.574 -1.4952  0.1947 -0.9517
14640TIP3   OH265410   5.988   5.819  13.749  0.4829  0.1934  0.1621
14640TIP3    H165411   6.046   5.895  13.751  0.6747  0.0128  1.3876
14640TIP3    H265412   6.024   5.759  13.813  0.3759 -0.9878 -0.8626
14641TIP3   OH265413   4.717   0.401  11.605 -0.0380 -0.7826 -0.2643
14641TIP3    H165414   4.685   0.347  11.532  0.0854  1.6186 -2.1196
14641TIP3    H265415   4.798   0.440  11.573 -1.2669  2.2794  0.1875
14642TIP3   OH265416   5.876   6.585   4.083 -0.5107  0.2921 -0.0090
14642TIP3    H165417   5.819   6.527   4.032 -0.9562  0.0066  0.8080
14642TIP3    H265418   5.964   6.550   4.069 -0.5170  0.7452 -1.2928
14643TIP3   OH265419   3.984   3.281  15.226  0.2100  0.5459  0.0144
14643TIP3    H165420   3.904   3.307  15.272  0.5588 -0.2570  1.0821
14643TIP3    H265421   3.987   3.339  15.150 -1.3265  0.6743  0.0225
14644TIP3   OH265422   1.064   3.643  16.581  0.3613 -0.2175 -0.0504
14644TIP3    H165423   1.061   3.550  16.560  1.1316 -0.6964  1.8565
14644TIP3    H265424   1.091   3.685  16.500  1.5762 -1.8189 -0.4927
14645TIP3   OH265425   4.108   1.716  16.680  0.0671 -0.0181 -0.4451
14645TIP3    H165426   4.082   1.752  16.596 -1.4428 -1.9934 -0.8623
14645TIP3    H265427   4.072   1.777  16.745  1.1415  1.4437 -1.1945
14646TIP3   OH265428   3.828   1.625   6.555 -0.1460  0.4240 -0.3840
14646TIP3    H165429   3.733   1.636   6.548 -0.2897 -0.3558  0.3011
14646TIP3    H265430   3.864   1.704   6.515 -1.0871  1.0114 -0.0889
14647TIP3   OH265431   4.751   0.133   5.001  0.4053  0.6335  0.1151
14647TIP3    H165432   4.835   0.109   5.039 -0.3336 -0.1650  1.2894
14647TIP3    H265433   4.747   0.228   5.009  0.2056  0.4771  2.2183
14648TIP3   OH265434   3.830   1.178  13.060 -0.6661  0.0640 -0.7337
14648TIP3    H165435   3.831   1.246  12.993  0.9116  1.2111  0.3972
14648TIP3    H265436   3.866   1.222  13.138 -0.3766 -1.8547  0.2302
14649TIP3   OH265437   5.290   0.368   5.861 -0.5044  0.3445  0.2687
14649TIP3    H165438   5.302   0.284   5.816 -0.9870 -0.7408  2.1032
14649TIP3    H265439   5.377   0.392   5.892 -0.5360  0.0163  0.6107
14650TIP3   OH265440   2.431   0.645  15.819 -0.4999  0.6098 -0.2655
14650TIP3    H165441   2.411   0.711  15.752  2.2225  1.1594 -0.6171
14650TIP3    H265442   2.423   0.691  15.902 -0.9746  0.7440 -0.3873
14651TIP3   OH265443   1.700   1.815  15.998 -0.5396  0.2479  0.3422
14651TIP3    H165444   1.656   1.746  16.047 -3.6664  0.3313 -2.2274
14651TIP3    H265445   1.750   1.769  15.931 -0.2693  0.3665  0.4595
14652TIP3   OH265446   1.620   1.579   0.854 -0.3447  0.4783  0.0100
14652TIP3    H165447   1.560   1.527   0.908 -0.7850 -0.2730 -1.1804
14652TIP3    H265448   1.678   1.623   0.917  0.2766 -1.7438  1.0335
14653TIP3   OH265449   0.398   3.101   5.679  0.3057  0.4605  0.0780
14653TIP3    H165450   0.397   3.076   5.587 -1.8107  1.4473 -0.2102
14653TIP3    H265451   0.380   3.020   5.726 -1.0069  0.3934 -0.5199
14654TIP3   OH265452   2.501   2.465   0.736 -0.1978  0.1000 -0.0667
14654TIP3    H165453   2.413   2.498   0.716 -0.4937 -0.1005  0.8831
14654TIP3    H265454   2.516   2.491   0.827 -0.0921 -1.6304  0.4279
14655TIP3   OH265455   0.141   0.854  16.168 -0.5367 -0.0074  0.0672
14655TIP3    H165456   0.150   0.781  16.228  2.1164 -1.0337 -1.4755
14655TIP3    H265457   0.160   0.931  16.222 -1.1046 -0.6382  1.1899
14656TIP3   OH265458   4.023   4.206   6.154 -0.0305  0.1351  0.0229
14656TIP3    H165459   4.051   4.124   6.196  0.4386 -0.2177 -0.9731
14656TIP3    H265460   4.017   4.185   6.061  0.2590  1.2825 -0.2677
14657TIP3   OH265461   6.025   4.915  11.509  0.3211 -0.0770 -0.6860
14657TIP3    H165462   5.962   4.951  11.572  2.0097  0.1946  0.8901
14657TIP3    H265463   5.972   4.892  11.432 -1.3974  1.9236 -0.1342
14658TIP3   OH265464   6.520   3.987   1.884  0.1019 -0.7203 -0.5923
14658TIP3    H165465   6.496   3.927   1.955  0.2792 -1.0172 -0.7880
14658TIP3    H265466   6.585   3.940   1.833 -0.2095 -0.6008 -1.1048
14659TIP3   OH265467   1.993   0.591  10.435 -0.2985  0.1143  0.3033
14659TIP3    H165468   2.027   0.657  10.496 -1.8837  1.1195  0.1410
14659TIP3    H265469   1.970   0.641  10.357 -0.6326 -0.7921 -0.1816
14660TIP3   OH265470   1.774   3.873   2.496 -0.6068  0.0150  0.2406
14660TIP3    H165471   1.701   3.832   2.544  0.5735  0.1693  2.1930
14660TIP3    H265472   1.800   3.807   2.431 -0.8812 -1.0055  1.1664
14661TIP3   OH265473   0.221   4.185   0.298 -0.2797  0.3792 -0.4148
14661TIP3    H165474   0.134   4.165   0.262 -0.4948 -1.1553  0.8989
14661TIP3    H265475   0.206   4.259   0.357 -0.4175  1.0974 -1.3392
14662TIP3   OH265476   5.422   3.876   5.631 -0.0642 -0.2925 -0.0308
14662TIP3    H165477   5.335   3.915   5.625 -0.2094 -0.7835 -1.1516
14662TIP3    H265478   5.479   3.937   5.585 -0.0992 -0.7893 -0.7514
14663TIP3   OH265479   2.231   0.141  15.041  0.4695  0.2551  0.5512
14663TIP3    H165480   2.313   0.104  15.073 -0.0636 -1.6314 -0.1643
14663TIP3    H265481   2.245   0.235  15.041  2.8360 -0.0700 -0.1242
14664TIP3   OH265482   1.832   1.096   0.125 -0.0415  0.0085  0.1451
14664TIP3    H165483   1.808   1.015   0.079 -0.4044 -0.5320  1.2605
14664TIP3    H265484   1.911   1.073   0.173 -0.4411  0.1521  0.8786
14665TIP3   OH265485   6.458   2.808  13.312  0.6223 -0.2051  0.2218
14665TIP3    H165486   6.531   2.829  13.254  0.3587  0.3169  0.0812
14665TIP3    H265487   6.498   2.759  13.384  1.1619  0.3861  0.3248
14666TIP3   OH265488   2.500   6.062  12.649 -0.2331 -0.5888 -0.1248
14666TIP3    H165489   2.484   6.155  12.632  0.9226 -0.4384 -0.4305
14666TIP3    H265490   2.579   6.061  12.703  0.0859 -1.4211 -0.5967
14667TIP3   OH265491   2.545   5.208  12.842 -0.3001  0.1532 -0.3170
14667TIP3    H165492   2.463   5.159  12.838 -1.4880  1.8850  1.4646
14667TIP3    H265493   2.599   5.160  12.904 -0.9561  0.3283  0.4119
14668TIP3   OH265494   1.267   6.338   0.074 -0.0591 -0.1641  0.4752
14668TIP3    H165495   1.209   6.265   0.091  0.7189 -1.0195 -0.4841
14668TIP3    H265496   1.344   6.299   0.033  0.5143  1.1411  0.2728
14669TIP3   OH265497   3.410   5.789   0.025 -0.4451 -0.3475  0.1034
14669TIP3    H165498   3.471   5.719   0.048 -3.0422 -1.8488  2.6992
14669TIP3    H265499   3.389   5.772  -0.067  3.8216  0.8990 -1.2311
14670TIP3   OH265500   0.493   0.424  13.221  0.3799  0.2339  0.0811
14670TIP3    H165501   0.526   0.364  13.153 -1.0288 -0.0277 -0.3773
14670TIP3    H265502   0.497   0.510  13.180 -0.0788  0.1289 -0.1800
14671TIP3   OH265503   1.169   4.015   3.147  0.1074  0.2813  0.0765
14671TIP3    H165504   1.114   3.983   3.219  1.6957 -1.7852  0.3979
14671TIP3    H265505   1.254   4.032   3.187  0.6988  0.1304 -1.1009
14672TIP3   OH265506   0.995   0.753  14.899  0.1259  0.4952  0.0612
14672TIP3    H165507   0.976   0.835  14.946  1.3015  0.8853 -0.1152
14672TIP3    H265508   1.091   0.750  14.895  0.1572 -1.6693  1.4217
14673TIP3   OH265509   0.744   1.746   0.047 -0.4719  0.2283  0.3171
14673TIP3    H165510   0.744   1.726  -0.046 -0.2959 -0.2262  0.4149
14673TIP3    H265511   0.766   1.663   0.090 -1.6464  0.1670  0.8218
14674TIP3   OH265512   1.299   4.098  12.461 -0.1508 -0.3992 -0.0099
14674TIP3    H165513   1.245   4.160  12.412  0.0794 -0.6808 -0.6181
14674TIP3    H265514   1.285   4.014  12.419 -0.7628 -0.8412  1.0576
14675TIP3   OH265515   6.785   0.935   1.858  0.3457  0.1884  0.1529
14675TIP3    H165516   6.797   0.866   1.923  0.2508  0.2285  0.2131
14675TIP3    H265517   6.707   0.982   1.887 -0.3529 -0.4958 -0.6261
14676TIP3   OH265518   0.090   3.682   5.508  0.5191 -0.0977 -0.3565
14676TIP3    H165519   0.109   3.644   5.594 -2.5249 -0.9249 -0.0053
14676TIP3    H265520   0.074   3.606   5.452  0.0346  0.5094 -1.0425
14677TIP3   OH265521   3.165   5.422  13.708  0.0113 -0.4100 -0.0556
14677TIP3    H165522   3.077   5.419  13.745  0.4678  4.0591  1.7072
14677TIP3    H265523   3.220   5.455  13.779  2.2299  1.4012 -2.5007
14678TIP3   OH265524   5.982   6.288   2.470  0.1057  0.3098 -0.5921
14678TIP3    H165525   5.989   6.227   2.396 -2.5534 -0.5705 -0.1704
14678TIP3    H265526   5.949   6.369   2.432 -1.7256 -0.2941 -0.3212
14679TIP3   OH265527   3.578   2.463  16.243  0.1502  0.0331  0.6228
14679TIP3    H165528   3.519   2.388  16.252 -1.6513  1.3193 -0.0727
14679TIP3    H265529   3.565   2.515  16.322  0.4460  0.2615  0.5256
14680TIP3   OH265530   2.975   0.187   4.050 -0.0272 -0.0880 -0.8472
14680TIP3    H165531   2.997   0.100   4.017  0.8418  0.0813 -0.7187
14680TIP3    H265532   3.059   0.224   4.079 -0.4451  0.6471 -0.5629
14681TIP3   OH265533   3.165   2.065   1.007 -0.5601 -0.3145 -0.0815
14681TIP3    H165534   3.182   2.119   0.930 -0.7822 -0.4524 -0.2272
14681TIP3    H265535   3.140   2.128   1.075  2.2369  0.0962  0.6592
14682TIP3   OH265536   0.751   2.923  16.561 -0.2976 -0.2643  0.7179
14682TIP3    H165537   0.747   2.924  16.656 -3.0742 -2.9485  0.7156
14682TIP3    H265538   0.674   2.972  16.533  2.3284  3.5608 -0.2849
14683TIP3   OH265539   6.001   1.359   3.159 -0.2054 -0.1215  0.4229
14683TIP3    H165540   5.947   1.369   3.081 -0.2240 -1.3744  0.2682
14683TIP3    H265541   6.080   1.411   3.141 -0.4503  0.0271 -0.2021
14684TIP3   OH265542   5.505   1.502   0.539 -0.2370 -0.1564 -0.3896
14684TIP3    H165543   5.554   1.482   0.618 -1.7002 -2.5144 -0.0139
14684TIP3    H265544   5.537   1.439   0.474 -1.4333 -0.5169 -0.6534
14685TIP3   OH265545   5.113   3.794   0.524 -0.3127  0.0386 -0.0272
14685TIP3    H165546   5.148   3.732   0.460  2.0011  1.2747 -0.0155
14685TIP3    H265547   5.185   3.807   0.586 -0.8445  2.5411  0.1077
14686TIP3   OH265548   1.609   3.420  14.306  0.0065  0.0877 -0.2078
14686TIP3    H165549   1.693   3.425  14.260 -0.8104 -0.0992 -1.7293
14686TIP3    H265550   1.553   3.483  14.261 -1.2692 -1.2047 -0.4370
14687TIP3   OH265551   3.043   6.665  13.736  0.2239  0.2663 -1.0849
14687TIP3    H165552   3.037   6.590  13.677  1.1863  1.1373 -2.3106
14687TIP3    H265553   3.111   6.721  13.698  2.7822 -0.4083  2.2776
14688TIP3   OH265554   3.318   1.175   4.422 -0.4142  0.6234  0.1051
14688TIP3    H165555   3.347   1.141   4.337  0.7161  0.3553  0.6015
14688TIP3    H265556   3.265   1.105   4.459  1.6750 -0.4947  1.0019
14689TIP3   OH265557   5.386   3.560  16.892  0.1565 -0.5917  0.4530
14689TIP3    H165558   5.399   3.653  16.911 -0.5154 -0.5075  0.4998
14689TIP3    H265559   5.354   3.523  16.974 -3.0734 -0.1699 -0.5511
14690TIP3   OH265560   3.222   3.970   1.798 -0.2504 -0.1377  0.3711
14690TIP3    H165561   3.208   4.059   1.767 -2.9689 -0.0725  1.6383
14690TIP3    H265562   3.307   3.944   1.761  1.0671  3.3147  0.7940
14691TIP3   OH265563   0.980   2.522  15.592  0.0123 -0.3385  0.2881
14691TIP3    H165564   0.997   2.490  15.680  0.0234  1.2502  0.8775
14691TIP3    H265565   1.000   2.616  15.596  3.1981 -0.8243 -2.2283
14692TIP3   OH265566   2.856   0.533   4.945  0.2253  0.1664  0.0278
14692TIP3    H165567   2.842   0.623   4.916  0.7840  0.2746  0.0841
14692TIP3    H265568   2.951   0.525   4.955  0.1750 -0.4048  0.1025
14693TIP3   OH265569   4.886   6.033  15.240  0.1941  0.0966  0.0264
14693TIP3    H165570   4.808   6.008  15.190  1.7193  0.3980 -2.6169
14693TIP3    H265571   4.868   6.123  15.268 -0.5793  0.0262 -0.2263
14694TIP3   OH265572   1.933   0.256   6.764 -0.0094 -0.2689  0.1225
14694TIP3    H165573   1.853   0.279   6.811  0.9821  0.3079  1.5327
14694TIP3    H265574   1.949   0.164   6.788 -0.7394 -0.6627 -0.8766
14695TIP3   OH265575   4.714   4.557   4.207  0.5791  0.0439 -0.1520
14695TIP3    H165576   4.696   4.466   4.229  0.5234  0.0012 -0.3706
14695TIP3    H265577   4.634   4.604   4.229  0.2899 -0.1036 -0.8647
14696TIP3   OH265578   5.704   1.637   5.266  0.2729  0.5364  0.6311
14696TIP3    H165579   5.633   1.696   5.290 -1.1840 -0.8086 -0.2388
14696TIP3    H265580   5.772   1.652   5.332 -0.7048  2.0273  1.3226
14697TIP3   OH265581   3.370   2.232  12.139  0.0342  0.2954 -0.6384
14697TIP3    H165582   3.334   2.291  12.073  0.9603 -0.1250 -1.5343
14697TIP3    H265583   3.464   2.228  12.120  0.1945 -0.4320  0.2294
14698TIP3   OH265584   1.584   6.465  14.249  0.2594 -0.1910  0.2349
14698TIP3    H165585   1.537   6.413  14.183 -1.6381  0.4341  1.0695
14698TIP3    H265586   1.569   6.418  14.331  2.8456 -1.1140  0.2256
14699TIP3   OH265587   1.869   3.420  14.268  0.1782 -0.7042 -0.4213
14699TIP3    H165588   1.897   3.416  14.359  0.2919 -0.7034 -0.4554
14699TIP3    H265589   1.925   3.356  14.223  2.3759  1.5883 -1.0868
14700TIP3   OH265590   4.289   0.260  12.194 -0.0924  0.3033 -0.5015
14700TIP3    H165591   4.292   0.174  12.236 -0.7979  0.2504 -0.5459
14700TIP3    H265592   4.336   0.318  12.254 -1.1971  0.2529  0.4406
14701TIP3   OH265593   3.702   5.884  13.602 -0.1402 -0.0229  0.3532
14701TIP3    H165594   3.644   5.959  13.597 -0.6725 -0.4605 -0.1126
14701TIP3    H265595   3.761   5.893  13.527  0.6732  0.6479  1.0665
14702TIP3   OH265596   4.606   0.180  13.821  0.2220  0.0980  0.0268
14702TIP3    H165597   4.609   0.108  13.758  1.6011  0.2884 -0.1385
14702TIP3    H265598   4.631   0.257  13.771  0.2460  0.4377  0.5590
14703TIP3   OH265599   0.496   1.124  15.045  0.1120  0.0575  0.7441
14703TIP3    H165600   0.517   1.214  15.070  0.3588 -0.3903  2.2241
14703TIP3    H265601   0.551   1.070  15.102 -0.2134 -1.0294  0.0436
14704TIP3   OH265602   1.280   0.848  15.016 -0.5140 -0.2628  0.2709
14704TIP3    H165603   1.244   0.935  14.997 -1.3985 -0.6238  0.2592
14704TIP3    H265604   1.375   0.860  15.013 -0.6295  0.4736 -0.7925
14705TIP3   OH265605   0.846   4.885   1.157 -0.6571 -0.0573 -0.8853
14705TIP3    H165606   0.874   4.914   1.071  0.8583 -1.8810 -1.0156
14705TIP3    H265607   0.847   4.789   1.152  1.3744 -0.2240  1.7390
14706TIP3   OH265608   4.404   0.835   1.397 -0.2197  0.2780 -0.0423
14706TIP3    H165609   4.371   0.748   1.421  1.6479 -0.5023 -0.1940
14706TIP3    H265610   4.473   0.853   1.460 -0.7402  1.7643  0.1231
14707TIP3   OH265611   1.597   4.254   3.400  0.0071  0.0826 -0.3592
14707TIP3    H165612   1.546   4.334   3.384 -1.6082 -0.8261  0.1148
14707TIP3    H265613   1.560   4.190   3.339 -1.2576 -1.3354  1.8339
14708TIP3   OH265614   3.436   4.424   4.557 -0.4051  0.0685  0.1370
14708TIP3    H165615   3.382   4.390   4.485 -0.1912 -0.0079  0.0129
14708TIP3    H265616   3.398   4.383   4.635 -1.1880  0.8291  0.1658
14709TIP3   OH265617   5.963   6.532  15.599 -0.0180  0.3827 -0.0032
14709TIP3    H165618   5.983   6.440  15.619 -0.5447  0.2938  0.1365
14709TIP3    H265619   5.954   6.534  15.504  1.0135  0.5007 -0.1000
14710TIP3   OH265620   4.799   4.839   0.691 -0.5568  0.0983  0.0784
14710TIP3    H165621   4.711   4.809   0.668  0.9354 -2.8212 -2.2253
14710TIP3    H265622   4.835   4.769   0.746  1.4371 -0.3798 -1.7273
14711TIP3   OH265623   3.074   4.931   0.675 -0.6253  0.0090  0.4979
14711TIP3    H165624   3.011   4.887   0.618 -0.4964 -0.7116  0.9058
14711TIP3    H265625   3.159   4.904   0.641 -0.5541 -0.8774  1.3944
14712TIP3   OH265626   4.128   0.531   2.544 -0.1925  0.2780 -0.3792
14712TIP3    H165627   4.058   0.594   2.529  0.0730  1.0374  1.4425
14712TIP3    H265628   4.209   0.581   2.534  0.0297  0.1032  0.5169
14713TIP3   OH265629   5.313   5.100  13.457  0.1301  0.4981 -0.6645
14713TIP3    H165630   5.315   5.178  13.402  0.3000  0.9963  0.0387
14713TIP3    H265631   5.360   5.034  13.407 -0.3963  0.7147 -1.4578
14714TIP3   OH265632   4.932   4.768   1.721 -0.3332 -0.4975 -0.2865
14714TIP3    H165633   5.009   4.824   1.715 -0.5344 -0.4131 -2.2904
14714TIP3    H265634   4.902   4.757   1.631 -1.7794 -1.7755  0.3143
14715TIP3   OH265635   2.740   6.466   3.269 -0.0573 -0.1810  0.4328
14715TIP3    H165636   2.665   6.445   3.214 -0.6870 -1.2428  1.6460
14715TIP3    H265637   2.701   6.502   3.349  0.6592 -1.6453  1.4625
14716TIP3   OH265638   1.685   1.824  12.649 -0.2701 -0.0278  0.1892
14716TIP3    H165639   1.597   1.790  12.632 -0.4630  0.8262 -0.5421
14716TIP3    H265640   1.712   1.781  12.731 -1.0324 -0.9163 -0.0212
14717TIP3   OH265641   0.871   5.519   2.327 -0.2126  0.1478 -0.1669
14717TIP3    H165642   0.837   5.455   2.390 -0.2548  0.6549  0.3306
14717TIP3    H265643   0.803   5.526   2.261 -0.8988  0.8564  0.6112
14718TIP3   OH265644   4.681   5.076   1.470  0.2406 -0.1521 -0.4310
14718TIP3    H165645   4.665   5.072   1.375  0.6259  0.2883 -0.5112
14718TIP3    H265646   4.666   4.986   1.500 -0.3175 -0.2014 -0.8399
14719TIP3   OH265647   1.130   2.344   6.300  0.1593  0.9111  0.3721
14719TIP3    H165648   1.131   2.414   6.236  0.9335 -0.1518 -0.8226
14719TIP3    H265649   1.197   2.368   6.363 -0.9108  2.1810  1.0304
14720TIP3   OH265650   4.117   2.958   2.658  0.3850  0.0495 -0.3256
14720TIP3    H165651   4.153   3.030   2.710 -0.4546  0.4958 -0.3581
14720TIP3    H265652   4.132   2.984   2.567 -0.5936  0.5366 -0.3509
14721TIP3   OH265653   6.073   6.516  15.103  0.4291 -0.3358  0.1649
14721TIP3    H165654   6.076   6.524  15.007  0.6818  0.5135  0.2354
14721TIP3    H265655   6.161   6.487  15.127 -0.5688 -3.7093 -0.1108
14722TIP3   OH265656   1.740   3.835   4.520 -0.2816  0.0207 -0.0593
14722TIP3    H165657   1.700   3.920   4.538  1.1941  0.7517 -0.1782
14722TIP3    H265658   1.669   3.772   4.536 -1.4617  1.2742 -0.2231
14723TIP3   OH265659   4.892   1.451  16.962  0.0903 -0.2464 -0.6489
14723TIP3    H165660   4.911   1.429  16.870  0.3501  1.9203 -1.1481
14723TIP3    H265661   4.818   1.512  16.957  1.8838  2.1245  0.3346
14724TIP3   OH265662   4.386   1.722   0.008 -0.4803  0.1417  0.2308
14724TIP3    H165663   4.452   1.674   0.058  0.1955 -1.5908 -2.2133
14724TIP3    H265664   4.347   1.782   0.071  2.1520 -0.0893  2.1822
14725TIP3   OH265665   2.306   6.332   4.546  0.1730 -0.4377 -0.1098
14725TIP3    H165666   2.303   6.426   4.564  0.2850 -0.4181 -0.1989
14725TIP3    H265667   2.369   6.297   4.609 -0.6610 -0.6085  0.6347
14726TIP3   OH265668   4.778   2.252  12.348  0.2438 -0.3706 -0.1831
14726TIP3    H165669   4.768   2.292  12.434  0.5819 -1.0629  0.1874
14726TIP3    H265670   4.789   2.325  12.288 -0.8140  0.1515  0.2474
14727TIP3   OH265671   4.772   6.443   2.240 -0.6104 -0.0347  0.3967
14727TIP3    H165672   4.844   6.444   2.304  0.8639 -1.1197 -1.1958
14727TIP3    H265673   4.778   6.527   2.196 -0.5020 -0.0025  0.4719
14728TIP3   OH265674   1.931   1.471   0.390 -0.8253  0.5029  0.6726
14728TIP3    H165675   1.970   1.556   0.370  2.3247 -0.5481  2.0746
14728TIP3    H265676   1.837   1.486   0.383 -0.4274  4.5207  2.3063
14729TIP3   OH265677   6.248   2.188  15.494 -0.2383  0.2033  0.4625
14729TIP3    H165678   6.317   2.126  15.472  0.2411  0.6471  0.7047
14729TIP3    H265679   6.286   2.243  15.563 -0.5200  1.0124 -0.0132
14730TIP3   OH265680   0.255   3.045  16.552  0.2694 -0.1094  0.0250
14730TIP3    H165681   0.176   2.996  16.526  0.2124 -0.3732  0.6878
14730TIP3    H265682   0.247   3.128  16.506  0.7731 -1.0239 -1.7809
14731TIP3   OH265683   1.565   0.485   3.765  0.9129 -0.0376 -0.5135
14731TIP3    H165684   1.650   0.495   3.807 -0.6459  2.3605  2.2455
14731TIP3    H265685   1.561   0.557   3.702  0.2011  0.9399  0.6486
14732TIP3   OH265686   5.079   5.134  12.551 -0.2476 -0.0663  0.3020
14732TIP3    H165687   5.030   5.090  12.482 -2.5242  3.3893 -0.4233
14732TIP3    H265688   5.032   5.114  12.632  0.2271 -1.0403  0.3381
14733TIP3   OH265689   6.612   6.663   0.941  0.0976  0.4392 -0.1477
14733TIP3    H165690   6.536   6.659   0.998 -0.4119  1.3810 -0.7328
14733TIP3    H265691   6.633   6.572   0.920 -0.0057  0.1199  1.1400
14734TIP3   OH265692   4.509   2.363  15.060  0.2909 -0.5454 -0.3976
14734TIP3    H165693   4.568   2.337  15.131  0.0488 -1.8307 -0.6664
14734TIP3    H265694   4.426   2.383  15.104  1.6093  3.9520  0.3417
14735TIP3   OH265695   2.672   0.012   1.364 -0.4113 -0.3756  0.5442
14735TIP3    H165696   2.630  -0.018   1.284 -1.6310 -1.1762  1.4695
14735TIP3    H265697   2.765   0.019   1.341 -0.5828 -1.7168 -0.6200
14736TIP3   OH265698   2.998   1.173   1.835 -0.2304  0.3144 -0.1380
14736TIP3    H165699   2.928   1.155   1.772 -0.5452 -1.1092  0.6169
14736TIP3    H265700   3.001   1.269   1.840 -0.9582  0.4240 -1.4614
14737TIP3   OH265701   0.998   2.187   5.747  0.5111  0.4306 -0.0717
14737TIP3    H165702   0.999   2.216   5.838 -1.5575 -0.7574  0.3724
14737TIP3    H265703   0.909   2.205   5.716  0.9069 -0.0300 -1.5663
14738TIP3   OH265704   0.488   3.603  11.378 -0.7934 -0.0537  0.1044
14738TIP3    H165705   0.456   3.565  11.459 -1.4700 -0.4233 -0.3312
14738TIP3    H265706   0.508   3.527  11.322 -0.6831  0.1996 -0.2031
14739TIP3   OH265707   4.644   6.508  15.497  0.4739 -0.2209 -0.3123
14739TIP3    H165708   4.678   6.565  15.566  1.0793  1.8830 -2.2726
14739TIP3    H265709   4.719   6.490  15.441 -0.5490  0.3774 -1.9256
14740TIP3   OH265710   4.143   2.158  11.270  0.3431  0.5636  0.4712
14740TIP3    H165711   4.104   2.190  11.189  1.5797  0.3403 -0.2213
14740TIP3    H265712   4.070   2.116  11.317 -0.1112 -0.4373 -1.1037
14741TIP3   OH265713   0.816   5.163  14.235  0.0549  0.1027  0.4447
14741TIP3    H165714   0.832   5.248  14.277 -0.6499  1.2935 -1.6619
14741TIP3    H265715   0.859   5.169  14.150  0.2388 -1.7681  0.3751
14742TIP3   OH265716   6.449   5.989   1.990  0.1149  0.1971 -0.1634
14742TIP3    H165717   6.419   6.079   2.002 -0.1270  0.2264 -0.9949
14742TIP3    H265718   6.374   5.935   2.015  0.5010  0.2113  1.0375
14743TIP3   OH265719   3.105   1.443   2.608 -0.2495  0.1486  0.0168
14743TIP3    H165720   3.113   1.348   2.600  1.4263  0.2003  0.7749
14743TIP3    H265721   3.121   1.460   2.700  0.0113  1.2183 -0.2238
14744TIP3   OH265722   5.468   3.607  11.971  0.1011 -0.2236 -0.2883
14744TIP3    H165723   5.401   3.564  11.917  0.6029 -0.2499 -0.9009
14744TIP3    H265724   5.440   3.591  12.061 -0.5825 -0.4502 -0.5366
14745TIP3   OH265725   4.632   1.116   2.712  0.5646  0.5271  0.2103
14745TIP3    H165726   4.542   1.101   2.685  0.2337  0.3252  1.3779
14745TIP3    H265727   4.685   1.092   2.636 -0.4839  2.9857 -1.3501
14746TIP3   OH265728   4.326   4.925   5.345  0.0384 -0.1363 -0.1739
14746TIP3    H165729   4.397   4.862   5.359  0.8109 -0.0816 -3.5491
14746TIP3    H265730   4.353   5.003   5.395  1.7283 -0.5552 -0.4135
14747TIP3   OH265731   4.153   2.520   0.595  0.0325 -0.3789 -0.4968
14747TIP3    H165732   4.066   2.560   0.587 -0.2324 -0.9866 -0.6708
14747TIP3    H265733   4.213   2.591   0.576 -0.3637  0.5637  1.6381
14748TIP3   OH265734   4.601   5.724   2.923  0.0951  0.2212 -0.2964
14748TIP3    H165735   4.691   5.756   2.919  0.1052  0.0705 -1.5529
14748TIP3    H265736   4.608   5.630   2.907 -0.0323 -0.2860  2.4249
14749TIP3   OH265737   4.472   2.668   0.582  0.0315  0.3634  0.1635
14749TIP3    H165738   4.509   2.594   0.533  0.4646  0.5048  0.2748
14749TIP3    H265739   4.527   2.743   0.558  0.7995  0.2615  1.5220
14750TIP3   OH265740   5.922   6.144  16.241 -0.5577 -0.6074 -0.4960
14750TIP3    H165741   6.009   6.169  16.209 -0.4180 -2.4305 -1.6083
14750TIP3    H265742   5.937   6.066  16.293 -1.4179 -0.3314  0.1740
14751TIP3   OH265743   1.094   1.127  16.931 -0.5740 -0.2732 -0.1451
14751TIP3    H165744   1.112   1.071  16.855 -0.4937 -0.1390 -0.2269
14751TIP3    H265745   1.065   1.066  16.999 -0.1888 -0.4477 -0.1380
14752TIP3   OH265746   3.893   0.680  15.798  0.5788 -0.3337 -0.4126
14752TIP3    H165747   3.891   0.769  15.834  0.8965 -0.1421 -0.8711
14752TIP3    H265748   3.982   0.669  15.765  0.8039 -1.1509  0.4555
14753TIP3   OH265749   1.393   3.193   4.927  1.0293 -0.1956 -0.1219
14753TIP3    H165750   1.360   3.140   4.854  0.6501  1.2488 -1.0447
14753TIP3    H265751   1.391   3.283   4.893 -1.7727  0.8617  2.6006
14754TIP3   OH265752   3.843   2.963  11.484  0.2974 -0.0440  0.1792
14754TIP3    H165753   3.770   2.910  11.517  0.5041 -1.1152 -1.0379
14754TIP3    H265754   3.874   2.915  11.407  2.8485 -0.0679  1.1800
14755TIP3   OH265755   2.499   4.022  14.770  0.4492  0.4369 -0.1803
14755TIP3    H165756   2.496   4.062  14.684  0.4786  0.2382 -0.2739
14755TIP3    H265757   2.489   3.929  14.754  1.6414  0.2787 -0.0719
14756TIP3   OH265758   4.491   1.192   3.408 -0.8005 -0.2868  0.6400
14756TIP3    H165759   4.511   1.251   3.480 -0.6736  2.3920 -1.4997
14756TIP3    H265760   4.404   1.218   3.379 -0.2685 -0.3227 -1.0817
14757TIP3   OH265761   2.077   4.172   6.860  0.0740 -0.0719  0.1998
14757TIP3    H165762   2.005   4.182   6.922 -0.0429 -0.7837  0.1894
14757TIP3    H265763   2.044   4.211   6.779  0.1849  0.7520  0.5461
14758TIP3   OH265764   6.489   5.035   0.113 -0.3771  0.0873  0.2348
14758TIP3    H165765   6.491   5.108   0.051  0.1611  0.0051  0.1564
14758TIP3    H265766   6.561   4.978   0.086 -0.0247  0.1402  1.0446
14759TIP3   OH265767   6.463   3.840   4.569 -0.3399 -0.0158 -0.5237
14759TIP3    H165768   6.538   3.798   4.610 -0.8849 -0.2501  0.2457
14759TIP3    H265769   6.491   3.930   4.553 -0.1890  0.1378  0.5541
14760TIP3   OH265770   5.963   5.047   2.138 -0.1007 -0.5217  0.4899
14760TIP3    H165771   6.041   5.034   2.084 -1.0133  0.3463 -1.0810
14760TIP3    H265772   5.923   4.960   2.145 -0.5367 -0.4709 -1.1411
14761TIP3   OH265773   0.638   0.321  12.701  0.1477 -0.4350  0.0565
14761TIP3    H165774   0.591   0.240  12.722  1.1671 -0.9179  0.5121
14761TIP3    H265775   0.705   0.329  12.769  0.9236  0.0763 -0.7407
14762TIP3   OH265776   2.575   6.065   5.655 -0.4765 -0.4882  0.5991
14762TIP3    H165777   2.483   6.092   5.664 -0.4267  0.5042 -1.4694
14762TIP3    H265778   2.595   6.021   5.737 -2.0086  1.6610  2.1940
14763TIP3   OH265779   4.335   1.091  17.012  0.0654 -0.2403  0.9719
14763TIP3    H165780   4.322   1.032  17.087 -0.8957 -3.8209 -1.8807
14763TIP3    H265781   4.419   1.065  16.976 -0.1018  0.5296  0.0213
14764TIP3   OH265782   5.530   0.855   1.304 -0.0573  0.3629  0.6991
14764TIP3    H165783   5.443   0.836   1.339 -1.2933  1.2339 -1.7387
14764TIP3    H265784   5.553   0.776   1.254 -1.2190  1.6197 -1.9138
14765TIP3   OH265785   6.240   6.759   4.953 -0.5879  0.1483  0.4190
14765TIP3    H165786   6.246   6.724   5.042 -2.7654 -0.9649  0.1572
14765TIP3    H265787   6.161   6.813   4.953  0.6504  2.0444 -0.2379
14766TIP3   OH265788   2.965   1.690   1.566 -0.1488 -0.0993 -0.1135
14766TIP3    H165789   2.977   1.680   1.471  1.8962  1.0113  0.0008
14766TIP3    H265790   3.028   1.630   1.605 -0.5553 -0.0973  0.5535
14767TIP3   OH265791   0.978   4.104   2.092 -0.0091 -0.6185 -0.4360
14767TIP3    H165792   0.987   4.130   2.184 -0.4751 -1.0838 -0.2577
14767TIP3    H265793   0.884   4.096   2.079 -0.0453  1.2531 -1.4557
14768TIP3   OH265794   5.733   3.848   5.942  0.1525 -0.4839  0.0732
14768TIP3    H165795   5.659   3.871   5.998 -0.8731 -1.3608 -0.9006
14768TIP3    H265796   5.804   3.829   6.003 -0.5511 -0.0737  1.0349
14769TIP3   OH265797   3.495   4.788  15.226  0.5104  0.0554  0.0784
14769TIP3    H165798   3.564   4.728  15.254 -0.3882 -0.1030  2.0485
14769TIP3    H265799   3.432   4.786  15.298 -1.2462  0.6680 -1.4190
14770TIP3   OH265800   6.752   1.121  16.019  0.1092 -0.0611  0.9721
14770TIP3    H165801   6.743   1.165  15.934 -0.5452 -0.6085  0.7468
14770TIP3    H265802   6.715   1.034  16.005 -1.6965  0.4429  2.2775
14771TIP3   OH265803   1.298   1.112   0.485  0.1871 -0.0962  0.2511
14771TIP3    H165804   1.295   1.020   0.460  1.8224 -0.9281  2.8978
14771TIP3    H265805   1.391   1.132   0.495 -0.1947  1.4974  0.9055
14772TIP3   OH265806   6.013   1.061   1.524 -0.3815 -0.6150 -0.3342
14772TIP3    H165807   5.977   1.073   1.612 -0.1297 -1.7528 -0.0757
14772TIP3    H265808   5.947   1.101   1.467  0.1726  1.5134  0.4512
14773TIP3   OH265809   2.199   5.162  16.234 -0.0209 -0.1748 -0.0868
14773TIP3    H165810   2.249   5.235  16.270  1.3882 -1.0326 -0.2629
14773TIP3    H265811   2.257   5.123  16.168 -0.7253 -1.4451  0.0217
14774TIP3   OH265812   6.456   0.136   5.144  0.1165  0.1015 -0.5109
14774TIP3    H165813   6.476   0.228   5.165 -0.4979  0.3808 -1.1200
14774TIP3    H265814   6.375   0.118   5.192  0.2850 -0.1546 -0.3197
14775TIP3   OH265815   5.501   1.152   2.899  0.3110  0.0384  0.0145
14775TIP3    H165816   5.578   1.150   2.956  0.6737  0.2845 -0.4585
14775TIP3    H265817   5.430   1.119   2.953  0.3067  1.8466  1.1143
14776TIP3   OH265818   5.901   6.777  15.660 -0.6828 -0.0426  0.2188
14776TIP3    H165819   5.838   6.750  15.727  0.9942  0.2765  1.9890
14776TIP3    H265820   5.944   6.696  15.633 -1.7422 -0.2442 -0.8961
14777TIP3   OH265821   3.867   4.396   5.645 -0.2251  0.1639 -0.8516
14777TIP3    H165822   3.944   4.373   5.697 -1.2624  0.2168  0.7363
14777TIP3    H265823   3.863   4.329   5.577  1.4189  0.3629 -1.1776
14778TIP3   OH265824   1.486   6.072   3.465  0.5435  0.4705 -0.2435
14778TIP3    H165825   1.570   6.066   3.510  0.7237  0.3452 -0.5948
14778TIP3    H265826   1.509   6.084   3.373  0.1858  2.5431 -0.0951
14779TIP3   OH265827   2.543   6.524  11.558 -0.0826 -0.4262 -0.0450
14779TIP3    H165828   2.516   6.512  11.649  1.3106 -2.3614  0.1389
14779TIP3    H265829   2.462   6.548  11.512 -1.2264 -1.6071  1.3071
14780TIP3   OH265830   1.248   2.974  14.969 -0.7809 -0.4927 -0.4360
14780TIP3    H165831   1.172   3.006  15.017 -0.5866 -0.3634 -0.2126
14780TIP3    H265832   1.303   2.932  15.035  0.5598  1.6499 -0.1516
14781TIP3   OH265833   0.764   3.968   3.788 -0.3160  0.3964  0.4052
14781TIP3    H165834   0.748   3.876   3.764  1.1140  0.1684  0.2326
14781TIP3    H265835   0.854   3.968   3.820 -0.6564  1.5608  1.3977
14782TIP3   OH265836   5.227   4.549  16.771 -0.0599 -0.1037  0.1476
14782TIP3    H165837   5.280   4.601  16.832 -0.9986 -0.8199  1.6074
14782TIP3    H265838   5.137   4.577  16.786 -0.2695 -0.0191 -1.1945
14783TIP3   OH265839   1.468   5.103   0.397  0.2446  0.1268 -0.1161
14783TIP3    H165840   1.394   5.161   0.414 -0.9426 -0.6808 -2.4279
14783TIP3    H265841   1.541   5.162   0.377 -1.1497  0.8589 -3.2331
14784TIP3   OH265842   6.166   2.895  13.167 -0.5133 -0.2947  0.3530
14784TIP3    H165843   6.127   2.928  13.248 -2.3252  0.4174 -0.7659
14784TIP3    H265844   6.104   2.827  13.137 -0.1948 -0.1134 -0.7499
14785TIP3   OH265845   1.971   5.652   2.737  0.4276 -0.1718 -0.2837
14785TIP3    H165846   1.978   5.721   2.803  1.9246  1.2223 -1.8741
14785TIP3    H265847   1.896   5.678   2.684  0.2308 -0.4345 -0.1371
14786TIP3   OH265848   5.812   5.608  13.171 -0.0140 -0.0726 -0.2655
14786TIP3    H165849   5.894   5.632  13.128  1.0890 -1.0961  1.2707
14786TIP3    H265850   5.759   5.569  13.101  0.9314  0.2689 -1.1807
14787TIP3   OH265851   5.577   0.736   4.352 -0.2985 -0.4923  0.2084
14787TIP3    H165852   5.620   0.682   4.285 -1.0623 -1.3959  0.4510
14787TIP3    H265853   5.622   0.714   4.433  1.2290  1.2520 -0.1171
14788TIP3   OH265854   2.073   1.020   5.600 -0.4269 -0.4083 -0.1113
14788TIP3    H165855   2.091   0.988   5.511 -1.4200 -1.4694  0.0622
14788TIP3    H265856   2.008   0.959   5.635 -1.0061  0.7693  0.8879
14789TIP3   OH265857   1.451   0.894  12.930 -0.4711 -0.1284 -0.4519
14789TIP3    H165858   1.500   0.976  12.944 -0.3761 -0.0349 -1.3516
14789TIP3    H265859   1.377   0.900  12.991  1.2317 -0.7709  1.7374
14790TIP3   OH265860   3.279   6.535  12.433 -0.3870 -0.0183 -0.3855
14790TIP3    H165861   3.269   6.462  12.494 -0.4991  0.6656  0.4256
14790TIP3    H265862   3.279   6.495  12.347  1.7308 -1.2216  0.1240
14791TIP3   OH265863   5.016   2.784   4.236 -0.0502 -0.4165 -0.0700
14791TIP3    H165864   5.044   2.695   4.259 -1.2870 -0.6835  0.4396
14791TIP3    H265865   4.935   2.797   4.284 -0.8264  0.3356 -1.5568
14792TIP3   OH265866   3.232   4.272   3.118  0.2828  0.4539  0.0129
14792TIP3    H165867   3.160   4.229   3.163 -0.3880  1.2526 -0.2997
14792TIP3    H265868   3.220   4.365   3.134  2.0910  0.5101  1.2080
14793TIP3   OH265869   5.993   3.480  10.538  0.8418  0.2818  0.1904
14793TIP3    H165870   6.049   3.463  10.463 -0.1152  0.0086 -0.4782
14793TIP3    H265871   6.050   3.525  10.601  1.9314 -0.4638 -0.2521
14794TIP3   OH265872   6.145   3.865   0.180  0.0807  0.3874  0.3889
14794TIP3    H165873   6.232   3.875   0.141  0.6519 -1.0574  1.2553
14794TIP3    H265874   6.107   3.791   0.132 -1.6893  2.6241 -1.7562
14795TIP3   OH265875   4.397   2.419  11.840  0.0669  0.2667  0.1315
14795TIP3    H165876   4.423   2.471  11.916  0.3248 -0.8699  0.8456
14795TIP3    H265877   4.467   2.432  11.776 -0.5267  1.8288 -0.2237
14796TIP3   OH265878   4.001   3.209   1.126  0.1393  0.0907 -0.0933
14796TIP3    H165879   4.090   3.221   1.093 -0.2151 -3.0034 -2.4363
14796TIP3    H265880   3.997   3.116   1.150 -2.5461  0.0943 -0.4021
14797TIP3   OH265881   5.144   1.865  16.703  0.3090 -0.3956 -0.6358
14797TIP3    H165882   5.238   1.849  16.715  0.2301 -0.7296 -0.4593
14797TIP3    H265883   5.140   1.932  16.635  0.7180  0.8383  0.5340
14798TIP3   OH265884   4.330   5.128   1.372 -0.2155  0.2916  0.0539
14798TIP3    H165885   4.274   5.053   1.388 -0.8367  0.6307 -0.5134
14798TIP3    H265886   4.270   5.201   1.359  0.3679  0.7703  0.0233
14799TIP3   OH265887   5.992   2.887  17.065 -0.3637 -0.1248  0.5540
14799TIP3    H165888   5.902   2.918  17.080 -0.7662 -1.0901  0.2044
14799TIP3    H265889   5.981   2.794  17.043  0.5966  0.0823 -0.8749
14800TIP3   OH265890   5.428   6.377   1.969  0.3633  0.0695  0.0675
14800TIP3    H165891   5.501   6.431   1.938 -0.1658  1.1303  0.6539
14800TIP3    H265892   5.469   6.309   2.022  1.0923 -0.5086 -1.2314
14801TIP3   OH265893   3.615   0.208  12.511  0.0563  0.1196  0.6883
14801TIP3    H165894   3.613   0.140  12.578 -0.7445 -0.9248 -0.3582
14801TIP3    H265895   3.680   0.272  12.542 -0.8830  0.0712  2.8181
14802TIP3   OH265896   2.540   1.691   1.012 -0.3822  0.0025 -0.2564
14802TIP3    H165897   2.556   1.781   0.982  0.2056 -0.6799 -2.0242
14802TIP3    H265898   2.626   1.660   1.041 -0.7990  0.3843  1.4895
14803TIP3   OH265899   3.546   0.224  15.709 -0.3417  0.0321 -0.1294
14803TIP3    H165900   3.472   0.233  15.648 -0.1243  0.9429 -0.2673
14803TIP3    H265901   3.616   0.185  15.656 -0.8722 -1.2609  0.1236
14804TIP3   OH265902   5.196   3.111  12.765 -0.4222 -0.7649  0.5617
14804TIP3    H165903   5.135   3.078  12.698 -2.0021  0.4705  1.3595
14804TIP3    H265904   5.140   3.135  12.839  0.9640  0.8640  1.1241
14805TIP3   OH265905   3.121   2.731   4.870 -0.2354  0.0587 -0.2055
14805TIP3    H165906   3.032   2.761   4.888 -0.1447  1.1906 -1.5537
14805TIP3    H265907   3.155   2.706   4.956 -1.3939  0.9026  0.5224
14806TIP3   OH265908   0.787   1.479  16.089  0.2125 -0.0963  0.3844
14806TIP3    H165909   0.875   1.456  16.118  0.6599 -1.2382 -1.7294
14806TIP3    H265910   0.777   1.433  16.006 -1.1537  2.5897 -1.0198
14807TIP3   OH265911   1.487   3.234   5.177 -0.1403 -0.1223 -0.4078
14807TIP3    H165912   1.429   3.251   5.103 -1.0545 -0.4991  0.2181
14807TIP3    H265913   1.486   3.138   5.186  1.3150 -0.2063 -0.9806
14808TIP3   OH265914   2.040   6.134   2.071  0.0227 -0.2661 -0.0953
14808TIP3    H165915   1.962   6.080   2.085 -0.6050  1.0392  1.6176
14808TIP3    H265916   2.032   6.205   2.135  1.6778  0.9266 -1.1648
14809TIP3   OH265917   1.702   4.462   3.732  0.1266 -0.0253 -0.2945
14809TIP3    H165918   1.752   4.494   3.807 -0.3386 -0.0000  0.0087
14809TIP3    H265919   1.711   4.367   3.735  1.9599  0.0932 -1.5111
14810TIP3   OH265920   4.478   5.586   1.914 -0.0213  0.2098 -0.5437
14810TIP3    H165921   4.512   5.639   1.842 -0.4479 -1.1358 -1.7344
14810TIP3    H265922   4.383   5.595   1.908 -0.0945 -0.6971 -0.7492
14811TIP3   OH265923   4.582   0.312   1.286  0.2259  0.5507  0.1982
14811TIP3    H165924   4.650   0.247   1.300 -0.8405 -0.3931  1.1114
14811TIP3    H265925   4.586   0.368   1.364 -1.5090 -0.8730  1.3562
14812TIP3   OH265926   4.107   0.833   2.665 -0.0903  0.2942  0.1622
14812TIP3    H165927   4.069   0.757   2.709 -1.7608 -0.0383 -1.7641
14812TIP3    H265928   4.199   0.833   2.691 -0.0121 -2.5357 -0.0245
14813TIP3   OH265929   5.731   6.400  13.951  0.0892 -0.1416 -0.2408
14813TIP3    H165930   5.687   6.341  14.012 -1.1908  0.6389 -0.3907
14813TIP3    H265931   5.663   6.425  13.888  0.7371  1.0758 -0.4802
14814TIP3   OH265932   1.634   6.800  16.795  1.0358  0.0508  0.3786
14814TIP3    H165933   1.664   6.775  16.882  0.2617  0.5995  0.8169
14814TIP3    H265934   1.593   6.885  16.808 -0.2111 -0.4350 -0.2747
14815TIP3   OH265935   3.767   3.087  15.132  0.1219 -0.4670 -0.2083
14815TIP3    H165936   3.825   3.160  15.152 -0.7236 -0.1746  1.2449
14815TIP3    H265937   3.700   3.124  15.075 -0.6359  0.0513  0.9974
14816TIP3   OH265938   6.378   1.786   3.485 -0.1126  0.2957 -0.5041
14816TIP3    H165939   6.435   1.773   3.409  0.4730 -0.7377  0.0973
14816TIP3    H265940   6.395   1.710   3.541  1.6318  2.4531  2.0237
14817TIP3   OH265941   1.664   2.147  17.210  0.8131 -0.2675 -0.1302
14817TIP3    H165942   1.570   2.161  17.194  1.2147 -0.4426 -2.8032
14817TIP3    H265943   1.669   2.128  17.303 -1.9713 -1.5383 -0.1882
14818TIP3   OH265944   0.720   4.616   5.842  0.8085 -0.6147  0.7307
14818TIP3    H165945   0.793   4.677   5.858  0.3048  0.0779  0.4240
14818TIP3    H265946   0.705   4.622   5.748 -0.8694  0.6691  1.0576
14819TIP3   OH265947   4.256   0.984  15.902 -0.0607  0.0194 -0.1034
14819TIP3    H165948   4.310   0.994  15.823  1.9371  1.5877  1.3792
14819TIP3    H265949   4.316   0.947  15.966 -1.0152  0.8859  1.3039
14820TIP3   OH265950   3.419   2.579   3.284 -0.6350  0.2411 -0.1071
14820TIP3    H165951   3.335   2.623   3.268 -0.5174  0.2233 -0.7704
14820TIP3    H265952   3.440   2.536   3.201 -1.4500 -2.2805  0.9510
14821TIP3   OH265953   0.042   1.187  12.643  0.0875 -0.3946 -0.0452
14821TIP3    H165954   0.118   1.193  12.584  1.3085 -1.7765  1.3411
14821TIP3    H265955   0.066   1.243  12.717 -0.2851 -0.7769  0.3587
14822TIP3   OH265956   5.693   2.255  14.513 -0.1837  0.6801 -0.4636
14822TIP3    H165957   5.714   2.255  14.607  1.3781 -0.5413 -0.7988
14822TIP3    H265958   5.602   2.286  14.509 -0.9275 -1.1254  1.5946
14823TIP3   OH265959   1.308   2.316  11.033  0.0199 -0.1052  0.1582
14823TIP3    H165960   1.257   2.297  11.112  1.4396  1.2396  1.4206
14823TIP3    H265961   1.399   2.303  11.058  0.5759  1.5453 -0.8859
14824TIP3   OH265962   1.000   4.830  13.601 -0.5129  0.1708 -0.0323
14824TIP3    H165963   0.948   4.910  13.593 -1.3123 -0.4917 -1.7286
14824TIP3    H265964   0.967   4.773  13.531  1.1059 -1.0364  0.1593
14825TIP3   OH265965   5.505   4.382  11.181 -0.1001 -0.1214  0.3923
14825TIP3    H165966   5.521   4.386  11.276 -0.5616 -0.9416  0.5147
14825TIP3    H265967   5.496   4.473  11.154  0.0382  0.1173  1.1449
14826TIP3   OH265968   5.757   3.467  14.112  0.4113 -0.2131  0.2700
14826TIP3    H165969   5.830   3.417  14.150 -0.5440 -2.7576 -1.1120
14826TIP3    H265970   5.697   3.481  14.184  1.6533  0.7979  1.1367
14827TIP3   OH265971   6.571   2.199   1.900  0.4125 -0.1482 -0.1093
14827TIP3    H165972   6.599   2.291   1.901 -0.5338  0.1652 -1.1414
14827TIP3    H265973   6.565   2.177   1.807  0.0053 -1.0573  0.1255
14828TIP3   OH265974   1.372   3.181  12.877 -0.1251  0.0579 -0.0150
14828TIP3    H165975   1.438   3.237  12.836  0.5836 -0.8682 -0.1412
14828TIP3    H265976   1.367   3.213  12.967  0.7848 -0.1127  0.1052
14829TIP3   OH265977   4.227   1.025   3.182 -0.2010  0.5469  0.1680
14829TIP3    H165978   4.207   1.114   3.212 -1.0858  0.0303  1.1645
14829TIP3    H265979   4.250   0.978   3.262 -0.2520 -0.2598 -0.2876
14830TIP3   OH265980   5.288   4.614   6.015  0.3316  0.2661 -0.2760
14830TIP3    H165981   5.341   4.687   5.984 -1.5564  1.3909 -0.9509
14830TIP3    H265982   5.241   4.649   6.091  1.8325 -1.2385  1.4042
14831TIP3   OH265983   3.216   4.657   5.695 -0.0564 -0.0417 -0.0024
14831TIP3    H165984   3.122   4.673   5.703  0.1765  1.1717  0.3670
14831TIP3    H265985   3.246   4.719   5.629  0.8227  0.9699  1.3284
14832TIP3   OH265986   0.451   5.649   0.469 -0.3888  0.6456  0.3314
14832TIP3    H165987   0.496   5.572   0.503  0.6280  1.1554  0.1546
14832TIP3    H265988   0.362   5.642   0.505 -0.2165 -0.4259  0.5885
14833TIP3   OH265989   1.136   0.601   0.939  0.7135 -0.0614 -0.1527
14833TIP3    H165990   1.131   0.646   0.855  1.7912  1.2899  0.4731
14833TIP3    H265991   1.229   0.607   0.963  0.0928  1.3224  2.0410
14834TIP3   OH265992   2.272   6.425   2.139 -0.0936  0.3572 -0.5584
14834TIP3    H165993   2.198   6.366   2.150  1.7680 -1.8363  0.6654
14834TIP3    H265994   2.293   6.421   2.046 -0.4306 -0.3684 -0.6042
14835TIP3   OH265995   2.516   0.578   1.747 -0.3757  0.4091  0.1855
14835TIP3    H165996   2.515   0.563   1.842 -0.6305  1.1963  0.3104
14835TIP3    H265997   2.430   0.551   1.718 -0.1076 -0.3486  0.0983
14836TIP3   OH265998   2.283   1.112  14.619 -0.1228 -0.2489 -0.2212
14836TIP3    H165999   2.228   1.183  14.585  0.6933  0.0707 -0.9174
14836TIP3    H266000   2.234   1.032  14.599 -0.7008  0.0714 -0.1107
14837TIP3   OH266001   1.351   6.675   0.989 -0.0193 -0.1314  0.1219
14837TIP3    H166002   1.300   6.741   1.036 -0.5173  0.4467 -1.1850
14837TIP3    H266003   1.377   6.718   0.907  2.0341 -0.6318  0.4699
14838TIP3   OH266004   2.497   1.092   6.083  0.2523  0.8274 -0.0730
14838TIP3    H166005   2.448   1.011   6.096  0.7789  0.9292  2.8510
14838TIP3    H266006   2.436   1.149   6.035 -1.9660  0.4238  2.1671
14839TIP3   OH266007   4.019   0.782   2.221 -0.7422 -0.6400 -0.1414
14839TIP3    H166008   3.974   0.810   2.301 -0.8915 -1.2442 -0.0131
14839TIP3    H266009   4.093   0.841   2.214 -1.1562 -0.0937  0.0366
14840TIP3   OH266010   0.234   1.947   1.010  0.0091  0.1787  0.0500
14840TIP3    H166011   0.277   2.029   1.036  0.0033 -0.4061  1.9658
14840TIP3    H266012   0.269   1.882   1.071 -2.7220 -0.5434  0.8926
14841TIP3   OH266013   4.766   6.770  13.018  0.1557  0.0290 -0.2801
14841TIP3    H166014   4.699   6.739  12.957 -0.0185 -0.2499  0.0462
14841TIP3    H266015   4.737   6.737  13.103 -0.4111  1.6614  0.1989
14842TIP3   OH266016   2.962   1.214   3.810 -0.3165  0.3829  0.0882
14842TIP3    H166017   2.886   1.228   3.754 -0.1240  0.1318 -0.2429
14842TIP3    H266018   2.928   1.170   3.887 -0.2817 -1.1656 -0.7526
14843TIP3   OH266019   1.297   3.262  17.005 -0.4099  0.2772  0.0755
14843TIP3    H166020   1.258   3.203  16.941  0.0390 -0.5204  0.5291
14843TIP3    H266021   1.289   3.349  16.965  2.3881 -0.4857 -2.3477
14844TIP3   OH266022   6.182   5.621   5.654  0.1301  0.4492 -0.3542
14844TIP3    H166023   6.231   5.646   5.733 -0.2253  0.0084  0.0088
14844TIP3    H266024   6.160   5.705   5.613  0.0158  0.6985  0.1999
14845TIP3   OH266025   2.414   3.027  11.228 -0.9077  0.2810  0.1710
14845TIP3    H166026   2.504   3.045  11.257 -0.0655 -1.4141 -1.2677
14845TIP3    H266027   2.379   3.113  11.204  0.1132  1.0436  1.3670
14846TIP3   OH266028   4.023   5.243  15.537  0.6295 -0.0452 -0.5078
14846TIP3    H166029   3.953   5.279  15.482  0.6969  1.5062  0.4017
14846TIP3    H266030   3.977   5.203  15.611  0.7263  1.6039  0.4533
14847TIP3   OH266031   2.024   5.167   0.400  0.2051  0.0972 -0.0518
14847TIP3    H166032   2.018   5.077   0.368  1.4306 -0.1095  0.2654
14847TIP3    H266033   1.984   5.165   0.487  0.1225 -0.1140 -0.0961
14848TIP3   OH266034   5.276   6.756   6.433 -0.4519  0.3605 -0.5834
14848TIP3    H166035   5.348   6.803   6.392 -0.3914  0.4970 -0.3228
14848TIP3    H266036   5.220   6.825   6.469  0.8152  0.1898  1.7970
14849TIP3   OH266037   6.569   4.506   0.820  0.2468 -0.2500 -0.0435
14849TIP3    H166038   6.653   4.495   0.775 -1.3727 -3.2721 -2.4713
14849TIP3    H266039   6.516   4.557   0.759 -0.2680  0.1997  0.7736
14850TIP3   OH266040   2.106   4.796   1.232  0.1821 -0.0382  0.0583
14850TIP3    H166041   2.199   4.813   1.220  0.2371 -0.2863  0.1376
14850TIP3    H266042   2.099   4.701   1.240 -0.0463 -0.0024  0.3169
14851TIP3   OH266043   1.631   2.829   1.769 -0.6717 -0.5149 -0.3294
14851TIP3    H166044   1.621   2.850   1.676 -2.3556  1.6663  0.3106
14851TIP3    H266045   1.542   2.826   1.803 -0.0863 -1.6432  1.1607
14852TIP3   OH266046   0.691   2.565  16.005  0.2404 -0.1025 -0.2131
14852TIP3    H166047   0.710   2.473  16.027 -1.4183 -0.5677 -0.6905
14852TIP3    H266048   0.669   2.563  15.912  2.9301  1.2185 -0.9341
14853TIP3   OH266049   3.647   3.695   4.193  0.2990  0.1866 -0.0574
14853TIP3    H166050   3.603   3.754   4.132 -1.8748 -2.1478 -0.8188
14853TIP3    H266051   3.740   3.708   4.177 -0.1924  2.0895 -1.4492
14854TIP3   OH266052   5.642   4.373   2.259  0.0166 -0.0927 -0.1396
14854TIP3    H166053   5.728   4.334   2.272  0.2523  0.3820 -0.2627
14854TIP3    H266054   5.591   4.305   2.216  0.7871  0.1385 -1.4813
14855TIP3   OH266055   0.464   5.865  13.901 -0.3354  0.3454 -0.2828
14855TIP3    H166056   0.478   5.807  13.827  0.3103  0.5699 -0.3364
14855TIP3    H266057   0.397   5.821  13.954 -1.0495  0.3437 -1.1640
14856TIP3   OH266058   1.412   1.263  16.742  0.8171 -0.5518  0.4533
14856TIP3    H166059   1.483   1.312  16.782  2.2760 -1.8204 -0.5488
14856TIP3    H266060   1.401   1.303  16.655 -1.1439  1.0246  1.3714
14857TIP3   OH266061   1.908   0.783   3.103 -0.0150  0.1130  0.4556
14857TIP3    H166062   1.991   0.824   3.125  0.4323 -0.4674 -0.1448
14857TIP3    H266063   1.853   0.855   3.071  0.0933  0.5699  1.2712
14858TIP3   OH266064   2.487   1.377   5.862  0.9510 -0.6074  0.3420
14858TIP3    H166065   2.567   1.325   5.856  0.0809 -1.9929  0.3831
14858TIP3    H266066   2.492   1.438   5.789  1.1483 -1.9818 -0.8202
14859TIP3   OH266067   4.239   5.123  10.600 -0.2976  0.0478 -0.2244
14859TIP3    H166068   4.165   5.062  10.590 -0.4326 -0.0894  1.3962
14859TIP3    H266069   4.317   5.069  10.587 -0.4693  0.3009 -2.4857
14860TIP3   OH266070   5.336   5.951   6.179  0.2318  0.4292 -0.4426
14860TIP3    H166071   5.317   5.963   6.272 -0.4617 -0.8153 -0.4138
14860TIP3    H266072   5.264   5.994   6.133  1.2093  2.1214 -0.4395
14861TIP3   OH266073   3.506   2.909  15.982  0.2148 -0.1551  0.1264
14861TIP3    H166074   3.569   2.882  15.915  0.4413  3.5214 -1.2691
14861TIP3    H266075   3.421   2.885  15.945  0.4633  0.1114 -0.6361
14862TIP3   OH266076   5.210   5.466  16.925 -0.1433 -0.5419  0.3070
14862TIP3    H166077   5.213   5.500  17.015  2.7934  1.6987 -0.5668
14862TIP3    H266078   5.201   5.544  16.870 -1.7394 -1.8793 -1.3896
14863TIP3   OH266079   4.611   2.332   4.814 -0.2472 -0.6099 -0.3586
14863TIP3    H166080   4.644   2.293   4.733  0.9371  0.8356 -0.5841
14863TIP3    H266081   4.649   2.420   4.816  0.0101 -0.7470  1.9380
14864TIP3   OH266082   3.433   3.797   4.317  0.1355  0.5921  0.5125
14864TIP3    H166083   3.348   3.756   4.298  0.6247 -0.1760 -0.0433
14864TIP3    H266084   3.497   3.727   4.304  0.9501  1.4211 -0.0172
14865TIP3   OH266085   4.390   5.092  13.687  0.0962 -0.3767 -0.0653
14865TIP3    H166086   4.472   5.081  13.735  1.5641 -0.5505 -2.5523
14865TIP3    H266087   4.378   5.186  13.681  1.5945 -0.2861 -2.0868
14866TIP3   OH266088   6.480   4.313  15.777 -0.1415 -1.3577 -0.3682
14866TIP3    H166089   6.478   4.244  15.844 -0.5570 -1.4227 -0.4505
14866TIP3    H266090   6.524   4.272  15.702 -0.8702 -1.7131 -0.6095
14867TIP3   OH266091   5.005   5.710   0.278  0.1964  0.2218 -0.5127
14867TIP3    H166092   5.041   5.698   0.190  1.1940 -1.1501  0.0639
14867TIP3    H266093   4.968   5.625   0.302 -1.3262  0.9735 -0.1527
14868TIP3   OH266094   4.456   5.022   2.316 -0.8093  0.2230 -0.0851
14868TIP3    H166095   4.491   5.048   2.230 -0.0087  1.1943  0.5294
14868TIP3    H266096   4.496   4.937   2.334 -0.9164  0.0517 -0.6221
14869TIP3   OH266097   4.196   5.572  12.463  0.6998 -0.2358 -0.2455
14869TIP3    H166098   4.153   5.487  12.453 -0.9641  0.5658  0.0046
14869TIP3    H266099   4.151   5.614  12.536  0.9145  1.2307 -0.9432
14870TIP3   OH266100   4.747   6.401  16.917  0.0781 -0.3576 -0.3318
14870TIP3    H166101   4.742   6.416  17.012 -0.6762 -2.2735 -0.0513
14870TIP3    H266102   4.659   6.375  16.892  0.5069 -0.8246 -1.3794
14871TIP3   OH266103   6.562   6.395  13.181  0.0623 -0.5224 -0.3158
14871TIP3    H166104   6.596   6.391  13.091 -0.3825  1.3405 -0.5851
14871TIP3    H266105   6.636   6.428  13.232  0.2010 -1.2362 -0.0572
14872TIP3   OH266106   5.366   1.643  15.697  0.0222 -0.2507 -0.0709
14872TIP3    H166107   5.317   1.586  15.639 -0.4811  1.1309 -1.0376
14872TIP3    H266108   5.301   1.677  15.758  0.1959 -0.1999  0.0872
14873TIP3   OH266109   0.045   3.352  16.224 -0.1707  0.3330 -0.4307
14873TIP3    H166110   0.071   3.368  16.314 -0.3837  2.3888 -0.7215
14873TIP3    H266111  -0.049   3.333  16.229 -0.2965  0.9817 -0.2692
14874TIP3   OH266112   6.546   1.027  15.126 -0.9417  0.0532 -0.6102
14874TIP3    H166113   6.506   0.940  15.124 -1.3547  0.2461 -0.8897
14874TIP3    H266114   6.632   1.013  15.166 -1.3170 -0.3520  0.0639
14875TIP3   OH266115   2.927   1.831  12.769  0.3097 -0.2002 -0.4108
14875TIP3    H166116   2.982   1.899  12.809  2.5031 -1.5366 -1.0548
14875TIP3    H266117   2.847   1.877  12.743  1.3530  1.9415  0.0302
14876TIP3   OH266118   2.703   3.094   4.068 -0.1694 -0.4077  0.1941
14876TIP3    H166119   2.714   3.071   4.161 -0.9763 -0.8535  0.1935
14876TIP3    H266120   2.722   3.013   4.021 -0.2996 -0.3330  0.0112
14877TIP3   OH266121   0.538   4.399  13.692 -0.3331  0.6460 -0.0950
14877TIP3    H166122   0.447   4.382  13.666  0.1503  0.2581 -1.6286
14877TIP3    H266123   0.535   4.482  13.739 -1.3087  1.2804 -1.2421
14878TIP3   OH266124   5.045   4.689   4.107  0.0931  0.3388 -0.2769
14878TIP3    H166125   5.027   4.781   4.091  1.0640  0.6058  0.0770
14878TIP3    H266126   5.135   4.688   4.139 -0.1756 -0.6510  0.4756
14879TIP3   OH266127   3.349   3.472   5.229 -0.1631  0.2223  0.0396
14879TIP3    H166128   3.374   3.381   5.211  0.7541  0.4076  0.3469
14879TIP3    H266129   3.427   3.523   5.206 -0.6089  0.9142  0.0517
14880TIP3   OH266130   0.126   2.208  11.123  0.1653  0.5894  0.2358
14880TIP3    H166131   0.192   2.139  11.118  0.0344  0.3855  1.1841
14880TIP3    H266132   0.177   2.289  11.132  0.3139  0.6011 -0.6835
14881TIP3   OH266133   2.965   2.575  10.927 -0.1448 -1.2367  0.9069
14881TIP3    H166134   3.046   2.526  10.916  0.0318 -0.4838 -1.3660
14881TIP3    H266135   2.979   2.656  10.878 -1.9383 -0.7090  1.2305
14882TIP3   OH266136   2.600   5.721   4.309 -0.1345  0.5186  0.7732
14882TIP3    H166137   2.596   5.681   4.223 -0.4879 -1.8566  1.8581
14882TIP3    H266138   2.673   5.783   4.304  1.9645 -1.9631 -0.2452
14883TIP3   OH266139   0.669   2.667  11.146  0.1819  0.1916  0.1012
14883TIP3    H166140   0.764   2.669  11.152  0.1055 -0.1197  1.8292
14883TIP3    H266141   0.640   2.743  11.196 -0.4448  1.1828 -1.7396
14884TIP3   OH266142   1.771   3.407   6.116 -0.0414 -0.6113 -0.2568
14884TIP3    H166143   1.681   3.378   6.135 -0.5112  0.3533 -0.9736
14884TIP3    H266144   1.763   3.501   6.098  1.0484 -0.6062 -0.7658
14885TIP3   OH266145   0.697   5.465   4.309  0.1798  0.4991 -0.8308
14885TIP3    H166146   0.721   5.398   4.374 -1.0008  0.7417 -0.1228
14885TIP3    H266147   0.780   5.488   4.267  0.9121  0.0292  0.3054
14886TIP3   OH266148   5.892   0.512  11.640  0.3242  0.0021 -0.3729
14886TIP3    H166149   5.945   0.583  11.676  0.0880 -0.2438  0.4679
14886TIP3    H266150   5.898   0.442  11.705 -2.9035  0.8077  0.8823
14887TIP3   OH266151   0.022   1.978   1.523  0.2430  0.3955 -0.3444
14887TIP3    H166152   0.037   1.894   1.480 -0.2020  0.3010 -0.3236
14887TIP3    H266153   0.042   2.043   1.455  0.0084  0.2573 -0.5493
14888TIP3   OH266154   6.475   3.071   0.899 -0.2560  0.4406  0.5073
14888TIP3    H166155   6.495   2.980   0.923 -1.1700  0.0723 -0.0648
14888TIP3    H266156   6.397   3.064   0.843 -0.4556  1.5972  0.6271
14889TIP3   OH266157   1.276   2.142   0.256  0.7232  0.3490  0.1344
14889TIP3    H166158   1.231   2.098   0.327 -0.9882  2.3105  0.3216
14889TIP3    H266159   1.358   2.172   0.294  0.0199  0.9839  1.1736
14890TIP3   OH266160   1.833   1.725   5.038  0.8222 -0.2523  0.1447
14890TIP3    H166161   1.916   1.732   5.085  1.2348 -0.0739 -0.5954
14890TIP3    H266162   1.807   1.815   5.021  0.2898 -0.3011  0.7002
14891TIP3   OH266163   0.635   1.490  11.542  0.3929 -0.1718  0.4017
14891TIP3    H166164   0.543   1.511  11.526 -0.0619 -0.9141  1.9663
14891TIP3    H266165   0.633   1.426  11.613  2.1462  0.0916  0.7022
14892TIP3   OH266166   0.865   2.436   4.716  0.0587  0.0667  0.4814
14892TIP3    H166167   0.842   2.367   4.779  0.9827 -0.7766 -0.0779
14892TIP3    H266168   0.932   2.488   4.761  0.0089  0.0628  0.5608
14893TIP3   OH266169   1.039   1.039  15.445  0.8233 -0.1210  0.0120
14893TIP3    H166170   1.102   1.036  15.517  0.1275  2.4963  0.7870
14893TIP3    H266171   1.089   1.071  15.370  0.7376  0.6598  0.2841
14894TIP3   OH266172   1.092   2.488   6.018  0.2764 -0.2922  0.2003
14894TIP3    H166173   1.008   2.444   6.028  1.1672 -2.2579 -0.5926
14894TIP3    H266174   1.116   2.476   5.926  1.9402 -0.7856  0.6632
14895TIP3   OH266175   2.320   6.001   3.810  0.4744  0.1416  0.4556
14895TIP3    H166176   2.373   5.937   3.762 -0.1370 -0.7324  0.9139
14895TIP3    H266177   2.375   6.079   3.816 -0.3708  1.1977 -3.8902
14896TIP3   OH266178   3.559   1.612   2.334  0.4902  0.1010  0.0705
14896TIP3    H166179   3.598   1.525   2.326  2.4237  0.9912 -0.7428
14896TIP3    H266180   3.572   1.637   2.425  1.3810  0.1631 -0.0667
14897TIP3   OH266181   1.047   2.391  17.002 -0.1305  0.0862 -0.5126
14897TIP3    H166182   1.016   2.334  16.932 -2.1110  1.4430 -0.8053
14897TIP3    H266183   0.991   2.369  17.077  0.3590  0.3300 -0.0699
14898TIP3   OH266184   1.535   3.642   4.623  0.7268 -0.6120 -0.1042
14898TIP3    H166185   1.442   3.638   4.646  1.2331 -0.0264  2.1407
14898TIP3    H266186   1.578   3.679   4.700  2.5019  1.5834 -2.0693
14899TIP3   OH266187   0.023   0.800  17.181 -0.4076  0.5228  0.1282
14899TIP3    H166188   0.034   0.889  17.150 -2.8619  0.8331  0.1103
14899TIP3    H266189   0.095   0.788  17.244 -0.1130  2.5284  0.2050
14900TIP3   OH266190   2.442   2.517  12.133 -0.2685 -0.3345  0.0741
14900TIP3    H166191   2.407   2.554  12.052 -1.2813 -0.0891  0.6132
14900TIP3    H266192   2.533   2.547  12.136  0.2416 -1.5974 -1.7276
14901TIP3   OH266193   5.867   4.033   0.563 -0.0484 -0.1288  0.0556
14901TIP3    H166194   5.834   3.994   0.483 -0.0802 -1.0323  0.5025
14901TIP3    H266195   5.959   4.007   0.566  0.4079  1.3223 -0.5418
14902TIP3   OH266196   4.228   6.136   5.696  0.0798 -0.0569  0.1072
14902TIP3    H166197   4.291   6.200   5.730  0.6764 -1.0168  0.8411
14902TIP3    H266198   4.264   6.110   5.611 -0.2524  0.7133 -0.2665
14903TIP3   OH266199   1.735   4.625   4.871  0.5518 -0.2512  0.3110
14903TIP3    H166200   1.819   4.620   4.915  1.2873  1.7712 -0.7900
14903TIP3    H266201   1.674   4.653   4.939  0.8651 -1.1550  0.9764
14904TIP3   OH266202   1.924   3.391  12.314 -0.0901 -0.0362  0.4548
14904TIP3    H166203   1.839   3.397  12.358  0.6371  3.3751  1.5027
14904TIP3    H266204   1.983   3.355  12.380 -0.0739  0.3642  0.6561
14905TIP3   OH266205   2.375   2.145  14.041 -0.3375 -0.3964 -0.4495
14905TIP3    H166206   2.400   2.236  14.054 -2.2960 -0.0209  0.7059
14905TIP3    H266207   2.283   2.148  14.014  0.3345 -1.8774 -3.1767
14906TIP3   OH266208   4.567   2.018   3.262 -0.2255  0.4719 -0.1439
14906TIP3    H166209   4.528   1.939   3.223  0.3830  0.1790 -0.1571
14906TIP3    H266210   4.651   1.989   3.297 -1.1975  0.5141  2.2773
14907TIP3   OH266211   5.175   2.163   2.154  0.3717  0.8236 -0.7066
14907TIP3    H166212   5.209   2.120   2.232  1.0683 -1.3616 -2.1557
14907TIP3    H266213   5.252   2.201   2.112 -0.0852  2.5403 -0.0262
14908TIP3   OH266214   1.987   4.305  15.483  0.4302  0.1180  0.5161
14908TIP3    H166215   2.007   4.297  15.389 -2.8798  0.6677 -0.3220
14908TIP3    H266216   1.998   4.398  15.502 -0.9952  0.3902  0.0971
14909TIP3   OH266217   1.325   0.450   5.878  0.2553  1.0157  0.6230
14909TIP3    H166218   1.332   0.541   5.851 -0.8617  0.9039 -0.0602
14909TIP3    H266219   1.309   0.402   5.797 -0.3349  0.3475  1.1369
14910TIP3   OH266220   6.078   4.630   4.507 -0.1937  0.1901 -0.2122
14910TIP3    H166221   6.123   4.703   4.550  0.8970 -0.1585 -0.7522
14910TIP3    H266222   6.058   4.569   4.578 -0.1008  0.4857  0.0708
14911TIP3   OH266223   0.074   0.229  13.568  0.6326 -0.0542 -0.0381
14911TIP3    H166224   0.118   0.298  13.619  2.0268 -0.4289 -0.6847
14911TIP3    H266225   0.092   0.148  13.615  1.5722 -0.3479 -0.8684
14912TIP3   OH266226   3.058   1.223   0.416 -0.1804  0.2633 -0.4575
14912TIP3    H166227   2.966   1.197   0.409  0.2562 -1.5271  0.1680
14912TIP3    H266228   3.057   1.318   0.405 -2.1676  0.3410  0.1813
14913TIP3   OH266229   5.396   4.052   2.278  0.2020  0.5685  0.0372
14913TIP3    H166230   5.340   4.083   2.350  0.0623  1.0944 -0.2955
14913TIP3    H266231   5.454   3.988   2.319  0.4790  1.2566  0.7231
14914TIP3   OH266232   6.418   6.156   5.740 -0.4997 -0.0765  0.4500
14914TIP3    H166233   6.340   6.181   5.791 -1.0517 -1.9612  0.5694
14914TIP3    H266234   6.427   6.062   5.756 -0.1603 -0.5182 -2.2459
14915TIP3   OH266235   0.685   1.810   6.291  0.0342  0.0628  0.2878
14915TIP3    H166236   0.653   1.720   6.283 -1.4541  0.8011 -2.4089
14915TIP3    H266237   0.781   1.801   6.286 -0.1077 -1.3189 -0.3857
14916TIP3   OH266238   2.821   0.630   2.060  0.1686  0.0697  0.2672
14916TIP3    H166239   2.813   0.707   2.117  0.3241  0.0456  0.3229
14916TIP3    H266240   2.805   0.664   1.972  0.1135  0.1434  0.3062
14917TIP3   OH266241   2.296   1.037  15.162 -0.3125 -0.6113  0.0318
14917TIP3    H166242   2.228   1.085  15.210  0.1480 -2.2392  2.3955
14917TIP3    H266243   2.263   0.947  15.157  0.7402 -0.9691 -0.6202
14918TIP3   OH266244   5.014   2.897   1.231 -0.3205 -0.1514 -0.1053
14918TIP3    H166245   5.080   2.860   1.291  0.5602  0.9409 -0.3885
14918TIP3    H266246   5.064   2.922   1.153 -0.6514  2.9219  0.6192
14919TIP3   OH266247   2.643   5.611   4.002  0.2913  0.2085  1.0424
14919TIP3    H166248   2.680   5.633   3.916  1.8246 -2.1947  1.0535
14919TIP3    H266249   2.620   5.519   3.995 -0.1468  0.1552  3.0268
14920TIP3   OH266250   2.504   2.620   4.434  0.1019 -0.0562 -0.0434
14920TIP3    H166251   2.416   2.587   4.422 -0.0377  0.5267 -0.6877
14920TIP3    H266252   2.541   2.567   4.504 -0.4867 -0.8225 -0.3129
14921TIP3   OH266253   6.608   4.635   4.917 -0.0216  0.1950  0.3101
14921TIP3    H166254   6.662   4.558   4.931  1.4758  0.9354 -1.1572
14921TIP3    H266255   6.602   4.643   4.821 -2.5684  0.2468  0.4376
14922TIP3   OH266256   6.532   4.426   3.518 -0.4781 -0.7368  0.3378
14922TIP3    H166257   6.515   4.335   3.490  0.0756 -0.1789 -1.9876
14922TIP3    H266258   6.486   4.435   3.600 -1.6323 -2.7602 -0.0479
14923TIP3   OH266259   5.713   2.973  12.031 -0.3372 -0.1390 -0.2604
14923TIP3    H166260   5.746   3.042  11.974 -0.0189 -0.5772 -0.6186
14923TIP3    H266261   5.780   2.963  12.098 -1.3778  1.3611  1.0369
14924TIP3   OH266262   1.716   1.255   1.246 -0.5458 -0.0730  0.5976
14924TIP3    H166263   1.780   1.219   1.307  0.7552  1.0556 -0.0686
14924TIP3    H266264   1.679   1.331   1.292 -0.3596  0.1261  0.4205
14925TIP3   OH266265   2.949   6.712   6.305 -0.6997 -0.5232 -0.2724
14925TIP3    H166266   3.012   6.663   6.359 -0.9310 -0.9157 -0.3548
14925TIP3    H266267   3.003   6.769   6.251 -0.1839 -3.0484 -2.5614
14926TIP3   OH266268   5.972   0.470   2.064  0.1961  0.4288  0.9099
14926TIP3    H166269   5.995   0.380   2.089  0.8299  0.6454  1.1128
14926TIP3    H266270   5.904   0.459   1.998  0.4361 -0.2106  0.7587
14927TIP3   OH266271   6.744   6.116   3.676 -0.0581  0.3773  0.4817
14927TIP3    H166272   6.772   6.072   3.756 -0.0375  0.3175  0.4417
14927TIP3    H266273   6.648   6.117   3.680 -0.0578  0.3342  0.4844
14928TIP3   OH266274   6.482   5.033   4.679  0.0785  0.4181  0.0893
14928TIP3    H166275   6.459   5.023   4.587 -1.5849 -0.0423  0.5435
14928TIP3    H266276   6.399   5.024   4.726  0.6933  1.9841  1.5443
14929TIP3   OH266277   1.969   6.795   4.102 -0.2810 -0.3595  0.7683
14929TIP3    H166278   1.967   6.848   4.182  2.6787  0.0199  0.6716
14929TIP3    H266279   2.046   6.739   4.112  0.9188  0.5810 -2.3096
14930TIP3   OH266280   5.207   6.589   2.479  0.4312  0.1324 -0.5976
14930TIP3    H166281   5.266   6.635   2.539  1.0516 -1.2738 -0.0973
14930TIP3    H266282   5.261   6.573   2.401  0.9193 -1.6874  0.0938
14931TIP3   OH266283   5.653   5.501   4.296 -0.3294 -0.7432  0.1545
14931TIP3    H166284   5.714   5.499   4.222 -0.1035  1.1172  0.2589
14931TIP3    H266285   5.576   5.454   4.264 -0.1344 -0.1799 -1.2126
14932TIP3   OH266286   4.934   4.104   1.683  0.0606 -0.2478  0.4014
14932TIP3    H166287   4.981   4.181   1.715 -0.3135  0.4343 -0.6543
14932TIP3    H266288   4.845   4.116   1.715 -0.1274  0.0420 -0.2207
14933TIP3   OH266289   0.213   3.015  14.285  0.6284 -0.5206 -0.2832
14933TIP3    H166290   0.291   2.999  14.338  0.8257  0.6393 -0.2111
14933TIP3    H266291   0.192   2.930  14.248  2.0094 -0.8318 -0.4017
14934TIP3   OH266292   5.663   5.766  13.995  0.7070 -0.8847  0.1909
14934TIP3    H166293   5.741   5.749  13.942 -0.8406  0.3816 -2.6748
14934TIP3    H266294   5.680   5.850  14.037  1.6216 -1.4869  1.0159
14935TIP3   OH266295   2.740   0.419   1.596 -0.1414  0.5665 -0.3397
14935TIP3    H166296   2.689   0.427   1.516  0.2854  0.2272 -0.6440
14935TIP3    H266297   2.675   0.430   1.666 -0.9080 -1.4309 -0.7146
14936TIP3   OH266298   4.623   5.929   0.611 -0.2527 -0.0894 -0.5847
14936TIP3    H166299   4.586   6.017   0.619 -1.7554 -0.8578  1.1114
14936TIP3    H266300   4.711   5.944   0.578 -0.9365  1.9764 -1.6079
14937TIP3   OH266301   4.127   5.739   5.351 -0.5909 -0.3030  0.5887
14937TIP3    H166302   4.152   5.797   5.279 -0.1369 -2.6733 -1.2030
14937TIP3    H266303   4.157   5.785   5.430 -0.0168  1.7661 -0.7902
14938TIP3   OH266304   0.430   1.327  15.878  0.0511 -0.0069  0.3349
14938TIP3    H166305   0.482   1.248  15.870 -0.2669 -0.4234  2.1826
14938TIP3    H266306   0.343   1.296  15.905  0.2182  1.0180  2.1441
14939TIP3   OH266307   4.794   3.199   2.793  0.2708 -0.1427  0.4936
14939TIP3    H166308   4.724   3.185   2.856 -0.1577 -0.1798  0.0181
14939TIP3    H266309   4.840   3.276   2.824 -1.3302  1.1882 -0.3654
14940TIP3   OH266310   2.401   2.883   0.254  0.1622 -0.0274 -0.1807
14940TIP3    H166311   2.467   2.821   0.224  0.9056 -0.6894  2.6412
14940TIP3    H266312   2.397   2.949   0.185  3.1147 -0.4609 -0.8400
14941TIP3   OH266313   6.534   5.924  13.359 -0.0110 -0.4556  0.5430
14941TIP3    H166314   6.508   5.891  13.273  2.4217  1.4600 -0.9549
14941TIP3    H266315   6.589   5.855  13.396 -0.4481 -0.9558  0.2641
14942TIP3   OH266316   2.592   5.116  11.163 -0.5129  0.8620 -0.8613
14942TIP3    H166317   2.517   5.132  11.220  0.3943  1.8475  0.0834
14942TIP3    H266318   2.646   5.194  11.173  0.2386  0.5240 -2.1717
14943TIP3   OH266319   6.416   4.545  15.622  0.4485  0.0672  0.6090
14943TIP3    H166320   6.457   4.463  15.650  0.1949 -0.1019  0.4893
14943TIP3    H266321   6.469   4.613  15.663  1.2933 -0.1217 -0.1400
14944TIP3   OH266322   5.341   2.850   5.619 -0.4143 -0.2191  0.0314
14944TIP3    H166323   5.388   2.933   5.609 -0.1178 -0.3666  0.1952
14944TIP3    H266324   5.410   2.784   5.624 -0.6547 -0.5103 -0.3917
14945TIP3   OH266325   5.528   3.180   0.937  0.9977 -0.2412  0.1373
14945TIP3    H166326   5.489   3.213   1.018 -1.7166 -1.1253 -0.7665
14945TIP3    H266327   5.546   3.259   0.886 -0.5589  0.1650  0.1760
14946TIP3   OH266328   6.194   6.346  13.718 -0.1651 -0.0950 -0.4362
14946TIP3    H166329   6.161   6.395  13.794  1.3857 -1.1413  0.9734
14946TIP3    H266330   6.213   6.413  13.652 -2.6457  0.7337 -0.3586
14947TIP3   OH266331   5.034   3.167  12.959  1.2469  0.2784  0.2163
14947TIP3    H166332   5.028   3.220  13.038 -1.9401  0.4126 -0.0475
14947TIP3    H266333   5.010   3.079  12.988 -0.6159  0.4599 -0.6586
14948TIP3   OH266334   0.885   4.281  11.004  0.2497  0.0311 -0.5814
14948TIP3    H166335   0.920   4.268  10.916  2.3623 -0.1264  0.2592
14948TIP3    H266336   0.931   4.358  11.037 -0.9979  0.4717  0.1630
14949TIP3   OH266337   3.443   0.420  12.186  0.2835  0.0126 -0.5458
14949TIP3    H166338   3.485   0.506  12.190 -2.2346  1.2793 -0.8140
14949TIP3    H266339   3.516   0.359  12.173  2.4252  1.7343  2.8163
14950TIP3   OH266340   4.744   3.293  13.748  0.6273  0.7316  0.1635
14950TIP3    H166341   4.669   3.325  13.799 -0.0045  0.4597 -0.5792
14950TIP3    H266342   4.783   3.372  13.710  0.8407  0.8936  0.7255
14951TIP3   OH266343   0.232   6.115  11.711  0.0951  0.5858 -0.0976
14951TIP3    H166344   0.274   6.200  11.727  1.0383 -0.2235  1.8723
14951TIP3    H266345   0.153   6.116  11.765  0.2986  0.0577  0.2112
14952TIP3   OH266346   4.922   4.406   2.417  0.0808 -0.0368 -0.4053
14952TIP3    H166347   4.923   4.355   2.337 -1.6143 -1.3202  0.3714
14952TIP3    H266348   4.976   4.356   2.478 -1.2709 -0.7321  0.2382
14953TIP3   OH266349   3.592   1.427   2.029  0.3279 -0.1127  0.6351
14953TIP3    H166350   3.635   1.389   1.951 -0.2131 -0.2382  0.3972
14953TIP3    H266351   3.656   1.490   2.062  1.0073 -0.8285  0.7103
14954TIP3   OH266352   4.016   4.172  12.362  0.3958 -0.4636  0.2676
14954TIP3    H166353   4.087   4.153  12.423  0.9108  0.8335  0.0772
14954TIP3    H266354   4.057   4.221  12.291 -0.4466 -0.8187 -0.4729
14955TIP3   OH266355   1.351   5.955  15.953  0.0236 -0.1825 -0.1844
14955TIP3    H166356   1.256   5.963  15.966  0.1023  2.7200 -0.9228
14955TIP3    H266357   1.388   6.028  16.003  1.7082 -0.0713 -1.5451
14956TIP3   OH266358   4.668   3.946   3.329 -0.0670 -0.1660  0.0792
14956TIP3    H166359   4.659   4.039   3.305 -2.6033  0.0131  1.5256
14956TIP3    H266360   4.695   3.903   3.248 -1.9448  1.3944 -1.4357
14957TIP3   OH266361   1.435   5.329  12.595  0.2780 -0.2130  0.3608
14957TIP3    H166362   1.381   5.255  12.567  1.7007 -1.2154  0.2547
14957TIP3    H266363   1.407   5.346  12.685  0.1639 -1.0631  0.4877
14958TIP3   OH266364   4.919   1.820   5.018 -0.8078  0.1756  0.5721
14958TIP3    H166365   4.846   1.759   5.028 -0.2773 -0.0857  3.0940
14958TIP3    H266366   4.880   1.906   5.034 -0.6850  0.0907  1.3332
14959TIP3   OH266367   6.444   2.284  11.274 -0.0762 -0.1721  0.0355
14959TIP3    H166368   6.525   2.256  11.233 -0.7350 -1.3252 -0.5233
14959TIP3    H266369   6.387   2.206  11.269 -0.9527  0.3977  1.0501
14960TIP3   OH266370   6.672   6.310  15.339  0.3124 -0.1004 -0.9407
14960TIP3    H166371   6.690   6.366  15.414 -1.7381 -0.8299  0.1374
14960TIP3    H266372   6.743   6.329  15.278  1.9128  0.6707  1.0728
14961TIP3   OH266373   5.615   2.712  12.244 -0.3069 -0.1075 -0.5099
14961TIP3    H166374   5.622   2.664  12.327 -1.0148  0.2995 -0.2162
14961TIP3    H266375   5.589   2.646  12.180  2.1514 -0.8329 -0.8115
14962TIP3   OH266376   5.305   6.572   2.216 -0.3222 -0.5828  0.2444
14962TIP3    H166377   5.329   6.487   2.255  1.6175 -0.8611 -1.4379
14962TIP3    H266378   5.300   6.554   2.122  2.0717  1.5681 -0.3399
14963TIP3   OH266379   6.733   2.344  13.989  0.6873 -1.1186 -0.1240
14963TIP3    H166380   6.710   2.364  14.080 -1.5973  1.4391 -1.2155
14963TIP3    H266381   6.809   2.400  13.970 -0.0404 -0.2007 -0.3651
14964TIP3   OH266382   4.395   4.516   0.492  0.1949 -0.0840 -0.0772
14964TIP3    H166383   4.472   4.466   0.518  1.2714  1.3816 -0.3612
14964TIP3    H266384   4.321   4.461   0.517  1.3147 -1.1986  0.8649
14965TIP3   OH266385   5.401   3.263  12.648 -0.0708 -0.0675  0.1133
14965TIP3    H166386   5.412   3.236  12.557  0.1962  1.2879 -0.2721
14965TIP3    H266387   5.320   3.220  12.676 -0.8680  0.5414 -1.1839
14966TIP3   OH266388   4.949   5.478   4.186 -0.1909  0.0141  0.3194
14966TIP3    H166389   4.924   5.530   4.109  1.7268 -0.0495 -0.3762
14966TIP3    H266390   4.879   5.493   4.249 -0.4549  2.2190 -0.4473
14967TIP3   OH266391   2.720   1.544  12.176  0.4152  0.3533  0.7537
14967TIP3    H166392   2.790   1.529  12.113 -0.3004  1.0837 -0.2309
14967TIP3    H266393   2.763   1.583  12.252  0.9249  1.7538 -0.2524
14968TIP3   OH266394   0.781   1.060   0.598 -0.1436 -0.0918 -0.9181
14968TIP3    H166395   0.738   1.034   0.680  0.1067 -1.2345 -1.1415
14968TIP3    H266396   0.726   1.130   0.563 -0.0988  0.6036  0.3632
14969TIP3   OH266397   3.235   1.864   6.117  0.4090  0.2085  0.0673
14969TIP3    H166398   3.256   1.946   6.072  0.1150 -0.1825 -0.7976
14969TIP3    H266399   3.214   1.802   6.046  1.5128 -0.8644  0.6640
14970TIP3   OH266400   0.890   1.836   4.173  0.2702 -0.0902 -0.1163
14970TIP3    H166401   0.839   1.917   4.166  0.5806  0.4052  2.6699
14970TIP3    H266402   0.826   1.770   4.200  0.4457 -0.2323 -0.0440
14971TIP3   OH266403   3.320   1.791   4.274 -0.0980 -0.2619 -0.1030
14971TIP3    H166404   3.306   1.698   4.259 -0.9678 -0.4907  2.0053
14971TIP3    H266405   3.283   1.834   4.197 -2.4910 -1.5117  0.3051
14972TIP3   OH266406   0.720   2.147  12.609  0.2431 -0.0524 -0.3888
14972TIP3    H166407   0.697   2.061  12.573 -1.1830 -0.3953  1.2785
14972TIP3    H266408   0.798   2.131  12.661 -1.1984 -0.7791  1.6062
14973TIP3   OH266409   5.691   5.136  13.657  0.0373  0.1580  0.4160
14973TIP3    H166410   5.599   5.128  13.683 -0.1325 -2.3086 -0.8718
14973TIP3    H266411   5.738   5.144  13.740 -1.1942  0.0540  1.1442
14974TIP3   OH266412   3.122   4.087  15.021 -0.7699 -0.3703 -0.0402
14974TIP3    H166413   3.187   4.098  14.951 -1.9820  0.4682 -1.0502
14974TIP3    H266414   3.086   3.999  15.006 -0.6239 -0.4175 -0.1166
14975TIP3   OH266415   3.726   1.837  15.162 -0.1786 -0.0851  0.0883
14975TIP3    H166416   3.804   1.881  15.127  0.4857 -0.8470  0.6050
14975TIP3    H266417   3.744   1.827  15.255 -0.8851 -0.3096  0.2060
14976TIP3   OH266418   2.775   1.120   1.138  0.0058 -0.2771  0.1010
14976TIP3    H166419   2.752   1.202   1.182  0.0461 -0.8587  1.2188
14976TIP3    H266420   2.696   1.066   1.145 -0.4942  0.1544 -1.8369
14977TIP3   OH266421   2.106   2.694  12.144 -0.1096  0.1888  0.0619
14977TIP3    H166422   2.110   2.666  12.053 -0.5554  0.4229 -0.0332
14977TIP3    H266423   2.165   2.769  12.148 -1.0260  0.9530 -0.3321
14978TIP3   OH266424   2.710   2.064  12.255  0.4464 -0.8149 -0.3117
14978TIP3    H166425   2.634   2.120  12.274  0.4047 -1.4298  1.3822
14978TIP3    H266426   2.696   1.986  12.308  2.1608 -1.0257 -0.1622
14979TIP3   OH266427   5.585   0.985  10.796 -0.3845 -0.2758 -0.5611
14979TIP3    H166428   5.585   0.890  10.789 -1.1818 -0.3217  0.0070
14979TIP3    H266429   5.560   1.003  10.886  0.3245  0.4647 -0.5028
14980TIP3   OH266430   2.282   1.591   1.063  0.3445 -0.1707  0.0518
14980TIP3    H166431   2.363   1.621   1.022 -0.0019 -0.5205 -0.9260
14980TIP3    H266432   2.306   1.510   1.108  0.3420 -0.8020 -1.0650
14981TIP3   OH266433   2.567   4.744  16.459 -0.2180  0.1421  0.3821
14981TIP3    H166434   2.659   4.763  16.442 -0.7181  0.1439 -2.5267
14981TIP3    H266435   2.561   4.736  16.554  2.6390  0.8481  0.6466
14982TIP3   OH266436   5.228   0.407   2.096 -0.2654  0.4305  0.0798
14982TIP3    H166437   5.257   0.474   2.033 -2.6424  0.3927 -1.0985
14982TIP3    H266438   5.240   0.448   2.181 -0.8729  2.0406 -0.5900
14983TIP3   OH266439   2.969   3.264   5.844  0.0876  0.0511  0.3048
14983TIP3    H166440   2.963   3.247   5.750 -1.8177  0.7793  0.2725
14983TIP3    H266441   2.880   3.290   5.869  0.5191 -0.3963  2.3591
14984TIP3   OH266442   5.009   4.577   0.442  0.1628 -0.0175 -0.4273
14984TIP3    H166443   5.076   4.634   0.404 -0.2077  1.3099  0.9072
14984TIP3    H266444   5.021   4.585   0.537 -1.9179  0.2394 -0.1760
14985TIP3   OH266445   4.895   1.761  10.190 -0.0021  0.3900  0.0972
14985TIP3    H166446   4.905   1.847  10.150  0.1174 -0.3705 -1.5471
14985TIP3    H266447   4.806   1.733  10.166 -0.0739  0.0878  0.6974
14986TIP3   OH266448   2.757   0.721   1.168 -0.1645 -0.7175 -0.7998
14986TIP3    H166449   2.760   0.810   1.135 -0.9537 -1.0741 -1.8736
14986TIP3    H266450   2.737   0.730   1.261 -0.5329  0.2163 -0.9684
14987TIP3   OH266451   3.827   3.141  12.873 -0.2771 -0.3112  0.0315
14987TIP3    H166452   3.759   3.116  12.810 -0.0274  0.5961 -0.6087
14987TIP3    H266453   3.830   3.237  12.867 -0.2075 -0.2247  1.3759
14988TIP3   OH266454   0.847   3.722  11.288  0.1490 -0.0472 -0.0063
14988TIP3    H166455   0.942   3.711  11.276  0.3971  1.1589  0.6910
14988TIP3    H266456   0.814   3.633  11.301  1.4308 -0.3642  1.3531
14989TIP3   OH266457   3.906   6.567  12.535 -0.5247  0.0591  0.2182
14989TIP3    H166458   3.910   6.589  12.628  1.6307 -0.9777  0.4142
14989TIP3    H266459   3.921   6.651  12.490  0.3107  0.2632  0.8545
14990TIP3   OH266460   0.803   0.821  13.385  0.0686  0.4374 -0.1605
14990TIP3    H166461   0.719   0.868  13.389 -0.2682  0.1820 -3.1547
14990TIP3    H266462   0.857   0.874  13.328  1.4111 -0.2730  0.4319
14991TIP3   OH266463   1.843   4.722   0.203 -0.4154 -0.1227  0.0651
14991TIP3    H166464   1.749   4.731   0.189 -0.3180  0.2810 -0.3495
14991TIP3    H266465   1.860   4.628   0.191 -0.8513 -0.2861  0.6987
14992TIP3   OH266466   5.442   3.794  13.976 -0.3700 -0.1781 -0.0056
14992TIP3    H166467   5.525   3.757  13.948 -1.0358 -1.2897 -0.5360
14992TIP3    H266468   5.378   3.725  13.960 -1.5404  0.9736 -0.4091
14993TIP3   OH266469   0.181   4.366  16.162 -0.1171 -0.5400  0.2419
14993TIP3    H166470   0.249   4.434  16.160  0.4028 -1.0601 -0.1812
14993TIP3    H266471   0.105   4.408  16.200  0.1912  0.2960 -0.0636
14994TIP3   OH266472   1.274   4.536   0.020  0.0274  0.5435 -0.4267
14994TIP3    H166473   1.237   4.624   0.021  0.4662  0.7259  0.6486
14994TIP3    H266474   1.278   4.511   0.113  3.0772  0.7542 -0.4413
14995TIP3   OH266475   0.625   5.821  12.782 -0.2977 -0.2008  0.2333
14995TIP3    H166476   0.652   5.847  12.870  0.5978 -0.9240  0.1814
14995TIP3    H266477   0.530   5.814  12.787 -0.3577  0.8548  0.8393
14996TIP3   OH266478   6.819   6.164   5.315 -0.1199 -0.2626  0.7449
14996TIP3    H166479   6.731   6.198   5.297 -0.2221 -0.6360  0.5421
14996TIP3    H266480   6.859   6.231   5.371 -0.5304 -0.0882  0.8338
14997TIP3   OH266481   1.125   2.140   1.801 -0.3388 -0.6310  0.2109
14997TIP3    H166482   1.156   2.060   1.843  1.0739  0.5642  1.5192
14997TIP3    H266483   1.032   2.145   1.824 -1.0614 -3.1536 -1.9648
14998TIP3   OH266484   5.263   4.356  14.311 -0.1656  0.1938  0.5022
14998TIP3    H166485   5.252   4.379  14.404 -0.8319 -0.8796  0.6893
14998TIP3    H266486   5.305   4.433  14.273  0.7666  0.3752  1.8417
14999TIP3   OH266487   0.828   5.960  16.415 -0.0281  0.5342  0.6162
14999TIP3    H166488   0.801   5.993  16.501  0.9830 -0.0940  1.1778
14999TIP3    H266489   0.898   5.898  16.434 -0.6877 -0.5985 -0.5670
15000TIP3   OH266490   1.173   0.624  11.871  0.2570  0.4740  0.2129
15000TIP3    H166491   1.237   0.555  11.888 -0.4126  0.0927  1.2591
15000TIP3    H266492   1.159   0.621  11.776  2.2103  0.9605 -0.1288
15001TIP3   OH266493   6.272   1.028   2.361  0.7138 -0.1004 -0.0383
15001TIP3    H166494   6.307   1.001   2.445 -0.6220 -0.2599  0.4828
15001TIP3    H266495   6.187   1.067   2.382  0.2269 -0.4301 -1.3377
15002TIP3   OH266496   0.611   0.906  14.201  0.2199 -0.0842  0.0939
15002TIP3    H166497   0.684   0.916  14.261 -0.1257  0.0680  0.4928
15002TIP3    H266498   0.574   0.994  14.194  0.8254  0.0825 -1.0658
15003TIP3   OH266499   4.140   1.320  12.813  0.0102 -0.0122 -0.1648
15003TIP3    H166500   4.208   1.257  12.789  0.0335 -0.0513  0.0065
15003TIP3    H266501   4.060   1.268  12.818 -0.3395  0.2945 -1.9431
15004TIP3   OH266502   0.429   4.728  14.180 -0.2289  0.0889  0.3846
15004TIP3    H166503   0.407   4.635  14.187 -0.4397  0.0939 -0.1438
15004TIP3    H266504   0.345   4.773  14.190 -0.2030  0.1941  0.1403
15005TIP3   OH266505   0.231   0.744   0.091 -0.3025  0.3092 -0.5208
15005TIP3    H166506   0.289   0.787   0.027  0.1572 -0.1953 -0.4484
15005TIP3    H266507   0.236   0.799   0.169  0.9747 -0.3421 -0.1317
15006TIP3   OH266508   5.845   0.434  15.436 -0.2528  0.2570  0.6842
15006TIP3    H166509   5.889   0.363  15.390 -0.2160 -0.4929  1.8550
15006TIP3    H266510   5.798   0.391  15.507 -3.3474  0.9910 -0.8761
15007TIP3   OH266511   0.634   1.348  16.818  0.0043  0.0684 -0.6409
15007TIP3    H166512   0.692   1.299  16.761  0.7485 -0.2441  0.3791
15007TIP3    H266513   0.578   1.398  16.758  2.1961  1.4071 -1.5992
15008TIP3   OH266514   6.199   5.637  12.881 -0.4574  0.1070  0.3036
15008TIP3    H166515   6.197   5.604  12.792  0.5331 -1.1079  0.7115
15008TIP3    H266516   6.260   5.579  12.927 -0.4349  1.1176  1.6040
15009TIP3   OH266517   3.306   1.346   5.846  0.1538  0.4012 -0.1612
15009TIP3    H166518   3.280   1.257   5.822 -0.2090  0.6986 -0.8979
15009TIP3    H266519   3.383   1.335   5.902 -0.2187 -0.3967  0.1971
15010TIP3   OH266520   3.676   2.851   2.951 -0.0962 -0.5225 -0.3626
15010TIP3    H166521   3.694   2.913   3.022 -1.7141  0.4574 -0.7694
15010TIP3    H266522   3.752   2.857   2.894  0.2317  0.3330  0.1439
15011TIP3   OH266523   2.925   4.735   1.481  0.2902 -1.1253  0.0113
15011TIP3    H166524   2.857   4.695   1.427 -0.0727 -2.9528  1.7872
15011TIP3    H266525   2.880   4.759   1.562  1.1341  0.3474  0.0614
15012TIP3   OH266526   3.442   5.748   3.522 -0.1874  0.1897  0.0312
15012TIP3    H166527   3.357   5.781   3.551  0.1854  1.7490 -0.5985
15012TIP3    H266528   3.480   5.708   3.600 -1.2314  0.0313  0.4712
15013TIP3   OH266529   1.273   3.354  13.609 -0.1519  0.2686 -0.1386
15013TIP3    H166530   1.260   3.446  13.635 -0.7819  0.1717 -0.1139
15013TIP3    H266531   1.305   3.311  13.688 -0.2325  0.3866 -0.0412
15014TIP3   OH266532   4.844   3.853  10.850 -0.0513  0.4275  0.1914
15014TIP3    H166533   4.861   3.924  10.788 -1.3689  0.7256  0.1522
15014TIP3    H266534   4.922   3.798  10.846  0.3713  1.0881 -0.8498
15015TIP3   OH266535   4.640   5.170  12.747 -0.0661  0.6080  0.4197
15015TIP3    H166536   4.651   5.258  12.712  1.9215 -0.2345 -1.2200
15015TIP3    H266537   4.558   5.139  12.709  0.3275  0.9787 -0.7710
15016TIP3   OH266538   0.328   1.998  12.124  0.2969 -1.1054 -0.0219
15016TIP3    H166539   0.310   1.907  12.102  0.3515 -1.1142 -0.0311
15016TIP3    H266540   0.374   2.032  12.047  2.2771 -1.6869  0.8834
15017TIP3   OH266541   5.157   4.519  12.538 -0.3305  0.7855  0.0461
15017TIP3    H166542   5.208   4.542  12.460 -0.7518 -0.0926 -0.4942
15017TIP3    H266543   5.165   4.595  12.595 -0.0240  1.4448 -0.8631
15018TIP3   OH266544   0.270   2.898  11.101  0.1687 -0.5850 -0.2221
15018TIP3    H166545   0.351   2.865  11.061  1.0886  1.8605 -0.4840
15018TIP3    H266546   0.300   2.944  11.179 -0.9700  0.3290 -0.3146
15019TIP3   OH266547   1.910   0.376  14.902 -0.0211  0.2284  0.2414
15019TIP3    H166548   1.919   0.329  14.985  0.0314 -0.2391 -0.0309
15019TIP3    H266549   1.828   0.344  14.864  1.7590 -2.2970 -1.6318
15020TIP3   OH266550   3.088   1.760   4.503 -0.1607  0.0144  0.0367
15020TIP3    H166551   3.124   1.839   4.463  0.6137 -0.4249 -0.1402
15020TIP3    H266552   3.144   1.743   4.578  1.2297 -1.7874 -1.3610
15021TIP3   OH266553   0.775   0.051   3.912  0.6899  0.3882  0.2430
15021TIP3    H166554   0.843  -0.015   3.899  1.1956  1.1855 -1.2348
15021TIP3    H266555   0.750   0.078   3.824  0.7370  2.4251  0.8292
15022TIP3   OH266556   4.605   6.412  11.919  0.5362  0.7018 -0.7571
15022TIP3    H166557   4.529   6.385  11.867 -1.4690 -0.9124  2.8290
15022TIP3    H266558   4.657   6.332  11.928  0.9399  0.9972 -0.4462
15023TIP3   OH266559   2.993   6.395   3.290  0.0005 -0.7339  0.3782
15023TIP3    H166560   3.012   6.459   3.359 -1.2548  0.4104 -0.3276
15023TIP3    H266561   2.907   6.420   3.257 -0.1094 -2.2568 -0.5179
15024TIP3   OH266562   0.678   3.587  11.902 -0.0625 -0.0913  0.7887
15024TIP3    H166563   0.739   3.548  11.840  0.4238  0.6840  0.7807
15024TIP3    H266564   0.716   3.672  11.925 -0.0203 -0.5301  2.4593
15025TIP3   OH266565   5.956   6.293   5.768 -0.0518  0.0355  0.1014
15025TIP3    H166566   5.991   6.378   5.795  1.3771 -0.5101  0.0370
15025TIP3    H266567   5.924   6.253   5.849 -2.3266  1.3400 -0.1266
15026TIP3   OH266568   3.309   2.758   0.452 -0.0342  0.1725 -0.2483
15026TIP3    H166569   3.329   2.851   0.461 -1.5612  0.4027  1.3101
15026TIP3    H266570   3.216   2.756   0.427 -0.3053 -0.9155  0.7576
15027TIP3   OH266571   3.031   2.127   5.947  0.2167  0.2670 -0.6188
15027TIP3    H166572   2.941   2.098   5.963 -0.2426  1.5848 -0.7118
15027TIP3    H266573   3.045   2.110   5.854 -0.5455  1.5930 -1.0006
15028TIP3   OH266574   6.610   5.892  16.236 -0.0382  0.2517 -0.4914
15028TIP3    H166575   6.628   5.932  16.151 -0.9479 -2.4806 -2.0249
15028TIP3    H266576   6.692   5.901  16.284  1.6613 -1.3321 -2.9857
15029TIP3   OH266577   3.785   3.312   3.501 -0.1905 -0.5025 -0.0573
15029TIP3    H166578   3.711   3.267   3.458 -0.9928  0.7049  0.0374
15029TIP3    H266579   3.752   3.331   3.589  0.6158 -0.8773  0.3244
15030TIP3   OH266580   2.837   6.694   4.290  0.9929 -0.3941  0.1115
15030TIP3    H166581   2.915   6.652   4.326  0.9615  0.8244  1.6703
15030TIP3    H266582   2.848   6.787   4.312 -2.1759 -0.5773  2.7374
15031TIP3   OH266583   1.332   4.671   2.327 -0.7127  0.2988  0.3137
15031TIP3    H166584   1.379   4.746   2.365 -1.1152  0.0626  1.2975
15031TIP3    H266585   1.279   4.637   2.399  0.3029 -1.6227  0.1833
15032TIP3   OH266586   3.873   6.313   3.662  0.3380 -0.4661  0.0826
15032TIP3    H166587   3.801   6.334   3.603  0.2571  1.4993  0.8408
15032TIP3    H266588   3.944   6.372   3.636  0.6222 -0.2461  1.3199
15033TIP3   OH266589   6.455   5.771  13.120 -0.4604 -0.4219 -0.0809
15033TIP3    H166590   6.384   5.815  13.166  0.1003 -1.2051  1.5963
15033TIP3    H266591   6.431   5.678  13.120  0.2040 -0.6017 -0.1490
15034TIP3   OH266592   1.739   0.168   2.128  0.3331  0.2631 -0.8132
15034TIP3    H166593   1.645   0.156   2.141  0.5997  1.6460  2.8307
15034TIP3    H266594   1.745   0.226   2.052 -1.7993  0.8608 -0.5588
15035TIP3   OH266595   4.866   2.163  10.856  0.7537  0.5517  0.2027
15035TIP3    H166596   4.791   2.194  10.806  0.1891 -1.6588 -0.4096
15035TIP3    H266597   4.940   2.173  10.796  0.4489  0.0162 -0.2731
15036TIP3   OH266598   0.868   6.754  10.880 -0.9000  0.0608 -0.5642
15036TIP3    H166599   0.864   6.841  10.842  3.9814  0.9923  0.7103
15036TIP3    H266600   0.903   6.698  10.810 -1.9644 -0.4328 -0.7092
15037TIP3   OH266601   6.224   5.184  13.962  0.2516  0.4278  0.7111
15037TIP3    H166602   6.312   5.158  13.990  0.6751  0.5095 -0.5023
15037TIP3    H266603   6.200   5.256  14.020  1.0016  0.4324  1.0130
15038TIP3   OH266604   0.816   0.788  10.827  0.8670  0.3805  0.0263
15038TIP3    H166605   0.812   0.770  10.733  0.1226  1.2036 -0.1046
15038TIP3    H266606   0.740   0.742  10.863 -1.0648  3.2462 -0.3127
15039TIP3   OH266607   3.670   1.026  15.739  0.3912 -0.0490 -0.8430
15039TIP3    H166608   3.757   1.005  15.705  0.7452  0.8466 -0.5242
15039TIP3    H266609   3.672   1.121  15.751 -0.1226 -0.2017  0.5620
15040TIP3   OH266610   0.545   4.583  13.062  0.0272  0.4216  0.0191
15040TIP3    H166611   0.455   4.576  13.094  0.2733  0.5228  0.7251
15040TIP3    H266612   0.541   4.648  12.992 -0.0969  1.8310  1.3310
15041TIP3   OH266613   4.088   1.922   5.380 -0.1491 -0.0692  0.5172
15041TIP3    H166614   4.124   1.890   5.297 -3.1306 -0.1931 -0.7922
15041TIP3    H266615   4.055   1.843   5.424  0.3103  0.1514  1.2716
15042TIP3   OH266616   6.108   0.602   3.026  0.3919 -0.0698 -0.1161
15042TIP3    H166617   6.123   0.509   3.038  1.8042  0.0374 -0.9612
15042TIP3    H266618   6.015   0.615   3.047  0.5589 -1.4018  1.4858
15043TIP3   OH266619   2.277   1.287  14.864  0.3181  0.3603 -0.0737
15043TIP3    H166620   2.297   1.224  14.795 -1.3320  0.1804 -0.3960
15043TIP3    H266621   2.183   1.301  14.858  0.4347  1.7021  0.9934
15044TIP3   OH266622   5.269   0.468   2.621  0.2069  0.1068  0.2733
15044TIP3    H166623   5.290   0.560   2.640 -1.8982  0.5137  0.7849
15044TIP3    H266624   5.183   0.455   2.661  1.1374 -2.5200  1.4493
15045TIP3   OH266625   1.880   2.911   4.800  0.0383  0.0853  0.1978
15045TIP3    H166626   1.924   2.895   4.883 -0.8381 -0.8008  0.5037
15045TIP3    H266627   1.787   2.915   4.823 -0.3111 -1.3829 -0.9110
15046TIP3   OH266628   4.530   0.708   4.244  0.0038 -0.8757 -0.3232
15046TIP3    H166629   4.567   0.641   4.187  0.0628 -0.8851 -0.2737
15046TIP3    H266630   4.590   0.782   4.235  1.5207 -1.7966  1.7874
15047TIP3   OH266631   0.066   2.540  13.061 -0.1377  0.0301 -0.1326
15047TIP3    H166632   0.146   2.493  13.085 -1.2801 -0.6053  2.7077
15047TIP3    H266633   0.019   2.479  13.003  0.3743 -0.5682  0.0710
15048TIP3   OH266634   6.047   5.439   2.057 -0.2588  0.0135 -0.0772
15048TIP3    H166635   6.095   5.486   2.126 -2.5535  0.1116  1.5044
15048TIP3    H266636   6.116   5.402   2.002  1.6358  1.1794  1.4077
15049TIP3   OH266637   2.811   2.324  14.035  0.1679 -0.5808 -0.3315
15049TIP3    H166638   2.857   2.244  14.007  0.8077  0.0336 -1.0715
15049TIP3    H266639   2.798   2.373  13.954 -2.6646 -1.1744 -0.2744
15050TIP3   OH266640   0.633   2.633  15.751  0.7600 -0.2604 -0.8955
15050TIP3    H166641   0.555   2.680  15.781  0.2926 -1.3655 -0.3706
15050TIP3    H266642   0.694   2.703  15.725 -0.3271  0.6148 -1.1536
15051TIP3   OH266643   6.281   1.079   6.064  0.4131  0.8764  0.5824
15051TIP3    H166644   6.335   1.117   6.134  1.3017 -0.2723  0.5414
15051TIP3    H266645   6.314   1.120   5.984  0.6012  0.8776  0.6584
15052TIP3   OH266646   4.529   4.679  13.824 -0.2034 -0.1274  0.5468
15052TIP3    H166647   4.484   4.601  13.791  0.0795  0.7007 -1.8704
15052TIP3    H266648   4.614   4.678  13.780  0.5929  0.4962  2.0224
15053TIP3   OH266649   2.532   1.728   6.355 -0.1637  0.1379  0.6392
15053TIP3    H166650   2.595   1.800   6.357  0.9801 -0.8274  0.1724
15053TIP3    H266651   2.555   1.679   6.276 -2.4079  0.5602 -0.3205
15054TIP3   OH266652   3.119   1.842  13.277 -0.1023  0.1151 -0.6052
15054TIP3    H166653   3.124   1.795  13.194 -0.6154  1.4503 -1.4000
15054TIP3    H266654   3.210   1.852  13.305  0.2189  1.5947 -2.1146
15055TIP3   OH266655   1.285   3.971   4.561 -0.2683  0.1372 -0.4892
15055TIP3    H166656   1.210   3.940   4.511  0.7037  0.8677 -2.4656
15055TIP3    H266657   1.252   4.047   4.610 -1.6428 -1.5890  1.3246
15056TIP3   OH266658   6.391   4.690  13.504  0.2541  0.4176  0.5768
15056TIP3    H166659   6.317   4.717  13.558 -0.2222  0.6885 -0.2006
15056TIP3    H266660   6.421   4.771  13.462  0.7569  0.2459  0.6019
15057TIP3   OH266661   1.701   1.845   2.717  0.4144  0.6483  0.2214
15057TIP3    H166662   1.642   1.860   2.644 -0.3960  0.3619  0.8187
15057TIP3    H266663   1.775   1.904   2.700 -0.2256  1.3065 -0.3067
15058TIP3   OH266664   3.009   2.938   4.505 -0.0709  0.3042 -0.2540
15058TIP3    H166665   3.084   2.944   4.445  0.2357  2.3386  0.2959
15058TIP3    H266666   3.033   2.869   4.566 -0.0811 -1.3101 -2.0408
15059TIP3   OH266667   4.224   4.266   5.453  0.2320  0.4747 -0.4200
15059TIP3    H166668   4.176   4.221   5.523 -0.6581 -1.2802 -2.1159
15059TIP3    H266669   4.196   4.222   5.373  0.8547  2.7751 -1.9492
15060TIP3   OH266670   4.091   3.793  14.821  0.1084 -0.1399  0.1585
15060TIP3    H166671   4.186   3.798  14.816  0.1670  0.2399  1.5008
15060TIP3    H266672   4.060   3.833  14.739  1.0885  0.2888 -0.0043
15061TIP3   OH266673   1.761   0.857   4.247  0.5303  0.1479  0.0488
15061TIP3    H166674   1.678   0.904   4.240  0.9845  0.8051 -1.0023
15061TIP3    H266675   1.742   0.770   4.211  0.8853  1.0480 -2.3628
15062TIP3   OH266676   1.611   5.584   4.337  0.0835 -0.9650  0.3377
15062TIP3    H166677   1.540   5.597   4.401  1.8631 -1.1756  2.4191
15062TIP3    H266678   1.690   5.612   4.383  1.4314 -1.1539 -1.7925
15063TIP3   OH266679   0.145   4.282   2.689 -0.0838 -0.0862 -0.2553
15063TIP3    H166680   0.114   4.269   2.600 -0.7433 -0.4850  0.0237
15063TIP3    H266681   0.170   4.374   2.693 -0.1744 -0.0400 -0.8173
15064TIP3   OH266682   2.264   2.282   1.773 -0.0255 -0.2314  0.6005
15064TIP3    H166683   2.308   2.367   1.774  1.6243 -1.0672  1.1844
15064TIP3    H266684   2.222   2.275   1.859  1.5550 -0.8574  1.3414
15065TIP3   OH266685   3.664   1.060   4.600 -0.1241  0.5450  0.1451
15065TIP3    H166686   3.618   1.036   4.520  0.1382 -0.0362  0.1638
15065TIP3    H266687   3.626   1.144   4.626  0.1214  0.9777 -0.8530
15066TIP3   OH266688   5.600   2.434  13.418 -0.1921  0.2257 -0.4590
15066TIP3    H166689   5.608   2.463  13.509  0.5542  2.7799 -1.3189
15066TIP3    H266690   5.630   2.508  13.366 -1.4774 -0.8709 -2.8409
15067TIP3   OH266691   3.433   1.441  15.142 -0.5951 -0.1350  0.7749
15067TIP3    H166692   3.381   1.520  15.126 -0.2364 -0.1311 -0.3744
15067TIP3    H266693   3.376   1.369  15.116 -0.3838 -0.1848  0.4603
15068TIP3   OH266694   0.567   5.056   2.604  0.0878 -0.0191  0.2328
15068TIP3    H166695   0.621   4.998   2.550 -1.5428 -0.7424 -0.6707
15068TIP3    H266696   0.628   5.096   2.665  1.7807 -0.1393 -1.3473
15069TIP3   OH266697   0.387   5.994   1.514 -0.0569  0.0647 -0.0283
15069TIP3    H166698   0.438   6.032   1.442 -1.8919  0.0262 -1.3971
15069TIP3    H266699   0.380   5.901   1.492 -1.6133  0.2646 -0.4361
15070TIP3   OH266700   2.242   3.047  13.198 -0.1583  0.2907 -0.1431
15070TIP3    H166701   2.177   2.999  13.249 -2.1924  1.0755 -1.9115
15070TIP3    H266702   2.265   2.987  13.126 -1.7613  1.3977 -1.6357
15071TIP3   OH266703   4.341   2.163   3.637  0.1939 -0.5378 -0.6056
15071TIP3    H166704   4.302   2.243   3.673  1.2297 -0.6125  0.7600
15071TIP3    H266705   4.316   2.095   3.699  1.3555 -0.8193 -0.4383
15072TIP3   OH266706   4.108   2.268   1.508  0.4706  0.5267  0.1442
15072TIP3    H166707   4.035   2.215   1.478 -0.4279  1.2915  0.9549
15072TIP3    H266708   4.067   2.346   1.545  1.7887  2.2762 -1.9459
15073TIP3   OH266709   2.358   6.659   0.732 -0.2589 -0.2013 -0.5166
15073TIP3    H166710   2.395   6.589   0.680 -0.4354 -0.9205  0.3136
15073TIP3    H266711   2.287   6.618   0.782 -1.2713  0.8600 -1.0578
15074TIP3   OH266712   1.255   4.567  12.795 -0.2939 -0.4835 -0.1387
15074TIP3    H166713   1.281   4.601  12.880  0.9283 -0.4182 -0.5326
15074TIP3    H266714   1.265   4.472  12.804  2.1630 -0.3267 -0.9584
15075TIP3   OH266715   0.371   0.889  11.953 -0.3484 -0.0672 -0.0927
15075TIP3    H166716   0.378   0.837  12.032 -1.8301  0.4130  0.3601
15075TIP3    H266717   0.445   0.860  11.899  0.4478 -0.6673  1.2852
15076TIP3   OH266718   6.584   2.102   2.171 -0.4100 -0.6958  0.2620
15076TIP3    H166719   6.568   2.010   2.148 -0.8744 -0.3730 -0.7327
15076TIP3    H266720   6.541   2.152   2.101 -1.4631  0.3097  1.6111
15077TIP3   OH266721   5.348   1.270  10.873  0.3606  0.2426 -0.6924
15077TIP3    H166722   5.331   1.283  10.780  0.4791 -0.4147 -0.8097
15077TIP3    H266723   5.353   1.175  10.883 -0.3940  0.2864  0.1220
15078TIP3   OH266724   4.508   3.716   2.876 -0.2969  0.6447 -0.0911
15078TIP3    H166725   4.500   3.778   2.803  1.1205  1.1288  0.1470
15078TIP3    H266726   4.587   3.665   2.855  1.1749  1.9962  1.9884
15079TIP3   OH266727   5.778   6.646   6.409  0.1695 -0.3448  0.5265
15079TIP3    H166728   5.843   6.586   6.372  0.0857 -0.1831  0.1181
15079TIP3    H266729   5.829   6.716   6.449  0.2888 -0.9861  1.5251
15080TIP3   OH266730   2.156   2.735  13.890 -0.1008  0.2340  0.3622
15080TIP3    H166731   2.182   2.654  13.847 -0.3094 -0.0952  0.8520
15080TIP3    H266732   2.239   2.782  13.903  0.0796 -0.1272  0.5343
15081TIP3   OH266733   6.035   2.693   5.504  0.3744 -0.4100 -0.5903
15081TIP3    H166734   6.101   2.750   5.465  1.2380 -0.4044  0.8667
15081TIP3    H266735   5.968   2.753   5.538  2.3741 -0.0612  2.9849
15082TIP3   OH266736   6.802   2.717   2.811 -0.3801 -0.3057 -0.0352
15082TIP3    H166737   6.799   2.705   2.906 -0.1192 -0.1499 -0.0082
15082TIP3    H266738   6.719   2.680   2.780  0.0449 -1.4157  0.1285
15083TIP3   OH266739   6.069   0.858   2.733  0.0682  0.7252 -0.3501
15083TIP3    H166740   6.043   0.810   2.655  0.7720  0.6767 -0.5644
15083TIP3    H266741   5.988   0.875   2.780 -0.3107  0.3809 -0.8810
15084TIP3   OH266742   0.625   0.206  11.713  0.2419 -0.0697  0.4531
15084TIP3    H166743   0.696   0.164  11.763  2.6768  0.9162 -2.0519
15084TIP3    H266744   0.633   0.299  11.733 -0.3695  0.0449  0.1699
15085TIP3   OH266745   1.995   5.141  13.139 -0.0124 -0.0322 -0.7759
15085TIP3    H166746   2.091   5.138  13.139 -0.0085 -0.0296 -0.0763
15085TIP3    H266747   1.970   5.118  13.049  0.6175 -1.3349 -0.6277
15086TIP3   OH266748   0.828   1.827  12.100  0.1601 -0.6969 -0.4127
15086TIP3    H166749   0.738   1.823  12.068  0.4752 -2.7058 -1.1443
15086TIP3    H266750   0.861   1.737  12.089  1.5495 -0.4898  1.8569
15087TIP3   OH266751   0.126   5.256   5.219 -0.7886 -0.4061  0.4476
15087TIP3    H166752   0.081   5.339   5.228 -1.1017 -0.5294  0.0567
15087TIP3    H266753   0.073   5.206   5.156  0.5630 -0.0589 -1.0116
15088TIP3   OH266754   3.280   3.294   1.057  0.4908 -0.2924 -0.1443
15088TIP3    H166755   3.232   3.283   0.975  0.4454  0.6776 -0.2500
15088TIP3    H266756   3.342   3.221   1.057  0.2694 -0.4931 -0.8877
15089TIP3   OH266757   3.320   0.386  11.653  0.0421 -0.5739  0.2434
15089TIP3    H166758   3.234   0.427  11.644  0.4499  0.0428 -0.8986
15089TIP3    H266759   3.370   0.417  11.578  1.1590 -1.2069  0.7062
15090TIP3   OH266760   4.286   5.886  16.911 -0.1445 -0.4775  0.4993
15090TIP3    H166761   4.354   5.823  16.890 -2.0398 -2.0924 -0.9731
15090TIP3    H266762   4.310   5.965  16.862  0.3612 -1.2091 -0.4382
15091TIP3   OH266763   6.473   4.123   1.157 -0.0502  0.2076  0.1072
15091TIP3    H166764   6.408   4.193   1.155  0.7129  0.9601  1.5345
15091TIP3    H266765   6.548   4.158   1.108  0.6625  0.7317  1.5576
15092TIP3   OH266766   1.575   5.712  15.521  0.0324  0.2414  0.1508
15092TIP3    H166767   1.506   5.760  15.567 -0.1563 -0.1114  0.2449
15092TIP3    H266768   1.623   5.668  15.592 -0.4892 -0.6058 -0.0145
15093TIP3   OH266769   0.977   0.220   1.207 -0.1047 -0.4199  0.3019
15093TIP3    H166770   0.983   0.308   1.171  0.3489  0.0808  1.5650
15093TIP3    H266771   0.885   0.208   1.228  0.0289  0.2800  1.3616
15094TIP3   OH266772   4.630   4.039  16.558  0.5504 -0.6961  0.0383
15094TIP3    H166773   4.675   4.098  16.618  2.8553  0.1995 -2.4746
15094TIP3    H266774   4.577   4.096  16.502  0.4115 -1.2720 -0.4372
15095TIP3   OH266775   4.772   5.734   4.999 -0.4309  0.4896  0.6754
15095TIP3    H166776   4.850   5.762   5.047  0.1669  0.5367 -0.3044
15095TIP3    H266777   4.771   5.639   5.007  0.7608  0.3244 -0.8321
15096TIP3   OH266778   2.925   3.742   0.685 -0.5509  0.5919  0.2692
15096TIP3    H166779   2.855   3.755   0.620 -1.4099  1.1070  1.2829
15096TIP3    H266780   2.879   3.711   0.763  0.4507  0.2463  0.7244
15097TIP3   OH266781   2.567   3.960  16.074  0.4355  0.1861 -0.0154
15097TIP3    H166782   2.640   3.900  16.089  0.3021  0.0118 -0.0661
15097TIP3    H266783   2.603   4.046  16.095  0.1384 -0.0841  1.6936
15098TIP3   OH266784   3.973   6.317   1.997 -0.3295  0.3253  0.6158
15098TIP3    H166785   4.026   6.287   2.071  0.6621 -0.0178 -0.2371
15098TIP3    H266786   3.969   6.412   2.008  0.3022  0.3340  0.7795
15099TIP3   OH266787   1.804   3.692   5.972  0.1289 -0.1025  0.1100
15099TIP3    H166788   1.864   3.674   5.900 -0.0615  1.4766 -0.4776
15099TIP3    H266789   1.857   3.742   6.035 -0.5375  1.2814 -0.4024
15100TIP3   OH266790   0.603   0.982  12.273  0.9075  0.0204 -0.0169
15100TIP3    H166791   0.571   1.058  12.225 -1.5519 -1.1034 -0.2874
15100TIP3    H266792   0.692   0.968  12.242  1.0462  2.2047 -0.6384
15101TIP3   OH266793   1.899   0.107  15.601  0.4050  0.2938 -0.2606
15101TIP3    H166794   1.931   0.167  15.668  1.4352  0.7333 -1.1294
15101TIP3    H266795   1.923   0.020  15.634  2.8185  0.6352 -1.0337
15102TIP3   OH266796   3.566   4.189   2.762 -0.0845  0.4175 -0.1834
15102TIP3    H166797   3.566   4.269   2.814  0.6624  0.8734 -0.8841
15102TIP3    H266798   3.658   4.169   2.748 -0.2693  0.8651 -2.2109
15103TIP3   OH266799   1.982   3.424  15.750  0.6177  0.1537 -0.3639
15103TIP3    H166800   1.995   3.427  15.844  0.7479  0.2886 -0.3868
15103TIP3    H266801   1.968   3.515  15.724 -2.3093 -0.1829 -0.0746
15104TIP3   OH266802   3.192   5.747  15.483 -0.9817 -0.4680 -0.3528
15104TIP3    H166803   3.240   5.679  15.532 -0.8380 -0.7658 -0.8970
15104TIP3    H266804   3.156   5.700  15.408 -0.6672  0.1125 -0.8684
15105TIP3   OH266805   5.736   2.900   4.866  0.2651 -0.1420 -0.2711
15105TIP3    H166806   5.659   2.909   4.921 -0.7406  0.3258 -1.7217
15105TIP3    H266807   5.773   2.988   4.862  0.0364 -0.0679 -0.7669
15106TIP3   OH266808   1.474   0.158  11.216  0.4700  0.2372  0.1177
15106TIP3    H166809   1.430   0.203  11.288 -2.1401  0.1780 -1.3989
15106TIP3    H266810   1.528   0.226  11.175 -0.9216  1.1884 -0.1628
15107TIP3   OH266811   1.443   0.587  11.050  0.6403  0.0754 -0.4509
15107TIP3    H166812   1.402   0.669  11.075  2.1803  1.3714 -2.0037
15107TIP3    H266813   1.409   0.522  11.112 -2.8071  1.2885 -1.0046
15108TIP3   OH266814   3.978   0.706  15.473  0.1145 -0.1017  0.8950
15108TIP3    H166815   3.888   0.676  15.490  0.6059 -1.7925  0.5901
15108TIP3    H266816   4.016   0.637  15.418  1.5095  0.7563  0.7706
15109TIP3   OH266817   4.829   3.835  16.163 -0.4557  0.0852 -0.1443
15109TIP3    H166818   4.831   3.740  16.172 -1.6181  0.0211 -0.5702
15109TIP3    H266819   4.902   3.865  16.217  0.5417 -1.1050 -0.7840
15110TIP3   OH266820   5.683   3.349   3.867  0.1071  0.4691  0.1832
15110TIP3    H166821   5.666   3.432   3.913  2.3195  0.7197  0.6420
15110TIP3    H266822   5.622   3.349   3.794 -0.3534  2.2285  0.5329
15111TIP3   OH266823   3.527   0.730  17.128 -0.3208  0.0379 -0.2530
15111TIP3    H166824   3.530   0.783  17.049 -3.0271 -2.0466 -1.8691
15111TIP3    H266825   3.613   0.687  17.132  0.9385  2.4771 -0.3378
15112TIP3   OH266826   5.074   3.409  13.404 -0.1365  0.1071 -0.1661
15112TIP3    H166827   5.136   3.469  13.446 -1.6539  0.8620  1.0068
15112TIP3    H266828   5.045   3.456  13.326 -0.2890  0.3380  0.0280
15113TIP3   OH266829   0.123   6.012   6.393 -0.0234 -0.2371  0.5444
15113TIP3    H166830   0.035   5.978   6.379 -0.1686  0.7361 -1.1509
15113TIP3    H266831   0.113   6.080   6.459 -0.9408  1.3265 -1.1429
15114TIP3   OH266832   4.490   6.164  12.476  0.0660 -0.0268 -0.8287
15114TIP3    H166833   4.562   6.140  12.534  0.1242  1.9557 -0.0373
15114TIP3    H266834   4.413   6.121  12.513 -0.1235  2.1584  1.4898
15115TIP3   OH266835   2.425   4.486   3.617  0.5387 -0.7610 -0.1296
15115TIP3    H166836   2.427   4.450   3.706  0.0212  1.1002  0.6447
15115TIP3    H266837   2.379   4.419   3.566 -0.4749 -1.1751  1.3024
15116TIP3   OH266838   3.529   6.208   5.735  0.3231 -0.0223  0.1435
15116TIP3    H166839   3.553   6.190   5.644 -0.7777 -0.8373  0.0094
15116TIP3    H266840   3.590   6.276   5.762  0.3216  0.6080 -1.3697
15117TIP3   OH266841   4.068   1.673  13.367 -0.7459  0.1278 -0.1491
15117TIP3    H166842   4.095   1.583  13.356 -0.8045  0.1959 -0.8257
15117TIP3    H266843   4.089   1.693  13.459 -0.2396 -0.3971 -0.1495
15118TIP3   OH266844   5.808   5.955   2.728 -0.3911 -0.0402 -0.1296
15118TIP3    H166845   5.745   5.896   2.769  1.4107 -0.2147  2.4789
15118TIP3    H266846   5.772   6.043   2.743 -0.8340 -0.2235 -0.1052
15119TIP3   OH266847   6.791   6.629  16.673  0.0609  0.1024 -0.4364
15119TIP3    H166848   6.753   6.716  16.682  0.3981  0.0957  1.4161
15119TIP3    H266849   6.826   6.626  16.585  1.2548  2.3397 -0.0554
15120TIP3   OH266850   4.611   4.493  16.003  0.2649  0.4001 -0.0164
15120TIP3    H166851   4.646   4.443  15.930 -2.5028 -2.5147  0.5555
15120TIP3    H266852   4.563   4.565  15.962 -1.5994 -1.4409 -1.1938
15121TIP3   OH266853   0.242   1.259   5.205 -0.0733 -0.5096  0.6132
15121TIP3    H166854   0.156   1.292   5.180  0.6332 -1.2209 -3.1634
15121TIP3    H266855   0.296   1.337   5.216 -0.0596 -0.1540 -1.7139
15122TIP3   OH266856   4.218   0.622   4.763  0.2871  0.0266 -0.1078
15122TIP3    H166857   4.150   0.619   4.695  1.3293  0.0132 -1.1744
15122TIP3    H266858   4.207   0.708   4.804  0.4489  0.5409 -1.1324
15123TIP3   OH266859   6.094   6.530   5.822  0.0815 -0.4953  0.0678
15123TIP3    H166860   6.158   6.571   5.763 -0.9589  2.3164  0.7920
15123TIP3    H266861   6.146   6.503   5.897  0.4822  1.8740  0.7028
15124TIP3   OH266862   3.521   5.384   2.732  0.5042 -1.0543  0.2047
15124TIP3    H166863   3.485   5.428   2.809  1.4351 -0.6933  0.4343
15124TIP3    H266864   3.477   5.426   2.658  1.9016  0.7807  0.3760
15125TIP3   OH266865   1.221   4.909   1.023  0.6253 -0.2468 -0.0214
15125TIP3    H166866   1.197   4.847   1.092 -0.1588  0.5545  0.4484
15125TIP3    H266867   1.137   4.945   0.993  1.0269  0.1130 -0.7279
15126TIP3   OH266868   3.342   2.679   2.159 -0.3634  0.1485  0.3345
15126TIP3    H166869   3.415   2.741   2.160 -1.2569  1.2839 -1.3863
15126TIP3    H266870   3.267   2.730   2.190 -0.5820 -0.8276  1.4608
15127TIP3   OH266871   5.315   2.075  11.454 -0.6666  0.5610 -0.0949
15127TIP3    H166872   5.261   1.996  11.448  0.0724 -0.1326  2.1604
15127TIP3    H266873   5.391   2.057  11.398 -0.7867 -0.0947 -0.0459
15128TIP3   OH266874   1.884   4.944   2.487 -0.2590  0.0653 -0.5828
15128TIP3    H166875   1.921   4.982   2.567  1.0202 -0.5621 -0.8567
15128TIP3    H266876   1.802   4.904   2.516 -0.3403  0.7755  0.2035
15129TIP3   OH266877   5.314   3.369  11.828 -0.4065 -0.2891 -0.0542
15129TIP3    H166878   5.398   3.373  11.872 -0.4242  0.1777 -0.0540
15129TIP3    H266879   5.335   3.353  11.736 -0.2678  0.6901 -0.2020
15130TIP3   OH266880   3.367   1.193   4.803  0.4521  0.2059  0.4223
15130TIP3    H166881   3.428   1.256   4.843  0.3581 -0.0382  0.9509
15130TIP3    H266882   3.365   1.119   4.864  0.6640 -0.3732 -0.2633
15131TIP3   OH266883   3.161   0.088  16.848  0.5176 -0.0407  0.4939
15131TIP3    H166884   3.179  -0.002  16.820  0.2683 -0.1809  0.7761
15131TIP3    H266885   3.162   0.084  16.944 -1.8669 -0.2534  0.5498
15132TIP3   OH266886   4.392   2.763  10.954  0.3602  0.5201  0.0105
15132TIP3    H166887   4.371   2.684  11.004  0.0438  0.9712  0.5896
15132TIP3    H266888   4.316   2.778  10.899  0.2262  0.6933  0.2435
15133TIP3   OH266889   0.633   3.126  11.727  1.1935  0.4742 -0.4713
15133TIP3    H166890   0.540   3.118  11.707  0.3348  1.7570  2.7095
15133TIP3    H266891   0.676   3.130  11.641 -1.6960  0.2873 -1.9766
15134TIP3   OH266892   5.905   1.852   5.601 -0.1129 -0.1104  0.4121
15134TIP3    H166893   5.918   1.816   5.689 -2.9213 -0.9778  0.5193
15134TIP3    H266894   5.810   1.851   5.588  0.2128  0.5098 -2.4421
15135TIP3   OH266895   4.862   3.359   3.322 -0.1402  0.6990  0.0700
15135TIP3    H166896   4.787   3.304   3.301 -0.6818  2.0732 -1.7094
15135TIP3    H266897   4.824   3.438   3.362  0.3777  1.2250 -0.4625
15136TIP3   OH266898   5.109   0.336  13.546  0.5311  0.2254  0.0745
15136TIP3    H166899   5.194   0.300  13.569  0.3047 -2.0643 -2.3786
15136TIP3    H266900   5.053   0.314  13.621  1.7399  0.5110  1.0824
15137TIP3   OH266901   1.667   1.437  15.898 -0.1118 -0.2178 -0.2165
15137TIP3    H166902   1.607   1.366  15.923 -0.7345  0.4064  0.1118
15137TIP3    H266903   1.659   1.501  15.970 -0.8430  0.9537 -1.3039
15138TIP3   OH266904   0.609   0.378   6.654  0.0543 -0.0131  0.0773
15138TIP3    H166905   0.597   0.461   6.700  1.5279  0.7429 -0.8457
15138TIP3    H266906   0.537   0.376   6.590 -1.8613 -0.9695  2.2200
15139TIP3   OH266907   3.112   0.178   0.487  0.2314 -0.0840 -0.8615
15139TIP3    H166908   3.160   0.217   0.560  0.1488  0.4132 -1.0766
15139TIP3    H266909   3.105   0.085   0.511 -0.5563  0.2360  0.1936
15140TIP3   OH266910   4.264   0.803  13.724 -0.4055  0.0046  0.2429
15140TIP3    H166911   4.318   0.856  13.666 -0.8806 -0.3218 -0.4970
15140TIP3    H266912   4.187   0.858  13.742 -0.5981 -0.1822 -0.0154
15141TIP3   OH266913   3.027   3.812   1.410 -0.2222  0.2934 -0.3568
15141TIP3    H166914   2.977   3.873   1.464 -1.2114 -0.1735 -0.7372
15141TIP3    H266915   3.077   3.760   1.472 -1.5959 -0.4534  0.1381
15142TIP3   OH266916   4.176   5.151   4.980  0.4997  0.0638  0.9381
15142TIP3    H166917   4.269   5.161   4.998  1.2609 -1.2586 -1.8791
15142TIP3    H266918   4.170   5.067   4.934 -2.0107  0.4204  0.5546
15143TIP3   OH266919   6.217   0.544   5.982 -0.0007 -0.5696  0.5577
15143TIP3    H166920   6.225   0.637   5.962  0.9143 -0.2894  2.1337
15143TIP3    H266921   6.168   0.541   6.064 -0.7042 -1.5226  0.1151
15144TIP3   OH266922   3.730   6.072   6.521  0.5470 -0.1156  0.5706
15144TIP3    H166923   3.721   6.146   6.461  0.3038  0.5961  1.4704
15144TIP3    H266924   3.813   6.031   6.495 -0.0036 -0.3682 -0.8393
15145TIP3   OH266925   3.297   2.897  10.784 -0.1817 -0.1965 -0.0423
15145TIP3    H166926   3.300   2.991  10.802  1.9366 -0.2209 -0.1873
15145TIP3    H266927   3.204   2.874  10.793 -0.3290  1.3448  2.8101
15146TIP3   OH266928   1.022   1.765   2.706 -0.2659 -0.3085 -0.5865
15146TIP3    H166929   0.963   1.716   2.763 -1.2441  0.0622 -1.2769
15146TIP3    H266930   0.966   1.830   2.662  0.3139 -1.1541 -2.6308
15147TIP3   OH266931   2.776   4.303   4.417 -0.2864  0.4022  0.2287
15147TIP3    H166932   2.815   4.353   4.489 -0.7878  1.9674 -0.5577
15147TIP3    H266933   2.696   4.350   4.396  0.2620  0.4412 -1.8823
15148TIP3   OH266934   0.747   2.010   4.009  0.5943  0.3954  0.0311
15148TIP3    H166935   0.674   1.956   3.981  0.0366  0.7982  0.7062
15148TIP3    H266936   0.736   2.092   3.962  0.5623  0.4903  0.2041
15149TIP3   OH266937   6.028   0.163  15.376  0.0258  0.3789 -0.3172
15149TIP3    H166938   6.090   0.145  15.306 -0.7521  1.3861 -1.2854
15149TIP3    H266939   5.976   0.083  15.382  1.4709 -0.5131  0.5840
15150TIP3   OH266940   6.314   3.850  14.114  0.0144  0.7004  0.1554
15150TIP3    H166941   6.238   3.901  14.086 -0.3865 -0.3543 -0.7156
15150TIP3    H266942   6.295   3.761  14.085  1.3844  0.3373  0.3377
15151TIP3   OH266943   4.298   5.524   5.591  0.0143  0.7280  0.0640
15151TIP3    H166944   4.214   5.481   5.610 -0.2303  0.9440 -0.5294
15151TIP3    H266945   4.324   5.561   5.675 -0.4706  0.6366  0.2610
15152TIP3   OH266946   5.703   0.992  15.025 -0.0046  0.2190  0.2695
15152TIP3    H166947   5.758   1.050  14.972  1.2133 -0.2455  0.9978
15152TIP3    H266948   5.736   1.002  15.114 -2.0963  1.0644  0.9774
15153TIP3   OH266949   1.198   1.194   5.411  0.0285 -0.4623 -0.8653
15153TIP3    H166950   1.140   1.128   5.375  2.3704 -1.1647 -3.5651
15153TIP3    H266951   1.159   1.278   5.384 -1.3077 -0.8162 -0.0566
15154TIP3   OH266952   1.088   1.527   1.100  0.0877  0.3595  0.0780
15154TIP3    H166953   1.066   1.514   1.009 -1.0813 -0.0251  0.4158
15154TIP3    H266954   1.167   1.474   1.114  0.0076  0.0705 -0.5835
15155TIP3   OH266955   6.325   5.704  15.071 -0.4071 -0.4478  0.6879
15155TIP3    H166956   6.340   5.621  15.026 -0.5828  0.9775 -2.1863
15155TIP3    H266957   6.231   5.719  15.061  0.1814  1.8829 -2.3310
15156TIP3   OH266958   6.707   2.558  14.552  0.1850  0.6043 -0.1653
15156TIP3    H166959   6.622   2.514  14.540  0.8897 -1.5310  2.2078
15156TIP3    H266960   6.697   2.605  14.635  1.9301 -1.3021  1.1815
15157TIP3   OH266961   2.470   6.365  15.177  0.7490 -0.2138  0.3519
15157TIP3    H166962   2.381   6.381  15.207  0.4293 -2.1473  0.4618
15157TIP3    H266963   2.506   6.301  15.238  2.0229  0.1297 -0.0210
15158TIP3   OH266964   1.379   6.798  12.483  0.5086 -0.2026 -0.4999
15158TIP3    H166965   1.343   6.721  12.525  0.6940 -0.5884 -1.0398
15158TIP3    H266966   1.379   6.777  12.389 -1.0393  1.1168 -0.8138
15159TIP3   OH266967   5.152   3.880   3.209  0.4854  0.1627 -0.4913
15159TIP3    H166968   5.232   3.921   3.176  1.6523 -1.6380  0.0438
15159TIP3    H266969   5.159   3.788   3.181 -1.1836 -0.1176 -0.0493
15160TIP3   OH266970   0.314   0.286  12.775  0.0587  0.0085  0.0380
15160TIP3    H166971   0.367   0.219  12.732 -0.7309  0.0874 -1.0608
15160TIP3    H266972   0.297   0.251  12.863  0.6168 -0.7098 -0.1401
15161TIP3   OH266973   5.290   0.228   1.462  0.6482  0.1158  0.6156
15161TIP3    H166974   5.231   0.160   1.494  0.5665 -0.7246 -1.2654
15161TIP3    H266975   5.267   0.305   1.514 -1.0557 -0.6033  0.9772
15162TIP3   OH266976   5.633   2.177   5.136 -0.0186 -1.2789  0.6164
15162TIP3    H166977   5.652   2.211   5.048  1.4063 -1.9869  0.6302
15162TIP3    H266978   5.601   2.088   5.120  0.1130 -1.3600  0.8057
15163TIP3   OH266979   0.276   1.304  14.644 -0.7823 -0.5682  0.3262
15163TIP3    H166980   0.228   1.296  14.726  1.1588  0.9809  1.6711
15163TIP3    H266981   0.353   1.247  14.656  0.2187  0.7202  0.1673
15164TIP3   OH266982   2.667   5.272   6.725 -0.0872 -0.4538  0.1167
15164TIP3    H166983   2.757   5.303   6.725 -0.1725 -0.1247  2.7012
15164TIP3    H266984   2.673   5.180   6.698  1.2808 -1.0262  2.2777
15165TIP3   OH266985   3.389   0.712   5.178  0.4946  0.5135  0.5044
15165TIP3    H166986   3.307   0.699   5.130  0.5601  0.8761  0.2863
15165TIP3    H266987   3.363   0.764   5.254  0.2193 -0.9358  1.4142
15166TIP3   OH266988   4.720   1.618  13.989  0.1824  0.2295  0.1441
15166TIP3    H166989   4.631   1.653  13.988 -0.0524 -0.3129  1.5632
15166TIP3    H266990   4.775   1.693  13.966 -0.7036  0.3414 -1.6715
15167TIP3   OH266991   0.228   1.479  13.089 -0.3231  0.5027  0.3572
15167TIP3    H166992   0.182   1.560  13.112 -1.0186  0.6538 -1.4815
15167TIP3    H266993   0.234   1.430  13.171 -2.7574  0.9762  0.8585
15168TIP3   OH266994   1.057   3.762   5.533  0.4239 -0.0776 -0.0696
15168TIP3    H166995   1.111   3.792   5.606 -0.6264  0.8209  0.3359
15168TIP3    H266996   0.997   3.834   5.516 -0.1418 -0.7657 -1.0420
15169TIP3   OH266997   1.380   6.049   6.845 -0.1990  0.3607 -0.3349
15169TIP3    H166998   1.420   6.007   6.769 -1.7059 -0.2624 -0.8024
15169TIP3    H266999   1.359   5.977   6.904 -0.7277  0.6705 -0.1390
15170TIP3   OH267000   1.583   3.362   3.279 -0.2337 -0.0550  0.8062
15170TIP3    H167001   1.528   3.427   3.322 -0.8249  0.4447 -0.6646
15170TIP3    H267002   1.534   3.280   3.288 -1.3919  0.4397 -0.7490
15171TIP3   OH267003   2.975   0.883   5.438  0.1609  0.6606  0.0797
15171TIP3    H167004   2.972   0.821   5.366  2.4116  1.8262 -1.0721
15171TIP3    H267005   2.937   0.963   5.402  1.3651  1.2681  0.1267
15172TIP3   OH267006   0.077   5.584   3.321  0.2657 -0.0699  0.3030
15172TIP3    H167007   0.013   5.513   3.314 -2.9670  2.4417  2.7074
15172TIP3    H267008   0.128   5.562   3.399  0.4818 -0.6417  0.0046
15173TIP3   OH267009   2.908   4.279   0.486  0.1446 -0.3735 -0.1400
15173TIP3    H167010   2.986   4.332   0.505  0.9581 -1.1599 -1.1842
15173TIP3    H267011   2.845   4.341   0.451  0.7156  0.0873 -0.3718
15174TIP3   OH267012   1.981   2.643  17.064 -0.0230  0.4889  0.9540
15174TIP3    H167013   1.889   2.667  17.067 -0.1764  0.4563 -1.8808
15174TIP3    H267014   1.991   2.575  17.131 -2.3579 -0.4526  0.3932
15175TIP3   OH267015   3.972   0.823  14.869  0.5396 -0.3718 -0.4134
15175TIP3    H167016   3.900   0.761  14.882  0.4853 -0.4074 -0.8845
15175TIP3    H267017   3.964   0.851  14.778  0.7584  0.0844 -0.2956
15176TIP3   OH267018   5.892   5.270   2.317  0.6700 -0.1852  0.4420
15176TIP3    H167019   5.912   5.360   2.289 -0.3074  0.5158  1.9284
15176TIP3    H267020   5.930   5.215   2.249  0.8139  1.3803 -0.7773
15177TIP3   OH267021   1.463   5.196   3.759  0.5457 -0.7267  0.4862
15177TIP3    H167022   1.524   5.270   3.756 -0.2816 -0.0336  0.7588
15177TIP3    H267023   1.417   5.206   3.842  1.4958 -2.4125  1.2451
15178TIP3   OH267024   5.865   5.600   5.762  0.5929 -0.2293  0.3011
15178TIP3    H167025   5.908   5.541   5.700 -1.2015 -1.0251 -0.1959
15178TIP3    H267026   5.865   5.552   5.845 -0.5932 -0.8261 -0.0325
15179TIP3   OH267027   5.338   4.839  11.640  0.4063  0.2407 -0.1313
15179TIP3    H167028   5.354   4.876  11.727  1.2582  1.6599 -0.8862
15179TIP3    H267029   5.279   4.901  11.598  0.5451 -0.0979 -0.8307
15180TIP3   OH267030   3.040   5.871   0.454  0.5185  0.3715  0.3321
15180TIP3    H167031   3.093   5.935   0.500  1.0574  0.7342 -0.7943
15180TIP3    H267032   3.091   5.790   0.457  0.9316  0.6120 -0.3838
15181TIP3   OH267033   3.919   4.007  11.878 -0.8221 -0.7295 -0.3438
15181TIP3    H167034   3.916   4.024  11.972 -2.0597  0.2985 -0.5670
15181TIP3    H267035   4.008   4.034  11.853 -0.0964 -2.0582  0.7086
15182TIP3   OH267036   5.785   1.243  12.479 -0.0926  0.0282 -0.5327
15182TIP3    H167037   5.857   1.227  12.541 -0.6699  0.3641  0.2214
15182TIP3    H267038   5.722   1.174  12.497 -1.1959  1.3235  0.6498
15183TIP3   OH267039   6.786   1.089   5.181  0.0195 -0.1159 -0.4965
15183TIP3    H167040   6.808   1.171   5.138 -1.7918  0.6610  0.0250
15183TIP3    H267041   6.849   1.026   5.145  1.3963  1.4622 -0.9389
15184TIP3   OH267042   0.433   3.496  16.644  0.3489 -0.0829 -0.4519
15184TIP3    H167043   0.491   3.540  16.706  0.1571 -0.1950 -0.1886
15184TIP3    H267044   0.365   3.560  16.625  0.5871  0.0658 -0.8015
15185TIP3   OH267045   6.695   1.591   1.082  0.3017  0.6042  0.3431
15185TIP3    H167046   6.676   1.539   1.160  1.2807  1.8453  1.4433
15185TIP3    H267047   6.655   1.676   1.101 -0.2981  0.6207 -0.9383
15186TIP3   OH267048   5.515   4.318  15.250  0.9500  0.0566  0.3485
15186TIP3    H167049   5.525   4.318  15.155  0.3683 -0.6915  0.2835
15186TIP3    H267050   5.522   4.410  15.276  0.2606  0.3423 -0.4996
15187TIP3   OH267051   2.957   6.192   3.866 -0.3909  0.3298 -0.8766
15187TIP3    H167052   3.034   6.224   3.914 -0.4069 -0.2753 -0.4392
15187TIP3    H267053   2.899   6.159   3.934 -0.7120  0.0952 -1.2679
15188TIP3   OH267054   1.069   6.649  13.380 -0.0032 -0.4452  0.2468
15188TIP3    H167055   1.035   6.656  13.469 -0.8849  1.8963 -0.2171
15188TIP3    H267056   1.160   6.677  13.386 -0.2985  0.5215  0.2901
15189TIP3   OH267057   1.130   1.269   3.973  0.0538  0.4440 -0.3606
15189TIP3    H167058   1.211   1.318   3.969 -0.7164  1.6863 -1.2357
15189TIP3    H267059   1.150   1.193   4.027  1.3587  1.5409  0.7225
15190TIP3   OH267060   1.132   0.189   1.438 -0.0635 -0.2237 -0.0424
15190TIP3    H167061   1.089   0.200   1.353 -1.7842  0.3271  0.8733
15190TIP3    H267062   1.161   0.277   1.462  1.8147 -0.6121 -0.7309
15191TIP3   OH267063   5.772   6.217  16.444 -0.0896 -0.1828 -0.6801
15191TIP3    H167064   5.715   6.140  16.440 -1.0440  0.4260  0.7796
15191TIP3    H267065   5.813   6.221  16.358 -2.6808 -0.3152 -1.9425
15192TIP3   OH267066   4.106   1.975   0.872  0.2932 -0.0271 -0.0193
15192TIP3    H167067   4.195   1.948   0.849  0.0975  0.4051 -1.3363
15192TIP3    H267068   4.078   2.030   0.799 -0.9902 -0.0127  0.4670
15193TIP3   OH267069   1.594   6.310   0.483  0.0127  0.1787 -0.1987
15193TIP3    H167070   1.505   6.284   0.506  0.7791 -1.4793  0.9984
15193TIP3    H267071   1.648   6.281   0.557  1.4166  2.0996 -0.4073
15194TIP3   OH267072   3.750   5.306   6.168 -0.0425 -0.0769 -0.1977
15194TIP3    H167073   3.710   5.243   6.228  0.6864  0.4645  0.8762
15194TIP3    H267074   3.838   5.273   6.154  0.3966  0.7844  0.5005
15195TIP3   OH267075   0.454   1.070  15.595 -0.1202  0.5179 -0.8073
15195TIP3    H167076   0.415   1.077  15.508 -1.8051 -1.9839 -0.3256
15195TIP3    H267077   0.384   1.095  15.655  0.8919  1.7989 -0.1325
15196TIP3   OH267078   6.559   1.526   1.563 -0.1023  0.1392 -0.4444
15196TIP3    H167079   6.492   1.553   1.626  0.2772 -1.1439  0.5420
15196TIP3    H267080   6.578   1.605   1.513 -1.6280  0.7653 -0.0684
15197TIP3   OH267081   2.548   1.437  12.990  0.7150  0.1694 -0.0840
15197TIP3    H167082   2.519   1.346  12.993  0.9232 -0.0115 -2.2598
15197TIP3    H267083   2.642   1.431  12.974  0.9988  0.7744  1.3063
15198TIP3   OH267084   3.276   3.907   4.950  0.0854  0.4215  0.1659
15198TIP3    H167085   3.187   3.940   4.933  0.8221  1.4761 -1.8144
15198TIP3    H267086   3.262   3.826   4.999 -1.9917  0.4302 -0.3403
15199TIP3   OH267087   3.621   0.246  14.232  0.0476  0.0746  0.2986
15199TIP3    H167088   3.703   0.274  14.273  0.3116 -0.4295  0.1185
15199TIP3    H267089   3.606   0.310  14.163  1.1651 -0.7662 -0.7562
15200TIP3   OH267090   1.416   0.764  13.302 -0.0018 -0.5144 -0.2104
15200TIP3    H167091   1.416   0.767  13.207 -0.2769 -0.8546 -0.2211
15200TIP3    H267092   1.343   0.819  13.328  0.0971 -0.3901 -0.1930
15201TIP3   OH267093   4.933   0.260   1.213 -0.2951 -0.1490 -0.6216
15201TIP3    H167094   4.922   0.343   1.167 -0.4299  1.1881  1.7177
15201TIP3    H267095   5.020   0.230   1.189  1.0426  2.2935  0.9563
15202TIP3   OH267096   4.284   0.507  10.968 -0.1230 -0.1909 -0.4808
15202TIP3    H167097   4.347   0.536  10.902 -0.4964 -0.2891 -0.8875
15202TIP3    H267098   4.233   0.585  10.990 -1.7196 -0.6860 -2.2314
15203TIP3   OH267099   4.562   0.317  16.303 -0.3594 -0.3021  0.1279
15203TIP3    H167100   4.523   0.356  16.381 -2.8415  1.6393 -2.0338
15203TIP3    H267101   4.615   0.387  16.265  1.7982 -1.5950  0.6423
15204TIP3   OH267102   2.282   2.004   4.832 -0.6234  0.1121  0.4721
15204TIP3    H167103   2.341   1.950   4.884  0.8254  0.7651 -0.4771
15204TIP3    H267104   2.195   1.970   4.852  0.0521 -0.7297  2.0275
15205TIP3   OH267105   2.703   5.546   4.943  0.2798 -0.2521 -0.4972
15205TIP3    H167106   2.760   5.481   4.902  1.9383  0.3599  0.7992
15205TIP3    H267107   2.671   5.503   5.022  1.0294  0.3499  0.1344
15206TIP3   OH267108   6.529   4.164   2.445  0.8180  0.6992 -0.4830
15206TIP3    H167109   6.593   4.112   2.395 -0.3849 -0.3191 -0.9831
15206TIP3    H267110   6.452   4.108   2.451  0.4719  1.3361  1.3859
15207TIP3   OH267111   4.692   1.538   2.125 -0.5009  0.2390 -0.4330
15207TIP3    H167112   4.687   1.508   2.216 -1.2224 -0.3272 -0.6485
15207TIP3    H267113   4.633   1.479   2.077 -0.7026  0.9971 -1.1394
15208TIP3   OH267114   0.762   0.261   0.551  0.2175 -0.2754 -0.2717
15208TIP3    H167115   0.796   0.178   0.584  1.5624  0.2131 -0.3995
15208TIP3    H267116   0.773   0.255   0.456  2.6134  1.0013 -0.1222
15209TIP3   OH267117   4.837   3.319   5.370  0.0877  0.0452 -0.8001
15209TIP3    H167118   4.809   3.229   5.387  0.1844  0.2579  0.6128
15209TIP3    H267119   4.933   3.314   5.368  0.1525  0.3352  0.7490
15210TIP3   OH267120   6.558   3.330   6.714 -0.3402 -0.4355 -0.1699
15210TIP3    H167121   6.635   3.274   6.706 -0.7469 -1.1223  0.5515
15210TIP3    H267122   6.499   3.280   6.771 -0.7382  0.7010  0.4217
15211TIP3   OH267123   5.576   4.761   4.313 -0.1008 -0.2793  0.0750
15211TIP3    H167124   5.664   4.791   4.290  0.6391 -1.5300  1.2027
15211TIP3    H267125   5.530   4.840   4.340  1.1472  0.1679  0.9171
15212TIP3   OH267126   5.135   6.098   5.378  0.5830  0.4855  0.4100
15212TIP3    H167127   5.155   6.187   5.351 -0.8271  0.7388  0.1514
15212TIP3    H267128   5.180   6.087   5.462 -0.4871  1.9591  1.1925
15213TIP3   OH267129   6.406   5.239   0.875 -0.1358  0.0952  0.0178
15213TIP3    H167130   6.447   5.201   0.953  2.8738  1.0458 -1.0487
15213TIP3    H267131   6.452   5.199   0.801 -0.4205  1.9551 -1.1997
15214TIP3   OH267132   5.744   6.074   0.077  0.1834  0.0716 -0.8285
15214TIP3    H167133   5.690   6.153   0.082  1.9231  1.3237 -1.5323
15214TIP3    H267134   5.691   6.012   0.026 -1.4029  0.5738  0.1536
15215TIP3   OH267135   2.409   4.432   0.291 -0.2261 -0.3947 -0.6609
15215TIP3    H167136   2.421   4.337   0.294  1.1739 -0.1895  1.1443
15215TIP3    H267137   2.321   4.444   0.255 -0.9433 -2.4193  0.3302
15216TIP3   OH267138   1.728   1.631  15.318  0.5340  0.6000  0.1281
15216TIP3    H167139   1.775   1.647  15.236  0.8678 -0.4134  0.1203
15216TIP3    H267140   1.664   1.703  15.323 -0.5014 -0.1570 -1.7700
15217TIP3   OH267141   0.754   5.385   2.548  0.2314  0.8443 -0.5383
15217TIP3    H167142   0.726   5.330   2.621 -0.8516 -0.6295 -2.0343
15217TIP3    H267143   0.820   5.443   2.586  1.8066 -1.8441  0.9608
15218TIP3   OH267144   1.668   5.249   6.791 -0.1011  0.2424  0.0358
15218TIP3    H167145   1.606   5.181   6.766 -0.0164  0.4489 -0.7754
15218TIP3    H267146   1.619   5.331   6.782 -0.0493  0.3239  0.4967
15219TIP3   OH267147   5.883   0.355   0.445 -0.3222 -0.3788  0.7237
15219TIP3    H167148   5.890   0.321   0.356  2.0815 -0.7022  1.0262
15219TIP3    H267149   5.969   0.392   0.464 -0.6885 -0.6389  3.0484
15220TIP3   OH267150   2.067   3.231   4.215 -0.2312  0.0200  0.6004
15220TIP3    H167151   2.088   3.230   4.308  0.7552  0.0111  0.3850
15220TIP3    H267152   2.015   3.310   4.203  0.4771  0.5497  0.9869
15221TIP3   OH267153   3.113   5.458  14.775 -0.0584  0.5411  0.1486
15221TIP3    H167154   3.139   5.391  14.839  0.8348 -0.2297 -1.0146
15221TIP3    H267155   3.060   5.411  14.711  2.4396  0.4538 -1.9222
15222TIP3   OH267156   0.658   0.491  17.103 -0.0657  0.3278 -0.3617
15222TIP3    H167157   0.647   0.492  17.008 -0.1165 -1.9503 -0.4251
15222TIP3    H267158   0.616   0.409  17.131  1.2470  0.2280  1.4374
15223TIP3   OH267159   1.612   5.144  12.093  0.0412 -0.6532  0.0491
15223TIP3    H167160   1.578   5.054  12.094 -1.7764  0.0065 -0.0947
15223TIP3    H267161   1.587   5.178  12.007 -1.5394  0.8069  1.0450
15224TIP3   OH267162   3.742   2.109  13.521  0.4447  0.3842  0.1762
15224TIP3    H167163   3.662   2.127  13.570  0.8584  2.6812  0.0503
15224TIP3    H267164   3.811   2.110  13.588  0.5607 -0.0695  0.0636
15225TIP3   OH267165   6.586   2.677   2.012 -0.2708  0.0122  0.3345
15225TIP3    H167166   6.616   2.768   2.003  0.0759 -0.0287  1.0172
15225TIP3    H267167   6.493   2.684   2.031 -0.4511  0.1881 -0.5912
15226TIP3   OH267168   6.191   3.902   3.198 -0.4515 -0.2484 -0.1147
15226TIP3    H167169   6.164   3.816   3.165 -0.1216 -0.4228  0.0602
15226TIP3    H267170   6.224   3.949   3.121 -2.7109  0.5551 -0.6292
15227TIP3   OH267171   1.312   4.888   3.813 -0.3380 -0.6861  0.3510
15227TIP3    H167172   1.253   4.831   3.863  0.5327 -0.2581  1.9105
15227TIP3    H267173   1.400   4.856   3.834 -0.0106 -1.7040 -2.4346
15228TIP3   OH267174   3.333   0.391   4.385 -0.3041 -0.0312 -0.0905
15228TIP3    H167175   3.316   0.422   4.474  0.3260 -2.0477  0.7510
15228TIP3    H267176   3.304   0.300   4.385 -0.5869  0.0415 -2.0504
15229TIP3   OH267177   6.207   6.748   5.646 -0.1306 -0.2593 -0.2801
15229TIP3    H167178   6.179   6.840   5.641 -0.4676 -0.4152 -1.4840
15229TIP3    H267179   6.252   6.741   5.730  0.9392  1.3097 -0.7108
15230TIP3   OH267180   3.245   6.649   4.607  1.0607  0.3990  0.0798
15230TIP3    H167181   3.318   6.687   4.656  1.9506 -0.9724 -0.1449
15230TIP3    H267182   3.282   6.630   4.520  0.1054  0.7925 -0.4208
15231TIP3   OH267183   6.542   1.977   4.041  0.0499 -0.2742 -0.0989
15231TIP3    H167184   6.467   2.018   4.084 -0.3321 -0.0122 -1.0034
15231TIP3    H267185   6.544   1.888   4.076  0.5030  0.3099  1.3972
15232TIP3   OH267186   1.501   4.907  11.958  0.0247 -0.2551 -0.1741
15232TIP3    H167187   1.463   4.922  12.045  1.7930 -0.5626  0.6733
15232TIP3    H267188   1.513   4.812  11.953  1.9920 -0.0589  0.1804
15233TIP3   OH267189   6.375   3.234   4.487 -0.0133  0.2963 -0.8738
15233TIP3    H167190   6.443   3.173   4.457  1.5750  2.2599 -1.3326
15233TIP3    H267191   6.367   3.297   4.416 -0.9463  1.2143  0.0347
15234TIP3   OH267192   2.371   4.572   5.703  0.2908 -0.2470  0.0634
15234TIP3    H167193   2.351   4.511   5.774  0.7791 -1.9402 -1.2504
15234TIP3    H267194   2.433   4.634   5.742  0.1415 -0.8435  1.2736
15235TIP3   OH267195   5.352   3.502   4.907 -0.4295 -0.4390 -0.2740
15235TIP3    H167196   5.382   3.510   4.816  0.7979 -3.1951 -0.1543
15235TIP3    H267197   5.427   3.529   4.960 -0.4815 -0.6911 -0.0675
15236TIP3   OH267198   0.471   5.810  15.727  0.0004 -0.6571  0.0824
15236TIP3    H167199   0.497   5.820  15.819  0.3688 -0.1526 -0.0726
15236TIP3    H267200   0.549   5.779  15.683  0.1114  0.0513 -0.2339
15237TIP3   OH267201   0.555   6.435  14.694 -0.1727 -0.7673 -0.3174
15237TIP3    H167202   0.581   6.356  14.646  0.5411 -1.3803  1.0557
15237TIP3    H267203   0.539   6.405  14.783 -0.1957  0.5877  0.1505
15238TIP3   OH267204   2.993   5.352   4.483  0.0286  0.2191 -0.1382
15238TIP3    H167205   3.062   5.352   4.416  0.6059  0.3668  0.4541
15238TIP3    H267206   3.028   5.405   4.554 -0.0624 -0.9568  0.8082
15239TIP3   OH267207   6.094   3.663  14.292  0.2429  0.4153 -0.1737
15239TIP3    H167208   6.143   3.670  14.375 -0.3239  2.0850  0.0283
15239TIP3    H267209   6.127   3.582  14.252  1.6785  0.4263  0.9321
15240TIP3   OH267210   5.411   6.067  16.282 -0.2688 -0.5648 -0.3429
15240TIP3    H167211   5.426   5.995  16.343 -2.6480 -1.7541 -1.1376
15240TIP3    H267212   5.470   6.050  16.209  1.0851 -0.2469  0.6529
15241TIP3   OH267213   5.711   0.597   3.731 -0.3290  0.3250  0.0135
15241TIP3    H167214   5.639   0.611   3.793 -1.7887 -0.8770 -1.3712
15241TIP3    H267215   5.741   0.508   3.748  1.3875  1.0724  1.0991
15242TIP3   OH267216   3.343   1.899   4.699  0.1669 -0.1425 -0.6321
15242TIP3    H167217   3.430   1.936   4.714  0.0682 -0.1191 -0.1096
15242TIP3    H267218   3.311   1.877   4.786 -0.9543  1.2159 -0.7011
15243TIP3   OH267219   1.786   6.288  14.462 -0.1579 -0.6291  0.0383
15243TIP3    H167220   1.695   6.316  14.466 -0.2752 -1.1145  0.9690
15243TIP3    H267221   1.830   6.355  14.411 -1.0657 -0.4580 -0.5182
15244TIP3   OH267222   6.021   4.581   4.222  0.1704 -0.5682 -0.1891
15244TIP3    H167223   5.928   4.578   4.198 -0.1494  2.1659  0.5417
15244TIP3    H267224   6.021   4.581   4.318  1.0308 -2.2555 -0.1662
15245TIP3   OH267225   0.830   5.973  15.937 -0.3181  0.3062  0.1125
15245TIP3    H167226   0.839   5.993  16.030  2.6327  0.4093 -0.1198
15245TIP3    H267227   0.740   5.943  15.927 -1.3500  2.3455  2.5883
15246TIP3   OH267228   2.390   1.545  10.398 -0.3022  0.5603 -0.6533
15246TIP3    H167229   2.334   1.490  10.343  0.2507 -0.1575 -0.5107
15246TIP3    H267230   2.479   1.528  10.366 -0.0828  1.0131 -0.2918
15247TIP3   OH267231   2.820   2.878   3.945  0.0884 -0.0828  0.5774
15247TIP3    H167232   2.767   2.798   3.942  2.0061 -1.4516  1.6176
15247TIP3    H267233   2.865   2.880   3.860 -2.7733  1.9491 -0.9597
15248TIP3   OH267234   2.244   5.104   5.934 -0.0381  0.0094  0.4319
15248TIP3    H167235   2.206   5.028   5.891 -0.1764  0.8941 -1.0446
15248TIP3    H267236   2.329   5.073   5.967 -0.4524 -0.9918  0.5828
15249TIP3   OH267237   4.114   2.877  14.786  0.1558 -0.6111 -0.0607
15249TIP3    H167238   4.061   2.809  14.745  0.9608 -1.1906 -0.1475
15249TIP3    H267239   4.094   2.870  14.880 -1.0649  0.1785 -0.2366
15250TIP3   OH267240   1.889   3.054   3.614 -0.1494  0.0132 -0.0991
15250TIP3    H167241   1.882   3.132   3.558  2.2705  0.1137 -0.3484
15250TIP3    H267242   1.843   3.078   3.694  0.4481  1.6865 -0.2218
15251TIP3   OH267243   3.422   0.146   2.337 -0.2667 -0.1926 -0.1563
15251TIP3    H167244   3.335   0.182   2.355 -0.1289 -0.0421  0.2252
15251TIP3    H267245   3.471   0.219   2.298 -0.2626 -0.2297 -0.2205
15252TIP3   OH267246   5.674   3.681  13.835  0.0822 -0.2097  0.0479
15252TIP3    H167247   5.724   3.609  13.797 -1.1572 -2.1473  1.9160
15252TIP3    H267248   5.730   3.758  13.825  0.9454 -1.1949 -3.0373
15253TIP3   OH267249   3.099   2.291   2.359 -0.1738  0.1622 -0.8884
15253TIP3    H167250   3.175   2.236   2.376  0.4995  1.3346  0.0094
15253TIP3    H267251   3.074   2.325   2.445  0.5020  2.5995 -1.5938
15254TIP3   OH267252   3.705   4.207  14.509  0.1989  0.0236 -0.1136
15254TIP3    H167253   3.616   4.203  14.476  0.1044 -0.5640  0.1979
15254TIP3    H267254   3.758   4.232  14.434 -0.0589 -0.9278 -0.6220
15255TIP3   OH267255   5.957   1.261   2.143 -0.7240 -0.3381 -0.0544
15255TIP3    H167256   6.015   1.290   2.072 -0.5583  2.1330  1.0508
15255TIP3    H267257   5.869   1.282   2.113 -0.8242 -1.2529 -0.4175
15256TIP3   OH267258   0.802   6.707  17.112 -0.5114 -0.2111 -0.4242
15256TIP3    H167259   0.853   6.642  17.161 -1.3978 -2.0041 -1.7858
15256TIP3    H267260   0.728   6.727  17.169  0.8218  1.1747  0.8632
15257TIP3   OH267261   5.164   0.004  15.087 -0.8161 -0.5114  0.5921
15257TIP3    H167262   5.151   0.063  15.014 -0.7405 -0.3741  0.6890
15257TIP3    H267263   5.252  -0.032  15.073 -0.7509 -0.3864  0.6869
15258TIP3   OH267264   4.130   6.422   3.530  0.5362  0.1428 -0.0406
15258TIP3    H167265   4.153   6.455   3.617  3.6522  0.3392 -0.9055
15258TIP3    H267266   4.084   6.495   3.488  1.3091  0.9500  0.5167
15259TIP3   OH267267   3.442   3.755  16.824 -0.4334  0.1822 -0.2481
15259TIP3    H167268   3.501   3.829  16.812  0.4716 -0.3789  0.7178
15259TIP3    H267269   3.445   3.708  16.740  0.6234  0.0614 -0.1460
15260TIP3   OH267270   1.187   5.405  11.505  0.7123 -0.0685  0.1796
15260TIP3    H167271   1.260   5.343  11.507  0.9674  0.2724  1.3358
15260TIP3    H267272   1.114   5.354  11.469  1.3615 -0.5605 -0.4604
15261TIP3   OH267273   0.052   1.054  16.924 -0.1352 -0.2599  0.9266
15261TIP3    H167274   0.088   1.132  16.882 -0.9668  0.4211  1.4629
15261TIP3    H267275   0.104   1.042  17.003 -0.3090  0.0248  1.0836
15262TIP3   OH267276   5.015   1.000   3.122 -0.4152 -0.0469 -0.1298
15262TIP3    H167277   4.971   0.941   3.183 -0.4152  0.4338  0.3379
15262TIP3    H267278   4.967   0.989   3.040 -0.9896 -0.0265  0.1993
15263TIP3   OH267279   3.839   2.074   4.492 -0.0083  0.5236 -0.5578
15263TIP3    H167280   3.867   2.141   4.554  0.9403  0.7961 -1.2745
15263TIP3    H267281   3.826   1.996   4.546  0.2420  0.9101  0.0712
15264TIP3   OH267282   4.096   5.739  17.057  0.0898  0.6787 -0.6028
15264TIP3    H167283   4.123   5.683  17.129 -0.5919 -0.3672 -1.1547
15264TIP3    H267284   4.177   5.772  17.020  0.4274  3.5965  2.4623
15265TIP3   OH267285   3.039   6.543   1.952  0.0897  0.0499 -0.1083
15265TIP3    H167286   2.944   6.536   1.944  0.0166  0.1551  0.6307
15265TIP3    H267287   3.052   6.617   2.011  0.6657  1.0273 -1.4588
15266TIP3   OH267288   5.965   0.363   3.401  0.1021 -0.6696  0.4800
15266TIP3    H167289   5.891   0.424   3.405  0.3518 -0.4300  2.0749
15266TIP3    H267290   5.990   0.360   3.309  0.8754  2.5955  0.5373
15267TIP3   OH267291   2.083   6.709  14.410 -0.4228 -0.8563 -0.6134
15267TIP3    H167292   2.175   6.689  14.392 -0.1487 -0.8248  0.6891
15267TIP3    H267293   2.039   6.624  14.408 -0.6177 -0.7336 -2.5454
15268TIP3   OH267294   2.406   2.238   4.939 -0.2799 -0.6420  0.2393
15268TIP3    H167295   2.372   2.269   5.022 -0.1546  1.2599 -0.3871
15268TIP3    H267296   2.334   2.189   4.900 -0.2034 -1.8894  1.6204
15269TIP3   OH267297   1.389   1.741  12.577 -0.1553  0.0196 -0.0346
15269TIP3    H167298   1.304   1.739  12.619  0.0836  0.5486  0.4715
15269TIP3    H267299   1.407   1.650  12.555  0.2940 -0.4255  2.1437
15270TIP3   OH267300   0.485   2.169  13.317  0.4930 -0.5833 -0.4949
15270TIP3    H167301   0.482   2.197  13.408  0.8256  1.8013 -1.1830
15270TIP3    H267302   0.395   2.143  13.296  0.1643  0.0149  0.1655
15271TIP3   OH267303   4.043   0.116  14.414  0.2162 -0.5539  0.2029
15271TIP3    H167304   4.022   0.107  14.321 -0.9544  1.2568  0.2715
15271TIP3    H267305   3.964   0.153  14.453  2.4147  3.5763  1.0098
15272TIP3   OH267306   1.392   5.762   5.457  0.3573  0.1730  0.0801
15272TIP3    H167307   1.405   5.795   5.368 -2.7053  1.7702  0.1653
15272TIP3    H267308   1.382   5.667   5.446 -2.2491  0.5978 -1.5931
15273TIP3   OH267309   1.587   0.228  12.914  0.6734  0.1023  0.2085
15273TIP3    H167310   1.555   0.230  12.824  0.9429 -2.0186  0.0418
15273TIP3    H267311   1.518   0.270  12.965  0.0900  0.4645 -0.8541
15274TIP3   OH267312   1.429   2.544   1.996  0.0299 -0.1618 -0.0239
15274TIP3    H167313   1.396   2.603   2.064 -1.8555 -0.5248 -0.6031
15274TIP3    H267314   1.351   2.512   1.952  1.1425 -1.4880 -1.0770
15275TIP3   OH267315   5.726   5.134  13.271  0.3041 -0.4993 -1.5554
15275TIP3    H167316   5.794   5.078  13.308 -0.6449 -1.6981 -1.5712
15275TIP3    H267317   5.768   5.219  13.259  0.3553  0.3350  3.4368
15276TIP3   OH267318   1.236   1.145  13.196 -0.6545  0.0073 -0.6299
15276TIP3    H167319   1.209   1.215  13.256  0.7847  1.1881 -1.3291
15276TIP3    H267320   1.320   1.174  13.162  0.1899 -2.3187 -0.5759
15277TIP3   OH267321   6.792   2.742  13.946  0.1236  0.2499  0.1056
15277TIP3    H167322   6.820   2.698  13.865 -3.5712  0.0377 -1.1501
15277TIP3    H267323   6.769   2.831  13.918 -3.2368 -0.4388  0.3905
15278TIP3   OH267324   3.553   2.909  11.433 -0.0096 -0.3664  0.2600
15278TIP3    H167325   3.516   2.964  11.503 -2.0281  0.7090 -1.5748
15278TIP3    H267326   3.591   2.972  11.371  0.6405 -1.2439 -0.2371
15279TIP3   OH267327   0.527   2.348   3.513 -0.4932  0.4803  0.5041
15279TIP3    H167328   0.560   2.378   3.598 -0.4263 -0.2057  0.7167
15279TIP3    H267329   0.478   2.423   3.480 -1.1311  0.5005  1.4730
15280TIP3   OH267330   2.207   6.565  14.977  0.1667  0.0292  0.0393
15280TIP3    H167331   2.150   6.640  14.959  0.2332 -0.0018 -0.3127
15280TIP3    H267332   2.178   6.533  15.062  0.7028  0.9614  0.5721
15281TIP3   OH267333   5.116   6.761   3.011 -0.1097 -0.2244  0.4988
15281TIP3    H167334   5.069   6.679   3.030 -0.5611 -0.4122 -1.2842
15281TIP3    H267335   5.079   6.790   2.928 -1.1247  2.6787  1.8995
15282TIP3   OH267336   1.155   1.467  14.004 -0.0849 -0.3842  0.2302
15282TIP3    H167337   1.124   1.441  13.918 -2.4669  1.4781  0.4743
15282TIP3    H267338   1.198   1.552  13.989 -0.1537 -0.2439  0.8083
15283TIP3   OH267339   5.786   2.492   3.337  0.4447 -0.0695 -0.4911
15283TIP3    H167340   5.834   2.444   3.405  1.2190  2.7646  1.0591
15283TIP3    H267341   5.732   2.554   3.386 -0.3687  0.7772 -2.4306
15284TIP3   OH267342   4.141   5.610   2.486 -0.2183 -0.1716  0.2013
15284TIP3    H167343   4.226   5.629   2.526 -0.1397 -0.2592  0.0780
15284TIP3    H267344   4.156   5.621   2.392  0.2362 -2.3071 -0.0101
15285TIP3   OH267345   3.750   2.590  11.419 -0.0983  0.3675  0.6062
15285TIP3    H167346   3.841   2.560  11.427 -0.2596 -0.0785  0.7254
15285TIP3    H267347   3.735   2.640  11.499  0.2880  1.0909  0.2366
15286TIP3   OH267348   5.325   2.319   0.364 -0.1940  0.4102  0.5507
15286TIP3    H167349   5.365   2.232   0.357 -0.4061  0.3373  0.2307
15286TIP3    H267350   5.400   2.379   0.366 -0.0554  0.2475  0.3460
15287TIP3   OH267351   5.709   1.354  12.241  0.1706 -0.3097 -0.3070
15287TIP3    H167352   5.651   1.282  12.216 -1.7112  0.5385  1.4530
15287TIP3    H267353   5.751   1.324  12.321 -0.6315  0.5364  0.4398
15288TIP3   OH267354   5.236   5.912  16.072 -0.1917 -0.0130 -0.2176
15288TIP3    H167355   5.250   5.938  16.163  1.1189 -1.4224  0.0057
15288TIP3    H267356   5.228   5.995  16.024 -0.4802  0.7393  1.0978
15289TIP3   OH267357   0.017   3.110  16.024  0.1214  0.0307 -0.4891
15289TIP3    H167358   0.016   3.169  16.100  0.0763 -1.1370  0.4349
15289TIP3    H267359   0.033   3.167  15.949 -0.0680  1.2329  0.3747
15290TIP3   OH267360   1.449   1.906   4.661  0.1781  0.0216  0.0226
15290TIP3    H167361   1.400   1.970   4.713  0.7732  0.3793  0.1431
15290TIP3    H267362   1.409   1.910   4.574 -0.7099 -0.4563  0.4054
15291TIP3   OH267363   5.173   2.411  11.772 -0.0203  0.6393 -0.6388
15291TIP3    H167364   5.170   2.395  11.866  1.8708 -4.1474 -1.2671
15291TIP3    H267365   5.089   2.452  11.752 -0.7817  1.0106  2.9816
15292TIP3   OH267366   3.794   2.450  16.065 -0.0561  0.5841  0.0913
15292TIP3    H167367   3.720   2.437  16.123 -1.2880  1.1755 -1.3229
15292TIP3    H267368   3.859   2.386  16.095 -1.9314 -1.4343 -0.0020
15293TIP3   OH267369   3.199   1.107  11.957 -0.2602  1.1388  0.2042
15293TIP3    H167370   3.178   1.115  12.050 -2.0320  0.1525 -0.0763
15293TIP3    H267371   3.121   1.142  11.912  0.6355  1.7434 -0.9161
15294TIP3   OH267372   4.019   4.909  11.943  0.2475  0.0755 -0.0813
15294TIP3    H167373   4.092   4.960  11.978 -0.4050  1.5729 -0.8551
15294TIP3    H267374   3.943   4.939  11.992  0.3102 -2.2931  1.5055
15295TIP3   OH267375   5.351   1.222  12.450  0.2999  0.6576 -0.4698
15295TIP3    H167376   5.264   1.212  12.411  0.3083  0.3461 -0.4024
15295TIP3    H267377   5.390   1.135  12.446  0.4188  0.6915 -0.0322
15296TIP3   OH267378   6.249   2.448   5.327 -0.9232 -0.0033  0.1078
15296TIP3    H167379   6.259   2.541   5.306  0.5245 -0.3631 -0.8279
15296TIP3    H267380   6.273   2.441   5.419 -1.1244  0.5563  0.2045
15297TIP3   OH267381   4.891   5.849   0.977  0.5748  0.1766  0.5051
15297TIP3    H167382   4.924   5.800   1.052  0.5339  0.4032  0.6706
15297TIP3    H267383   4.922   5.938   0.990  0.5059  0.2341  0.2908
15298TIP3   OH267384   1.157   1.911   1.992  0.0951 -0.1639  0.3330
15298TIP3    H167385   1.083   1.867   2.033  0.6327 -1.2317  0.1808
15298TIP3    H267386   1.234   1.866   2.027  0.6120  0.0064 -0.5755
15299TIP3   OH267387   3.289   1.145   2.504  0.1323  0.3903 -0.6616
15299TIP3    H167388   3.379   1.113   2.504 -0.5289 -1.5949 -0.3098
15299TIP3    H267389   3.268   1.158   2.412  0.3987 -0.3467 -0.8328
15300TIP3   OH267390   4.134   0.041   5.638 -0.2112 -0.3102 -0.9493
15300TIP3    H167391   4.139   0.097   5.561 -1.7802  0.5755 -0.4093
15300TIP3    H267392   4.215   0.059   5.686 -0.1595  0.6194 -1.3782
15301TIP3   OH267393   5.943   1.596   1.160  0.1195  0.3112 -0.3246
15301TIP3    H167394   5.954   1.607   1.065  0.0828 -0.5813 -0.4349
15301TIP3    H267395   5.855   1.562   1.170  0.1284  0.3906  0.0344
15302TIP3   OH267396   3.973   1.608  12.333  0.3626  0.3972  0.3523
15302TIP3    H167397   4.059   1.629  12.296  0.2000  2.0934  0.8776
15302TIP3    H267398   3.926   1.692  12.333 -1.3436 -0.5313 -0.0318
15303TIP3   OH267399   0.348   3.691  14.277 -0.4735 -0.4417  0.1891
15303TIP3    H167400   0.407   3.724  14.210  1.5013 -0.5728  1.8127
15303TIP3    H267401   0.401   3.629  14.327 -1.3636  0.8944  2.8999
15304TIP3   OH267402   2.328   1.953  13.172  0.3118  0.0211  0.3923
15304TIP3    H167403   2.271   1.879  13.152  0.2429  0.1622  0.0511
15304TIP3    H267404   2.302   2.020  13.108 -0.2646  0.6650  1.2869
15305TIP3   OH267405   1.559   6.513   1.635 -0.6524 -0.2008  0.0147
15305TIP3    H167406   1.501   6.581   1.602 -0.7828  0.9426  2.5208
15305TIP3    H267407   1.647   6.544   1.613 -0.7755  0.1692  0.0354
15306TIP3   OH267408   2.981   4.242   6.062 -0.3865  0.3056 -1.1738
15306TIP3    H167409   2.980   4.322   6.113 -2.7294  0.2902 -1.1517
15306TIP3    H267410   3.063   4.246   6.012  0.4887  1.7146  0.3328
15307TIP3   OH267411   4.937   1.306   5.572  0.6360 -0.1548 -0.3486
15307TIP3    H167412   5.007   1.243   5.554 -2.1820 -3.2458 -1.0661
15307TIP3    H267413   4.884   1.264   5.640  0.6829  3.1165  1.8225
15308TIP3   OH267414   4.472   0.772   5.954 -0.4680  0.0656 -1.3161
15308TIP3    H167415   4.420   0.849   5.977 -0.5987  0.0367 -1.5093
15308TIP3    H267416   4.516   0.797   5.872  0.1611  0.2472 -0.9323
15309TIP3   OH267417   2.975   1.275  11.829  0.7364  0.0899  0.7095
15309TIP3    H167418   2.907   1.258  11.895  0.1849  0.2707  0.1922
15309TIP3    H267419   2.954   1.214  11.758  0.9770  0.3124  0.4497
15310TIP3   OH267420   2.645   1.203   1.908 -0.6461 -0.3361  0.4232
15310TIP3    H167421   2.603   1.117   1.901  1.0230 -1.0555 -1.1085
15310TIP3    H267422   2.735   1.188   1.881 -0.2117  1.8155  0.6044
15311TIP3   OH267423   5.154   2.105   5.714  0.3536 -0.0600  0.5918
15311TIP3    H167424   5.226   2.066   5.764 -0.7921 -1.8678  0.8679
15311TIP3    H267425   5.187   2.109   5.624  0.5378 -1.5456  0.5885
15312TIP3   OH267426   5.864   1.001   5.977 -0.1574  0.5563  0.1368
15312TIP3    H167427   5.788   1.001   6.035  0.3656  0.7076  0.8316
15312TIP3    H267428   5.939   1.014   6.035  0.7148 -2.7833 -0.1497
15313TIP3   OH267429   2.460   4.036  10.863  0.4906 -0.2193 -0.4823
15313TIP3    H167430   2.419   4.048  10.777  0.1692 -1.4389 -0.5125
15313TIP3    H267431   2.396   3.986  10.913 -0.1159  2.0615  1.1005
15314TIP3   OH267432   3.527   2.316   2.341 -0.2256 -0.4692  0.0421
15314TIP3    H167433   3.571   2.375   2.280 -1.6778  0.3087 -0.2562
15314TIP3    H267434   3.531   2.230   2.298  0.6314 -0.3336 -0.1623
15315TIP3   OH267435   2.770   0.527  15.310  0.2987  0.3640  0.0842
15315TIP3    H167436   2.827   0.452  15.290  1.1756  1.2491 -0.8075
15315TIP3    H267437   2.831   0.598  15.332 -0.5579  0.5715  1.8167
15316TIP3   OH267438   2.145   6.756   5.664 -0.9413  0.2264 -0.4673
15316TIP3    H167439   2.114   6.701   5.736 -1.8950  0.9629 -0.3133
15316TIP3    H267440   2.068   6.804   5.636 -0.6227 -0.2202 -2.1450
15317TIP3   OH267441   1.437   5.191  11.223 -0.0350 -0.3555  0.1464
15317TIP3    H167442   1.358   5.138  11.235 -0.0883  0.1743  2.2027
15317TIP3    H267443   1.477   5.196  11.309  2.6678 -1.2093 -0.9880
15318TIP3   OH267444   4.780   2.158  14.750  0.0095  0.3403  0.3457
15318TIP3    H167445   4.876   2.164  14.757  0.2508 -0.3309 -2.0484
15318TIP3    H267446   4.752   2.247  14.729  0.5785 -0.3105 -3.4637
15319TIP3   OH267447   0.222   2.543  10.887 -0.1700  0.1137 -0.3690
15319TIP3    H167448   0.193   2.483  10.818  0.2161  1.0687 -1.3735
15319TIP3    H267449   0.317   2.528  10.894 -0.4429 -1.0806  1.0405
15320TIP3   OH267450   1.582   4.673  12.964  0.1937 -0.4484 -0.2620
15320TIP3    H167451   1.630   4.731  13.023  1.7156 -1.3358 -0.6090
15320TIP3    H267452   1.511   4.638  13.018  0.1262  0.6219  0.3492
15321TIP3   OH267453   5.610   0.238   4.476  0.0180  0.0135  0.4276
15321TIP3    H167454   5.578   0.233   4.566 -0.3783  0.2492  0.3027
15321TIP3    H267455   5.556   0.174   4.428 -0.4025  0.5503  0.1768
15322TIP3   OH267456   0.300   6.495   4.017 -0.0420  0.1951 -0.1041
15322TIP3    H167457   0.255   6.433   4.075  1.8449 -0.9791  0.1633
15322TIP3    H267458   0.349   6.552   4.077  1.7761 -0.9127 -0.4958
15323TIP3   OH267459   4.424   1.598  14.579  0.0091  0.6397 -0.3524
15323TIP3    H167460   4.453   1.684  14.607 -1.9830  1.6034 -1.1679
15323TIP3    H267461   4.432   1.599  14.484 -1.9187  0.6718 -0.5364
15324TIP3   OH267462   0.689   1.400   1.721 -0.3128  0.6298  0.1701
15324TIP3    H167463   0.774   1.370   1.689  0.7837  2.6039  1.0808
15324TIP3    H267464   0.637   1.321   1.733  2.0444 -0.7711  1.3940
15325TIP3   OH267465   4.770   1.822  11.666 -0.4373 -0.0200 -0.3982
15325TIP3    H167466   4.849   1.772  11.686 -1.0916 -1.0309 -0.2944
15325TIP3    H267467   4.801   1.912  11.653  0.6017 -0.2336  0.5461
15326TIP3   OH267468   2.650   2.801  15.894  0.2634 -0.3477 -0.5117
15326TIP3    H167469   2.682   2.827  15.980  0.6751 -1.7645 -0.2220
15326TIP3    H267470   2.561   2.768  15.911  0.3080 -0.5351 -0.6432
15327TIP3   OH267471   3.569   1.096  12.950  0.0433 -0.1560 -0.5641
15327TIP3    H167472   3.661   1.109  12.974 -0.3537  0.5455  0.6522
15327TIP3    H267473   3.568   1.098  12.855  1.0838  1.3797 -0.5618
15328TIP3   OH267474   4.073   0.803  11.882  0.3446 -0.0455  0.4746
15328TIP3    H167475   4.008   0.745  11.841  0.1687  0.1388  0.4962
15328TIP3    H267476   4.133   0.743  11.926  2.2127 -0.4268 -2.4660
15329TIP3   OH267477   5.998   2.812   2.839 -0.1036  0.2416 -0.3244
15329TIP3    H167478   6.029   2.795   2.928 -0.3767 -0.9358 -0.4467
15329TIP3    H267479   6.069   2.863   2.799  0.1134  0.6020  0.4919
15330TIP3   OH267480   4.125   6.674   5.136 -0.3788 -0.5259 -0.2003
15330TIP3    H167481   4.178   6.608   5.092 -0.5349 -0.3859 -0.6099
15330TIP3    H267482   4.079   6.718   5.064 -1.9957 -1.4719  0.2344
15331TIP3   OH267483   2.955   1.576  12.047 -0.0314 -0.1550  0.6342
15331TIP3    H167484   3.045   1.599  12.069 -0.2098 -2.2927  3.9803
15331TIP3    H267485   2.949   1.591  11.952  3.2266  1.8840  0.6767
15332TIP3   OH267486   1.110   5.750  15.835  0.4412 -0.2519 -0.2856
15332TIP3    H167487   1.070   5.665  15.855  0.9560 -0.6603 -0.9977
15332TIP3    H267488   1.124   5.791  15.921  0.5965 -1.0672  0.0754
15333TIP3   OH267489   3.219   2.531  16.135 -0.0690 -0.3288 -0.0307
15333TIP3    H167490   3.287   2.496  16.077  0.8282  1.9234 -0.4117
15333TIP3    H267491   3.138   2.525  16.084  0.3879 -0.1409 -0.7872
15334TIP3   OH267492   3.656   4.670   4.024 -0.2062  0.3558 -0.2299
15334TIP3    H167493   3.596   4.680   3.949  1.5590 -0.7896 -1.8427
15334TIP3    H267494   3.602   4.629   4.092 -1.3678 -0.2928 -1.5092
15335TIP3   OH267495   4.522   2.332   0.860 -0.4974  0.5004  0.0611
15335TIP3    H167496   4.468   2.314   0.937 -1.1404  1.3524 -0.1781
15335TIP3    H267497   4.606   2.360   0.895 -0.1228 -1.0696  0.4381
15336TIP3   OH267498   3.894   6.245   0.630 -0.3301  0.3322 -0.8297
15336TIP3    H167499   3.852   6.331   0.627  1.1508  1.0737 -0.9934
15336TIP3    H267500   3.951   6.248   0.707 -0.0283 -0.3884 -1.0127
15337TIP3   OH267501   0.753   3.212   3.873  0.2357  0.0346  0.2144
15337TIP3    H167502   0.753   3.284   3.810 -0.5811 -0.5081 -0.4139
15337TIP3    H267503   0.706   3.141   3.829  1.9186 -1.2436  0.4217
15338TIP3   OH267504   0.774   6.019   1.242  0.2480 -0.0854  0.7230
15338TIP3    H167505   0.843   6.072   1.201 -1.4372  1.3600 -0.3217
15338TIP3    H267506   0.794   6.023   1.335  1.6414  0.2308  0.4328
15339TIP3   OH267507   2.381   2.704  11.916 -0.0156 -0.0091 -0.4813
15339TIP3    H167508   2.418   2.749  11.841  1.2171  0.6622  0.4979
15339TIP3    H267509   2.312   2.648  11.880  0.0147  0.9094 -1.9873
15340TIP3   OH267510   4.602   0.814  14.738 -0.0988  0.0981  0.3178
15340TIP3    H167511   4.513   0.807  14.704  0.6184 -0.5650 -1.4629
15340TIP3    H267512   4.657   0.824  14.661  1.2115  2.3555  1.4991
15341TIP3   OH267513   6.188   6.553  15.907 -0.8346 -0.1844 -0.4139
15341TIP3    H167514   6.169   6.582  15.818 -0.4646  1.3240 -0.0050
15341TIP3    H267515   6.102   6.545  15.949 -0.9094  0.8899 -0.3567
15342TIP3   OH267516   3.429   0.688  11.490  0.6269 -0.5025 -0.2796
15342TIP3    H167517   3.524   0.675  11.478  0.5665 -0.6621 -0.6115
15342TIP3    H267518   3.391   0.654  11.409  0.2774 -0.5256 -0.1037
15343TIP3   OH267519   0.549   3.369   5.845  0.8056 -0.5217  0.0487
15343TIP3    H167520   0.644   3.356   5.837  0.3936 -2.5824 -1.8531
15343TIP3    H267521   0.521   3.303   5.907  0.4754 -0.5684 -0.1521
15344TIP3   OH267522   5.202   4.154  16.152 -0.2035 -0.0164  0.4465
15344TIP3    H167523   5.242   4.204  16.223  1.7086  2.7743 -2.4591
15344TIP3    H267524   5.126   4.206  16.125  0.0994 -0.1480 -0.6876
15345TIP3   OH267525   5.107   3.041   6.655  0.8152  0.4132 -0.0958
15345TIP3    H167526   5.198   3.014   6.663  0.4550 -1.1214 -1.0050
15345TIP3    H267527   5.058   2.979   6.708  0.2819  1.1781  0.3231
15346TIP3   OH267528   4.469   2.780  17.180  0.2582  1.0253  0.1278
15346TIP3    H167529   4.484   2.716  17.111  1.5177 -0.4336  1.7101
15346TIP3    H267530   4.538   2.846  17.167 -0.3719  1.5127 -0.8330
15347TIP3   OH267531   5.665   1.086  11.755 -0.2064  0.6788 -0.2643
15347TIP3    H167532   5.671   1.136  11.674 -0.2093  0.7960 -0.1939
15347TIP3    H267533   5.693   1.148  11.823  0.3141  0.4213 -0.2392
15348TIP3   OH267534   5.544   3.437   1.305 -0.5346 -0.6603 -0.0064
15348TIP3    H167535   5.518   3.443   1.213 -1.5493  0.5716  0.3492
15348TIP3    H267536   5.491   3.503   1.349  1.6595  0.4111  1.0945
15349TIP3   OH267537   5.644   6.083   2.379 -0.0030  0.1692  0.4670
15349TIP3    H167538   5.582   6.068   2.451 -1.8077 -0.5688 -1.1855
15349TIP3    H267539   5.721   6.031   2.403 -0.1959  0.7030  2.3279
15350TIP3   OH267540   3.308   1.358   1.639 -0.8348 -0.3577  0.7392
15350TIP3    H167541   3.361   1.302   1.695  0.8699  1.3087  0.8524
15350TIP3    H267542   3.363   1.434   1.622 -2.5527  0.6431 -0.5706
15351TIP3   OH267543   4.256   5.444  15.903 -0.1820  0.0014 -0.1388
15351TIP3    H167544   4.200   5.515  15.870 -1.2649 -0.3334  0.9677
15351TIP3    H267545   4.306   5.484  15.974  0.1212 -0.0270 -0.3327
15352TIP3   OH267546   4.565   2.853  13.918 -0.8805 -0.2584 -0.2088
15352TIP3    H167547   4.647   2.902  13.926 -0.0125 -1.6156 -0.6314
15352TIP3    H267548   4.558   2.833  13.825 -1.0633 -1.2159  0.0116
15353TIP3   OH267549   0.859   4.451   2.670  0.2522  0.2623 -0.2514
15353TIP3    H167550   0.862   4.439   2.765  1.4468  0.8418 -0.2073
15353TIP3    H267551   0.787   4.394   2.641 -0.5078  0.5348  1.0600
15354TIP3   OH267552   2.126   4.747  10.939 -0.2017  0.3091  0.8540
15354TIP3    H167553   2.065   4.674  10.938 -1.0640  1.0212  0.8199
15354TIP3    H267554   2.199   4.717  10.993  0.1629 -1.1350 -0.3799
15355TIP3   OH267555   2.084   2.750   4.599  0.3411  0.3140 -0.7830
15355TIP3    H167556   2.014   2.742   4.665 -0.9762 -0.1905 -2.2188
15355TIP3    H267557   2.078   2.841   4.570  0.9349  0.5413 -0.2120
15356TIP3   OH267558   2.139   1.400   0.848 -0.0645 -0.4367 -0.0422
15356TIP3    H167559   2.204   1.410   0.918  0.2755 -0.8590 -0.2905
15356TIP3    H267560   2.125   1.489   0.815  0.0681 -0.2891  0.3043
15357TIP3   OH267561   2.866   2.216  12.620 -0.4792 -0.4138 -0.8785
15357TIP3    H167562   2.817   2.295  12.640 -0.8853 -1.0069  0.5391
15357TIP3    H267563   2.799   2.149  12.605 -0.1387 -0.5176 -1.9805
15358TIP3   OH267564   4.916   0.550  14.820 -0.5069 -0.7726  0.2470
15358TIP3    H167565   4.864   0.519  14.746 -1.2454  0.6501  0.1578
15358TIP3    H267566   4.864   0.620  14.858  1.8001  1.4205 -0.5053
15359TIP3   OH267567   4.715   0.953  14.470 -0.2285  0.1256 -0.2475
15359TIP3    H167568   4.803   0.916  14.467 -0.5141 -0.6312  0.3219
15359TIP3    H267569   4.677   0.934  14.384  0.1230  0.3569 -0.4545
15360TIP3   OH267570   0.327   5.842  14.984  0.1731 -0.0696 -0.0758
15360TIP3    H167571   0.271   5.794  14.923  1.7559 -0.9760 -0.8575
15360TIP3    H267572   0.314   5.797  15.068  0.2122 -0.7008 -0.3994
15361TIP3   OH267573   6.582   2.010  16.365 -0.0569 -0.3863  0.3516
15361TIP3    H167574   6.672   2.042  16.369 -0.4223  0.6747 -0.0240
15361TIP3    H267575   6.553   2.029  16.276 -0.7475 -0.4807  0.5523
15362TIP3   OH267576   6.579   0.596   5.299  0.1822  0.3966  0.4916
15362TIP3    H167577   6.555   0.549   5.379  2.5091 -0.4336  0.7604
15362TIP3    H267578   6.626   0.674   5.329 -0.9950  1.3174 -0.0260
15363TIP3   OH267579   3.888   3.579  15.516 -0.5224  0.2743  0.1603
15363TIP3    H167580   3.921   3.491  15.531 -0.1469  0.3848  0.0038
15363TIP3    H267581   3.957   3.621  15.463 -0.8821  0.5283 -0.1054
15364TIP3   OH267582   5.019   4.615  13.762 -0.1419 -0.0799 -0.3162
15364TIP3    H167583   5.091   4.655  13.714  0.8450 -2.1377 -0.6145
15364TIP3    H267584   4.991   4.682  13.824  2.6965  0.4366  0.4738
15365TIP3   OH267585   2.439   5.393  13.344  0.7594  0.7524  0.2311
15365TIP3    H167586   2.384   5.463  13.308  0.3731  1.0410  1.3624
15365TIP3    H267587   2.414   5.388  13.436  1.2308 -0.4587  0.2974
15366TIP3   OH267588   0.492   6.344   5.882 -0.1036  0.0383  0.1334
15366TIP3    H167589   0.476   6.396   5.803 -0.5012  0.3874  0.4399
15366TIP3    H267590   0.582   6.364   5.905 -0.2613  0.6235  0.2649
15367TIP3   OH267591   3.297   5.863  12.968  0.2615  0.2428 -0.0316
15367TIP3    H167592   3.258   5.879  13.054  0.8963  0.4059  0.2298
15367TIP3    H267593   3.304   5.768  12.961 -1.2820  0.1660 -0.5764
15368TIP3   OH267594   3.114   1.095  14.169  0.5535  0.9492 -0.3920
15368TIP3    H167595   3.193   1.042  14.174  0.5011  0.8802 -0.3034
15368TIP3    H267596   3.106   1.118  14.076 -0.9837 -1.5462 -0.9070
15369TIP3   OH267597   0.444   1.459   2.312  0.2928  0.7346 -0.9135
15369TIP3    H167598   0.465   1.366   2.324 -0.1816  0.7830  0.4359
15369TIP3    H267599   0.521   1.505   2.345 -0.6174  0.8548  1.1268
15370TIP3   OH267600   0.020   4.495  13.452  0.5062 -0.3459 -0.0023
15370TIP3    H167601   0.017   4.453  13.538  2.6569 -0.8921 -0.1582
15370TIP3    H267602   0.080   4.569  13.464 -1.2691  1.1624 -0.3766
15371TIP3   OH267603   6.043   4.212   4.884 -0.3190  0.6851 -0.0577
15371TIP3    H167604   5.963   4.247   4.922 -1.2935 -4.0632  2.7281
15371TIP3    H267605   6.103   4.204   4.957  0.3024 -1.9822 -0.7944
15372TIP3   OH267606   5.947   6.816  12.722  0.1209  0.1454 -0.1757
15372TIP3    H167607   6.000   6.742  12.695  0.4620  0.4106 -0.2342
15372TIP3    H267608   5.857   6.788  12.706  0.1955 -0.6390  0.7615
15373TIP3   OH267609   2.825   1.322   6.424 -0.0723  0.3552  0.2618
15373TIP3    H167610   2.765   1.256   6.389 -1.7336  0.4148  2.8511
15373TIP3    H267611   2.851   1.288   6.510 -0.1629  2.5660  1.2099
15374TIP3   OH267612   3.928   5.561  14.901  0.2346 -0.2174  0.6259
15374TIP3    H167613   3.983   5.482  14.904  2.5238  1.3718  1.3004
15374TIP3    H267614   3.895   5.570  14.990  0.0174 -0.3893  0.5625
15375TIP3   OH267615   4.563   2.666   5.007  0.3149 -0.7194  0.1407
15375TIP3    H167616   4.543   2.754   5.041  1.2640 -0.3922 -0.1358
15375TIP3    H267617   4.586   2.680   4.916 -0.2119 -1.3508 -0.0909
15376TIP3   OH267618   6.649   1.021   6.377 -0.0395  0.1660 -0.3773
15376TIP3    H167619   6.670   1.114   6.368  0.2600  0.3151  1.6084
15376TIP3    H267620   6.696   0.979   6.306  0.1652  1.4846 -1.0472
15377TIP3   OH267621   2.518   6.083   3.006 -0.3690 -0.1732 -0.1105
15377TIP3    H167622   2.574   6.099   2.930  0.9821  0.9754  1.0819
15377TIP3    H267623   2.509   5.988   3.009  1.7677 -0.4187 -0.2115
15378TIP3   OH267624   0.313   6.664  12.856 -0.0727  0.5370 -0.4038
15378TIP3    H167625   0.323   6.637  12.765 -0.9691  0.9328 -0.6183
15378TIP3    H267626   0.393   6.633  12.899  1.0484  1.6427 -1.6277
15379TIP3   OH267627   6.209   3.250  13.833 -0.0341 -0.0858  0.0208
15379TIP3    H167628   6.151   3.176  13.817 -1.3012  1.1406 -1.3254
15379TIP3    H267629   6.162   3.325  13.795  2.2416  1.0110 -0.6915
15380TIP3   OH267630   3.833   3.035   6.350  0.2556 -0.0512  0.5547
15380TIP3    H167631   3.842   2.940   6.350  0.7746 -0.0108  1.6317
15380TIP3    H267632   3.917   3.067   6.381  0.0732  0.7669  0.2289
15381TIP3   OH267633   3.813   2.124   4.234 -0.1820 -0.0725 -0.3557
15381TIP3    H167634   3.815   2.111   4.329  1.2463 -0.6516 -0.4609
15381TIP3    H267635   3.769   2.046   4.201  1.0546 -0.7939 -0.3209
15382TIP3   OH267636   6.672   3.292  16.619  0.5033  0.1282 -0.1499
15382TIP3    H167637   6.664   3.236  16.542 -0.6473 -0.8534  0.6567
15382TIP3    H267638   6.759   3.332  16.611  0.8665 -0.8689 -1.3423
15383TIP3   OH267639   3.464   1.888   1.491 -0.3452  0.4021  0.2782
15383TIP3    H167640   3.479   1.869   1.398  2.6645 -0.8839  0.9637
15383TIP3    H267641   3.524   1.960   1.510 -1.1147  0.8073  1.1597
15384TIP3   OH267642   6.253   3.574  16.913  0.4363 -0.4236 -0.1496
15384TIP3    H167643   6.271   3.550  17.004 -1.9239 -0.2311  0.4020
15384TIP3    H267644   6.330   3.545  16.865  3.1116  2.2444  2.3195
15385TIP3   OH267645   5.199   0.604  12.967  0.6522  0.3428  0.6020
15385TIP3    H167646   5.208   0.653  13.049  2.5256  1.7107 -0.3835
15385TIP3    H267647   5.196   0.672  12.899 -2.6845 -0.6504 -0.3916
15386TIP3   OH267648   1.134   6.376   3.335 -0.2238  0.1202 -0.0658
15386TIP3    H167649   1.199   6.306   3.329  0.1141  0.3462  0.8730
15386TIP3    H267650   1.061   6.345   3.282  0.1017 -0.7478 -0.0220
15387TIP3   OH267651   1.729   4.986  15.282 -0.1162 -0.4685  0.8280
15387TIP3    H167652   1.643   4.998  15.323  0.1472  1.6566  0.7742
15387TIP3    H267653   1.713   4.995  15.189  0.0919 -0.6291  0.7760
15388TIP3   OH267654   3.168   3.846   2.861  0.2871 -0.1708 -0.5057
15388TIP3    H167655   3.262   3.850   2.880  0.1703 -1.8383  0.5055
15388TIP3    H267656   3.144   3.936   2.840  2.3453  0.0900 -1.8878
15389TIP3   OH267657   0.063   4.459  16.839  0.3392  0.8863 -0.2885
15389TIP3    H167658   0.155   4.436  16.825  0.2466  0.5457 -0.3523
15389TIP3    H267659   0.018   4.430  16.760 -0.2768 -1.5728  0.8811
15390TIP3   OH267660   2.588   6.763   3.032 -0.7981 -0.2692 -0.2615
15390TIP3    H167661   2.625   6.749   2.945 -0.5719 -0.2577 -0.1681
15390TIP3    H267662   2.636   6.839   3.066  1.0474 -1.9424  0.9507
15391TIP3   OH267663   4.164   6.209  16.179  0.2633 -0.1988  0.1908
15391TIP3    H167664   4.146   6.175  16.091 -1.5958 -2.6568  1.4747
15391TIP3    H267665   4.255   6.183  16.196  0.5646  0.1145 -0.9199
15392TIP3   OH267666   5.005   5.007   0.354  0.1792 -0.3852  0.4990
15392TIP3    H167667   4.920   5.007   0.398 -0.0638 -1.4924  0.0580
15392TIP3    H267668   5.008   5.091   0.307  0.5898  0.9433  2.8518
15393TIP3   OH267669   0.947   5.052   5.969  0.1345 -0.1839  0.2324
15393TIP3    H167670   0.967   5.145   5.972 -1.0657  0.0597  1.2264
15393TIP3    H267671   0.946   5.025   6.061  1.3010 -1.3635 -0.0885
15394TIP3   OH267672   6.571   3.334  16.203 -0.4245  0.1217 -0.7588
15394TIP3    H167673   6.522   3.288  16.135 -1.3210 -1.6209  0.9862
15394TIP3    H267674   6.592   3.265  16.267  2.8198  1.1666 -0.6309
15395TIP3   OH267675   3.861   1.010  15.273 -0.1883 -0.1204  0.1529
15395TIP3    H167676   3.902   0.936  15.229 -0.5975 -0.1503 -0.1790
15395TIP3    H267677   3.851   0.982  15.364  0.2344 -0.2305  0.1706
15396TIP3   OH267678   0.188   0.335  13.908  0.2718 -0.2499 -0.3267
15396TIP3    H167679   0.114   0.383  13.874  0.5608  1.5504  1.4774
15396TIP3    H267680   0.264   0.371  13.863  0.2735 -0.5388 -0.5561
15397TIP3   OH267681   3.117   2.848  15.564  0.6704  0.4056  0.4058
15397TIP3    H167682   3.073   2.859  15.648  1.5391  0.6483  0.8252
15397TIP3    H267683   3.066   2.780  15.519 -0.2841  0.8655  0.7888
15398TIP3   OH267684   2.256   0.219  16.603 -0.2210 -0.1306  0.4792
15398TIP3    H167685   2.263   0.262  16.688 -0.2057 -0.2028  0.5131
15398TIP3    H267686   2.166   0.186  16.600 -0.0004 -0.7671  0.7726
15399TIP3   OH267687   4.526   4.939   6.317 -0.2513  0.2338  0.0310
15399TIP3    H167688   4.486   4.852   6.313  0.0230  0.1455 -1.3844
15399TIP3    H267689   4.601   4.929   6.375 -0.6313 -0.3126  0.4224
15400TIP3   OH267690   1.438   1.356  13.117 -0.4769 -0.6497 -0.7812
15400TIP3    H167691   1.456   1.427  13.178 -2.0066  0.3202 -1.4301
15400TIP3    H267692   1.506   1.291  13.136  0.0392  0.3153  0.8488
15401TIP3   OH267693   2.238   4.870   4.675 -0.3193 -0.0849  0.5000
15401TIP3    H167694   2.257   4.916   4.593 -3.0943 -0.6563 -0.5411
15401TIP3    H267695   2.272   4.926   4.744  2.5492  0.1636 -1.0634
15402TIP3   OH267696   2.383   4.990  16.498 -0.5025 -0.5682  0.1311
15402TIP3    H167697   2.453   4.999  16.434 -0.2722 -3.3582 -0.0798
15402TIP3    H267698   2.306   4.964  16.447 -1.4334  1.3262  0.5055
15403TIP3   OH267699   4.830   3.746   4.963 -0.4679  0.3456 -0.1904
15403TIP3    H167700   4.920   3.734   4.992 -0.8831  0.6390  1.2642
15403TIP3    H267701   4.812   3.839   4.974 -0.8423  0.3541 -0.8040
15404TIP3   OH267702   2.028   3.488   6.872 -0.1382 -0.0762 -0.2622
15404TIP3    H167703   2.008   3.464   6.782  0.2233  0.8822 -0.5992
15404TIP3    H267704   2.119   3.461   6.885 -0.0470  0.1952 -0.3291
15405TIP3   OH267705   5.688   5.664   1.366 -0.2985  0.1207 -0.4082
15405TIP3    H167706   5.675   5.593   1.304 -2.5227 -0.1648  0.3555
15405TIP3    H267707   5.692   5.621   1.452  0.4775  0.7229 -0.1312
15406TIP3   OH267708   3.453   2.494  12.764 -1.0722  0.4194  0.3703
15406TIP3    H167709   3.381   2.520  12.706 -0.7432  2.3959  0.8190
15406TIP3    H267710   3.421   2.512  12.852 -0.1312  1.0838  0.5893
15407TIP3   OH267711   1.516   2.986  15.128 -0.0483 -0.0920  0.2239
15407TIP3    H167712   1.471   2.941  15.199 -0.4237  2.2898  1.5721
15407TIP3    H267713   1.496   3.079  15.143  0.2605  0.4866 -2.7238
15408TIP3   OH267714   0.825   6.505  14.806  0.1330  0.5138  0.0306
15408TIP3    H167715   0.807   6.473  14.895  0.2214  2.7933  0.9062
15408TIP3    H267716   0.741   6.498  14.761 -0.2636  0.6676  0.7292
15409TIP3   OH267717   6.461   3.605   5.583  0.1889 -0.4922  0.5490
15409TIP3    H167718   6.444   3.623   5.675 -2.0049 -0.2897  0.1305
15409TIP3    H267719   6.501   3.518   5.582  3.7593  1.0417  1.9621
15410TIP3   OH267720   6.255   5.687   1.773  0.3824  0.1979 -0.3220
15410TIP3    H167721   6.179   5.657   1.723  1.2427 -2.4238 -0.1704
15410TIP3    H267722   6.237   5.660   1.863  0.6177  1.3418  0.0746
15411TIP3   OH267723   4.476   3.604   3.750  0.3539  0.3430 -0.1675
15411TIP3    H167724   4.514   3.692   3.747 -0.1479  0.7341  3.3604
15411TIP3    H267725   4.551   3.546   3.763  0.6277  0.2638 -1.9775
15412TIP3   OH267726   1.931   4.619   1.630 -0.2570  0.0586 -0.0304
15412TIP3    H167727   1.952   4.699   1.584 -1.7393 -0.2280 -1.2285
15412TIP3    H267728   1.874   4.646   1.702 -2.6364 -0.1677 -1.7902
15413TIP3   OH267729   2.834   0.168   1.157  0.3441 -0.4370 -0.2086
15413TIP3    H167730   2.885   0.143   1.234 -1.0045 -0.8798  0.5673
15413TIP3    H267731   2.828   0.263   1.163  0.5143 -0.4405  0.0687
15414TIP3   OH267732   5.746   0.047  12.244 -0.4632  0.3081  0.8321
15414TIP3    H167733   5.751  -0.022  12.311 -0.2525 -0.8377 -0.3529
15414TIP3    H267734   5.658   0.038  12.207 -0.4813  0.7578  0.7675
15415TIP3   OH267735   1.449   1.590   3.621  0.1002  0.6561 -0.2168
15415TIP3    H167736   1.449   1.568   3.528  0.4130 -0.1052 -0.0422
15415TIP3    H267737   1.479   1.510   3.665  0.9784  1.3519  0.4563
15416TIP3   OH267738   3.158   5.800  10.755  0.7619  0.1126  0.4096
15416TIP3    H167739   3.238   5.754  10.782  1.2738  0.3915 -0.6065
15416TIP3    H267740   3.189   5.866  10.693 -0.4350 -0.8084 -1.1918
15417TIP3   OH267741   0.428   2.802   3.826  0.1946 -0.1075  0.0279
15417TIP3    H167742   0.468   2.887   3.847 -0.1332 -0.0251  0.3199
15417TIP3    H267743   0.470   2.776   3.744  0.6768  0.0881  0.2115
15418TIP3   OH267744   5.966   1.118  15.905  0.7334 -0.1131 -0.0469
15418TIP3    H167745   6.046   1.156  15.869 -0.8210 -0.0545 -3.6812
15418TIP3    H267746   5.900   1.187  15.895 -0.7254 -1.6022 -1.1803
15419TIP3   OH267747   0.628   6.201  16.083  0.4417  0.1431 -1.1974
15419TIP3    H167748   0.581   6.261  16.141  0.6816 -1.1185  0.3118
15419TIP3    H267749   0.715   6.194  16.121  0.8220 -0.1629 -2.1144
15420TIP3   OH267750   1.826   0.775  10.808  0.2582 -0.3217  0.7595
15420TIP3    H167751   1.847   0.853  10.756 -1.4573  0.1550  0.7591
15420TIP3    H267752   1.781   0.809  10.885 -2.8943 -1.4986 -0.5100
15421TIP3   OH267753   0.452   4.036   5.519  0.1467  0.4933  0.2334
15421TIP3    H167754   0.438   4.130   5.508  0.8884  0.3258 -2.5396
15421TIP3    H267755   0.435   3.999   5.432 -2.6116 -2.2690  1.8371
15422TIP3   OH267756   1.622   3.510   3.824  0.5998 -0.5403 -0.0124
15422TIP3    H167757   1.590   3.548   3.905  1.4416  0.1536 -0.0019
15422TIP3    H267758   1.585   3.566   3.755 -0.5901 -1.4708 -0.1447
15423TIP3   OH267759   6.037   3.013  16.828  0.1469 -0.2742 -0.0484
15423TIP3    H167760   6.073   2.938  16.781 -0.1693  0.3037 -1.2532
15423TIP3    H267761   6.037   2.987  16.920 -2.4262 -2.7999 -0.6854
15424TIP3   OH267762   0.143   2.131  13.511  0.5187 -0.2851  0.6581
15424TIP3    H167763   0.067   2.169  13.556  0.9607  0.2189  0.9915
15424TIP3    H267764   0.159   2.048  13.557  0.1007 -0.4451  0.5136
15425TIP3   OH267765   4.547   3.183   0.457  0.7094 -0.2717  0.6138
15425TIP3    H167766   4.458   3.194   0.422  1.6093 -1.1718 -2.0900
15425TIP3    H267767   4.536   3.187   0.552 -2.1536  0.1525  0.3119
15426TIP3   OH267768   2.634   3.124  16.480  0.5177 -0.2498 -0.2462
15426TIP3    H167769   2.572   3.059  16.512 -0.8464  0.3815 -1.5162
15426TIP3    H267770   2.646   3.185  16.553  1.2040 -1.4847  0.6818
15427TIP3   OH267771   2.635   0.300  11.980  0.2086 -0.5551 -0.0744
15427TIP3    H167772   2.718   0.335  11.947  1.0067 -3.2260 -1.0876
15427TIP3    H267773   2.659   0.216  12.019 -1.8440 -0.7879  0.7177
15428TIP3   OH267774   3.751   4.911   1.632  0.0594 -0.1472  0.5282
15428TIP3    H167775   3.720   4.911   1.541 -1.1990 -0.7599  0.9485
15428TIP3    H267776   3.671   4.914   1.685  0.7275 -1.2720  1.6373
15429TIP3   OH267777   1.949   1.058  10.972  0.7621 -0.0117 -0.8095
15429TIP3    H167778   1.858   1.046  11.000  0.6136 -1.0290 -1.6772
15429TIP3    H267779   1.948   1.036  10.879  1.6495  1.2321 -1.1390
15430TIP3   OH267780   5.679   3.373  11.289  0.0041  0.3431  0.3264
15430TIP3    H167781   5.689   3.436  11.360 -0.0144  1.8885 -1.0067
15430TIP3    H267782   5.768   3.354  11.261 -0.0570  1.6022 -0.8034
15431TIP3   OH267783   2.442   2.534   2.456 -0.5653  0.5823 -0.3858
15431TIP3    H167784   2.378   2.521   2.386 -0.2355  0.8687 -0.7480
15431TIP3    H267785   2.475   2.446   2.475 -1.6624  0.3331  0.3797
15432TIP3   OH267786   1.120   1.374  16.546  0.1975 -0.6972 -0.3234
15432TIP3    H167787   1.118   1.458  16.501 -3.1341 -0.8634 -0.6299
15432TIP3    H267788   1.115   1.309  16.476  3.3350 -1.2248 -0.1284
15433TIP3   OH267789   5.516   5.303  10.396  0.5730 -0.3983 -0.4624
15433TIP3    H167790   5.476   5.278  10.479  0.7031 -0.1856 -0.3343
15433TIP3    H267791   5.598   5.253  10.393 -1.3375 -3.5626 -2.3488
15434TIP3   OH267792   1.465   2.494   0.850  0.1072 -0.2337  0.2443
15434TIP3    H167793   1.383   2.537   0.876  0.2649  0.7009 -0.7752
15434TIP3    H267794   1.438   2.431   0.783  0.6548  2.8208 -3.0365
15435TIP3   OH267795   3.680   2.516   5.935  0.6363  0.1035 -0.1551
15435TIP3    H167796   3.690   2.611   5.948 -0.1247  0.3203 -1.1370
15435TIP3    H267797   3.709   2.501   5.845  0.1716 -0.5114 -0.2000
15436TIP3   OH267798   4.191   2.585   4.071 -0.0399  0.4562  0.4621
15436TIP3    H167799   4.115   2.614   4.121 -1.1627 -1.7028  0.0905
15436TIP3    H267800   4.175   2.616   3.982 -1.1087 -1.0198  0.1198
15437TIP3   OH267801   5.027   1.835  12.322  0.9654 -0.1070  0.0273
15437TIP3    H167802   4.972   1.758  12.306  2.7588 -1.7130  1.4566
15437TIP3    H267803   5.108   1.817  12.275  2.2353 -0.1150  2.1717
15438TIP3   OH267804   2.938   5.030  14.528 -0.8451  0.6496 -0.0793
15438TIP3    H167805   2.877   4.961  14.502 -1.0050  0.5055  0.6869
15438TIP3    H267806   2.988   5.049  14.448  0.7151 -1.9103  0.2316
15439TIP3   OH267807   0.600   4.606  13.359 -0.1893  0.4026 -0.3870
15439TIP3    H167808   0.596   4.582  13.267 -1.2170 -0.6910 -0.0873
15439TIP3    H267809   0.693   4.601  13.382  0.3187  2.5970 -1.8202
15440TIP3   OH267810   3.796   2.236   5.790  0.1989  0.1965  0.1465
15440TIP3    H167811   3.888   2.212   5.785 -0.3151 -1.3642 -2.5293
15440TIP3    H267812   3.787   2.314   5.736 -0.3073 -0.5003 -0.7857
15441TIP3   OH267813   2.330   5.423   1.445 -0.2713  0.4073 -0.6107
15441TIP3    H167814   2.336   5.508   1.488 -0.7481 -0.5280  1.3744
15441TIP3    H267815   2.238   5.414   1.421 -0.4241  0.0472  0.0824
15442TIP3   OH267816   5.500   0.155  15.449  0.2437  0.0181 -0.0874
15442TIP3    H167817   5.568   0.189  15.507 -0.3372 -1.4867  1.5146
15442TIP3    H267818   5.419   0.169  15.498 -0.1410 -2.3660  0.0333
15443TIP3   OH267819   3.637   2.971  13.848 -0.0067  0.2596  0.1889
15443TIP3    H167820   3.660   3.041  13.787  1.5632  0.1718  0.6656
15443TIP3    H267821   3.542   2.963  13.841  0.0457  0.9631 -1.4671
15444TIP3   OH267822   0.890   0.417   3.483  0.1960  0.0789  0.1856
15444TIP3    H167823   0.910   0.428   3.390  1.1031 -0.6343  0.2928
15444TIP3    H267824   0.943   0.342   3.510 -1.0397 -0.5277  0.9689
15445TIP3   OH267825   5.423   1.465  14.857 -0.3669 -0.1255 -0.0877
15445TIP3    H167826   5.384   1.552  14.865  2.0363  1.1874 -2.0199
15445TIP3    H267827   5.370   1.422  14.789  0.8481  1.3079 -2.0208
15446TIP3   OH267828   3.548   5.869  12.844  0.1665  0.1834  0.2316
15446TIP3    H167829   3.583   5.821  12.920 -0.1263  1.6448  1.3167
15446TIP3    H267830   3.466   5.907  12.876  0.6844  1.8776 -0.4220
15447TIP3   OH267831   0.546   6.201   4.681  0.0314  0.2566  0.0854
15447TIP3    H167832   0.465   6.241   4.649 -0.3544 -0.1168  0.5934
15447TIP3    H267833   0.556   6.236   4.769  0.7657  0.7999 -0.2122
15448TIP3   OH267834   2.606   3.615  12.657  0.1095  0.6696  0.1640
15448TIP3    H167835   2.527   3.622  12.710 -0.9330 -1.7018 -0.9774
15448TIP3    H267836   2.574   3.619  12.567  1.2315 -0.5810 -0.3026
15449TIP3   OH267837   2.851   3.729  16.554 -0.2364 -0.4813  0.2122
15449TIP3    H167838   2.849   3.813  16.508 -0.5191 -1.1875 -1.1166
15449TIP3    H267839   2.871   3.751  16.645  0.9998  0.9056 -0.3751
15450TIP3   OH267840   1.554   6.390  13.497  0.0140  0.0039 -0.2302
15450TIP3    H167841   1.593   6.447  13.431 -0.4095  1.2461  0.5540
15450TIP3    H267842   1.521   6.315  13.448  0.9021  0.2693 -1.2469
15451TIP3   OH267843   5.077   5.800   5.987 -0.3317 -0.5420  0.1988
15451TIP3    H167844   5.054   5.739   6.057 -1.2989  0.7981  1.0807
15451TIP3    H267845   5.002   5.861   5.982  0.2993  0.1632 -1.1154
15452TIP3   OH267846   2.540   0.996  10.913  0.3518  0.5500  0.2711
15452TIP3    H167847   2.627   0.967  10.938  0.3321  1.6956  1.7555
15452TIP3    H267848   2.555   1.063  10.846  0.5622 -0.0417 -0.2721
15453TIP3   OH267849   0.562   6.169   3.137  0.1937 -0.3459 -0.7134
15453TIP3    H167850   0.574   6.126   3.052  0.8709 -0.4722 -0.5582
15453TIP3    H267851   0.468   6.161   3.155  0.0417 -0.2691 -1.4738
15454TIP3   OH267852   5.025   1.896   0.713  0.2486  0.1299  0.3543
15454TIP3    H167853   5.102   1.904   0.657  0.2884 -0.8138  0.2624
15454TIP3    H267854   4.997   1.805   0.702  0.0588  0.0292  1.6076
15455TIP3   OH267855   6.814   2.794  16.776  0.3712  0.1192  0.2666
15455TIP3    H167856   6.725   2.765  16.799  1.2721 -1.5804  1.7122
15455TIP3    H267857   6.835   2.860  16.842 -0.3993  1.6615 -1.0117
15456TIP3   OH267858   6.490   2.216  17.233 -0.1753 -0.4889  0.0577
15456TIP3    H167859   6.422   2.152  17.212  0.4461 -1.4047  0.7968
15456TIP3    H267860   6.569   2.164  17.246  0.0939  0.3197  1.7811
15457TIP3   OH267861   5.049   5.046  10.581  0.7423 -0.8331 -0.3600
15457TIP3    H167862   5.019   4.999  10.658  0.2147  0.5130  0.2614
15457TIP3    H267863   5.053   5.138  10.608 -1.9158  0.0358 -2.6582
15458TIP3   OH267864   6.537   0.711   3.001  0.2041 -0.2960 -0.2630
15458TIP3    H167865   6.511   0.663   3.079  1.0138 -0.5834 -0.1637
15458TIP3    H267866   6.470   0.778   2.991 -0.6032 -1.0772 -0.0655
15459TIP3   OH267867   2.238   3.279  11.666 -0.2165 -0.1786  0.1487
15459TIP3    H167868   2.149   3.296  11.699  1.2172  0.2353  4.1151
15459TIP3    H267869   2.263   3.197  11.709  1.2985 -0.3167 -1.0015
15460TIP3   OH267870   1.405   2.825  10.665 -0.2516  0.0736  0.2137
15460TIP3    H167871   1.432   2.825  10.573 -1.2395 -0.1871 -0.0796
15460TIP3    H267872   1.433   2.910  10.699  0.7299 -0.0967 -0.1392
15461TIP3   OH267873   4.215   6.183  15.221  0.5031 -0.1941  0.2062
15461TIP3    H167874   4.245   6.203  15.309 -1.7932  1.2375  0.7245
15461TIP3    H267875   4.155   6.108  15.233  0.1577  0.0265 -0.1209
15462TIP3   OH267876   4.255   5.725  12.794 -0.1983  0.6178  0.1145
15462TIP3    H167877   4.291   5.637  12.777  1.0725  1.0896  0.3577
15462TIP3    H267878   4.262   5.736  12.888 -1.9107  0.3302  0.2936
15463TIP3   OH267879   2.582   3.186  16.221  0.1522  0.3341 -0.2613
15463TIP3    H167880   2.608   3.198  16.313  3.3718 -1.6921 -0.8093
15463TIP3    H267881   2.637   3.248  16.173  2.4249 -2.3433 -1.2412
15464TIP3   OH267882   2.483   6.133   6.790 -0.0880  0.0176  0.0746
15464TIP3    H167883   2.402   6.111   6.745 -0.3364  0.1997  0.4264
15464TIP3    H267884   2.456   6.153   6.880  0.1574  1.5321 -0.1815
15465TIP3   OH267885   5.285   3.460   6.262  0.2909 -0.1763  0.0776
15465TIP3    H167886   5.296   3.536   6.204  1.6213  1.6343  2.5890
15465TIP3    H267887   5.307   3.494   6.349 -0.8192 -3.0379  1.5080
15466TIP3   OH267888   2.780   4.732   2.887  0.0325 -0.1905 -0.4233
15466TIP3    H167889   2.796   4.808   2.942  1.3093 -0.5030 -0.3395
15466TIP3    H267890   2.686   4.733   2.871 -0.2326  0.3815  1.0707
15467TIP3   OH267891   6.147   0.478   1.645  0.0821 -0.0832 -0.0280
15467TIP3    H167892   6.098   0.522   1.575  0.2898  1.0746  0.5417
15467TIP3    H267893   6.141   0.538   1.719  2.6371  0.2295 -0.0369
15468TIP3   OH267894   3.685   4.864   0.256  0.0416 -0.7604  0.2216
15468TIP3    H167895   3.659   4.943   0.304 -0.8839 -0.4230 -0.8235
15468TIP3    H267896   3.779   4.855   0.273  0.1597  0.5817  0.3160
15469TIP3   OH267897   0.791   0.312  12.429  0.3052 -0.0055  0.6360
15469TIP3    H167898   0.770   0.342  12.517  1.0359 -0.8508  1.1057
15469TIP3    H267899   0.865   0.253  12.441  0.3917 -0.1496 -0.5440
15470TIP3   OH267900   4.523   2.491  12.516  0.5560  0.3526 -0.3041
15470TIP3    H167901   4.506   2.551  12.588  0.8509  0.9214 -0.7002
15470TIP3    H267902   4.614   2.465  12.526 -0.4128 -2.5134  1.6857
15471TIP3   OH267903   5.236   0.125   3.223 -0.6954 -0.3003  0.0688
15471TIP3    H167904   5.231   0.031   3.205 -1.2161 -0.2555 -0.0241
15471TIP3    H267905   5.146   0.150   3.244 -0.0876 -0.3741  2.9872
15472TIP3   OH267906   0.603   1.298   5.715 -0.1484  0.0636  0.3465
15472TIP3    H167907   0.680   1.288   5.660 -0.0306 -0.2288  0.5679
15472TIP3    H267908   0.546   1.358   5.666 -1.1850 -2.1927 -1.3128
15473TIP3   OH267909   6.127   3.649   5.555 -0.5194  0.2990  0.1643
15473TIP3    H167910   6.191   3.602   5.500  0.2099 -0.7984  1.9040
15473TIP3    H267911   6.052   3.591   5.559 -0.0715 -0.2105  1.3609
15474TIP3   OH267912   0.354   3.683   1.459  0.1046  0.7980 -0.0847
15474TIP3    H167913   0.310   3.617   1.405  1.4346 -0.5829  0.4656
15474TIP3    H267914   0.396   3.741   1.395  1.2472 -0.5285 -0.5687
15475TIP3   OH267915   2.317   1.813  11.244 -0.3888 -0.0407  0.5441
15475TIP3    H167916   2.271   1.788  11.164  2.3587  2.4304 -1.9153
15475TIP3    H267917   2.273   1.892  11.274 -2.7817 -2.0986  2.8240
15476TIP3   OH267918   3.889   3.408  12.795 -0.0297 -0.0426  0.7882
15476TIP3    H167919   3.961   3.406  12.857  0.2132  0.8959  0.5519
15476TIP3    H267920   3.895   3.495  12.754 -2.0581  0.5772  1.7105
15477TIP3   OH267921   2.698   5.775  15.125 -0.5523 -0.6293 -0.3181
15477TIP3    H167922   2.726   5.798  15.037 -1.5471 -2.0284 -1.0053
15477TIP3    H267923   2.623   5.833  15.143  0.0056  0.0507 -0.1610
15478TIP3   OH267924   5.341   4.247  13.486 -0.2951 -1.1559  0.5808
15478TIP3    H167925   5.307   4.300  13.558 -1.6997  1.0202 -1.5896
15478TIP3    H267926   5.412   4.300  13.450 -0.3616 -1.7011 -0.3483
15479TIP3   OH267927   6.594   4.166   2.733 -0.0491  0.6257 -0.0346
15479TIP3    H167928   6.627   4.094   2.787 -2.1820  1.2784  2.2427
15479TIP3    H267929   6.595   4.132   2.644 -0.2277 -1.9256  0.9061
15480TIP3   OH267930   6.603   2.201  11.597 -0.3865 -0.0102 -0.6890
15480TIP3    H167931   6.596   2.287  11.638 -0.1738 -0.9482  1.3760
15480TIP3    H267932   6.664   2.214  11.524  0.9902  1.2340  0.6374
15481TIP3   OH267933   1.474   4.090  13.473 -0.0978 -0.1969 -0.3285
15481TIP3    H167934   1.492   4.181  13.452 -1.0376 -0.2405 -1.3779
15481TIP3    H267935   1.380   4.080  13.456 -0.2280 -1.0814  0.8171
15482TIP3   OH267936   5.218   6.264   1.108  0.5838  0.7224  0.6824
15482TIP3    H167937   5.248   6.319   1.035 -0.0289  0.0561 -0.0806
15482TIP3    H267938   5.290   6.203   1.124 -0.3020 -0.8624 -1.1345
15483TIP3   OH267939   5.374   1.024  16.237 -0.5019 -0.1479  0.0288
15483TIP3    H167940   5.363   1.115  16.211  0.4259  0.0124  0.2051
15483TIP3    H267941   5.387   1.027  16.332 -1.1307 -0.5228  0.1366
15484TIP3   OH267942   6.453   5.573  17.006  0.1719 -0.0007 -0.1447
15484TIP3    H167943   6.445   5.496  16.950 -1.5738  0.8134 -1.0615
15484TIP3    H267944   6.476   5.644  16.946  1.7629  0.2204  0.6910
15485TIP3   OH267945   3.981   2.792  14.474 -0.0633  0.1884 -0.2574
15485TIP3    H167946   3.927   2.754  14.405  0.2725  0.3998 -0.6401
15485TIP3    H267947   3.923   2.800  14.549 -0.9953  1.9081 -1.1284
15486TIP3   OH267948   1.841   4.927  15.876 -0.3665 -0.1983 -0.1397
15486TIP3    H167949   1.936   4.930  15.888 -0.2233  0.6068 -1.3843
15486TIP3    H267950   1.822   5.000  15.817 -1.7925 -0.2101  0.2902
15487TIP3   OH267951   2.885   2.314   4.759 -0.3423 -0.3269 -0.0215
15487TIP3    H167952   2.825   2.252   4.800  1.5753 -1.6814  0.7698
15487TIP3    H267953   2.854   2.400   4.789 -1.8861 -0.9963  0.3555
15488TIP3   OH267954   4.171   3.960  13.670  0.1005  0.3427  0.0613
15488TIP3    H167955   4.216   4.043  13.662  0.1997  0.3054  0.2155
15488TIP3    H267956   4.078   3.982  13.667  0.1348  0.2189 -2.1177
15489TIP3   OH267957   4.359   0.217  13.639 -0.0343  0.5095 -0.1256
15489TIP3    H167958   4.327   0.292  13.689  0.2914 -0.1541  1.0974
15489TIP3    H267959   4.303   0.213  13.562 -1.2483  0.8856  0.7332
15490TIP3   OH267960   6.688   4.657   4.376 -0.4040 -0.4428 -0.4348
15490TIP3    H167961   6.706   4.562   4.378 -0.4515 -0.4592 -0.8298
15490TIP3    H267962   6.628   4.668   4.303 -0.6781 -0.1523 -0.1631
15491TIP3   OH267963   3.800   6.501   0.624  0.5890  0.0245  0.3326
15491TIP3    H167964   3.807   6.592   0.652  0.0848 -0.0726  0.7664
15491TIP3    H267965   3.782   6.507   0.530  2.2704  0.3410  0.0109
15492TIP3   OH267966   4.384   5.891  16.406  0.2299  0.1090  0.5295
15492TIP3    H167967   4.420   5.961  16.352  0.7672 -0.4189  0.2066
15492TIP3    H267968   4.351   5.936  16.484 -0.4530  0.8532 -0.1815
15493TIP3   OH267969   0.598   5.311   1.343 -0.7313  0.1094 -0.4550
15493TIP3    H167970   0.556   5.328   1.427  0.6097  0.7385  0.0949
15493TIP3    H267971   0.629   5.221   1.349 -0.0554  0.3710 -0.0265
15494TIP3   OH267972   4.650   1.767   1.767  0.7238 -0.0791 -0.6633
15494TIP3    H167973   4.568   1.816   1.775  0.4544 -0.6515  0.1201
15494TIP3    H267974   4.706   1.823   1.713  0.1728  0.7774 -0.3539
15495TIP3   OH267975   6.432   0.183  15.778 -0.3287 -0.3760  0.4957
15495TIP3    H167976   6.388   0.232  15.708  0.5558 -1.7600 -1.0614
15495TIP3    H267977   6.379   0.200  15.856 -1.1125  1.5124 -0.4171
15496TIP3   OH267978   3.221   2.159   0.537 -0.3669  0.2506  0.8612
15496TIP3    H167979   3.186   2.155   0.449  0.0052 -0.7415  0.7494
15496TIP3    H267980   3.299   2.103   0.535  0.1637  0.9283  1.5836
15497TIP3   OH267981   6.146   0.537  16.490 -0.0826  0.3073  0.0325
15497TIP3    H167982   6.067   0.588  16.481 -0.8468 -0.5017  1.7973
15497TIP3    H267983   6.118   0.458  16.537  2.1956  1.1919  3.0373
15498TIP3   OH267984   3.663   6.463   0.038 -0.0103  0.0372 -0.4941
15498TIP3    H167985   3.708   6.395  -0.012 -0.3516 -0.8772  0.4277
15498TIP3    H267986   3.707   6.544   0.014  1.5905 -0.7460 -0.2243
15499TIP3   OH267987   6.808   4.937  13.589  0.5784 -0.8518 -0.2711
15499TIP3    H167988   6.753   4.997  13.539 -0.7953 -0.6458  1.4147
15499TIP3    H267989   6.845   4.877  13.524 -1.2901 -0.7110 -1.4991
15500TIP3   OH267990   2.310   2.818  13.036 -0.0361 -0.4442 -0.6427
15500TIP3    H167991   2.214   2.812  13.033  0.0342 -0.9002 -2.6854
15500TIP3    H267992   2.340   2.727  13.037  0.3544 -0.3348  2.7206
15501TIP3   OH267993   0.662   6.097   3.981 -0.4797  0.3043 -0.0783
15501TIP3    H167994   0.669   6.014   4.027 -0.2152 -0.4027 -1.3559
15501TIP3    H267995   0.644   6.161   4.049  0.0004 -0.6927  1.0004
15502TIP3   OH267996   2.181   3.921  11.485  0.2838 -0.2054 -0.1107
15502TIP3    H167997   2.190   3.858  11.414  0.5634  1.5675 -1.6608
15502TIP3    H267998   2.178   4.006  11.442  1.5215  0.9736  2.0468
15503TIP3   OH267999   6.615   4.381   6.261 -0.3875 -0.5747 -0.9517
15503TIP3    H168000   6.695   4.416   6.221 -0.8334 -0.4097 -1.7135
15503TIP3    H268001   6.629   4.287   6.265  0.8306 -0.3403  1.1180
15504TIP3   OH268002   5.904   6.661   3.480 -0.3788 -0.0796  0.2755
15504TIP3    H168003   5.852   6.670   3.560 -1.0610  0.1714 -0.2006
15504TIP3    H268004   5.840   6.649   3.410  0.0595  2.4819 -0.6401
15505TIP3   OH268005   5.763   2.831  12.831 -0.1744 -0.1111  0.5114
15505TIP3    H168006   5.806   2.769  12.772 -2.7349 -2.9420  1.4854
15505TIP3    H268007   5.672   2.835  12.800 -0.4575  1.8270  1.5459
15506TIP3   OH268008   2.681   4.068   5.577 -0.4000  0.2248 -0.0638
15506TIP3    H168009   2.624   4.134   5.617  0.9506  0.8498  0.8623
15506TIP3    H268010   2.749   4.118   5.532  0.8616 -0.5394  0.9689
15507TIP3   OH268011   1.747   6.759  11.275 -0.0275 -0.2186 -0.6015
15507TIP3    H168012   1.823   6.808  11.244 -0.9905  1.6442 -0.1155
15507TIP3    H268013   1.698   6.738  11.195 -0.4784  1.1216 -0.6926
15508TIP3   OH268014   0.343   6.357  11.127 -0.2532 -0.0727 -0.0870
15508TIP3    H168015   0.404   6.337  11.056  0.4517 -0.4120  0.6117
15508TIP3    H268016   0.292   6.431  11.094 -0.6742 -0.9279 -1.3830
15509TIP3   OH268017   3.751   5.598  12.827 -0.2345 -0.2081  0.3434
15509TIP3    H168018   3.723   5.640  12.908  1.0548 -1.2455  1.3499
15509TIP3    H268019   3.680   5.537  12.806 -0.6268  0.1510  0.6102
15510TIP3   OH268020   0.214   5.433   1.987  0.0146  0.5730  0.3984
15510TIP3    H168021   0.293   5.475   1.952 -0.4487  0.9255 -0.2289
15510TIP3    H268022   0.156   5.505   2.008 -0.4804  0.2815  0.0454
15511TIP3   OH268023   1.772   5.534  11.291  0.2131  0.0711 -0.3012
15511TIP3    H168024   1.802   5.621  11.263  1.5369 -0.1128  0.5176
15511TIP3    H268025   1.736   5.549  11.379 -0.4350 -0.0527 -0.5392
15512TIP3   OH268026   5.063   0.578  12.554  0.2715 -0.0114  0.3154
15512TIP3    H168027   5.066   0.483  12.548  2.5450  0.1029 -1.1686
15512TIP3    H268028   5.033   0.596  12.643  0.2734 -2.1230  0.7569
15513TIP3   OH268029   2.154   5.106  15.171  0.2098 -0.3153  0.0571
15513TIP3    H168030   2.178   5.182  15.117  0.7663  1.1032  2.2246
15513TIP3    H268031   2.233   5.052  15.171  0.8122  0.5307  0.8116
15514TIP3   OH268032   4.518   3.394  14.701  0.1433 -0.3003  0.7462
15514TIP3    H168033   4.509   3.488  14.686  1.0924 -0.6101 -1.9061
15514TIP3    H268034   4.611   3.376  14.684 -0.5114 -2.0963 -0.9584
15515TIP3   OH268035   5.992   5.734  13.486 -0.8075  0.4396  0.4132
15515TIP3    H168036   5.918   5.738  13.425 -0.3239  1.5935 -0.1046
15515TIP3    H268037   5.960   5.775  13.566 -1.3736 -0.8905  0.8907
15516TIP3   OH268038   0.942   0.365  12.039  0.2020 -0.0575  0.5453
15516TIP3    H168039   0.992   0.302  11.987  1.8896  1.8408 -0.1724
15516TIP3    H268040   0.993   0.375  12.119 -0.4325 -0.0868  0.9644
15517TIP3   OH268041   1.210   0.436   1.523  0.0319 -0.2046 -0.5979
15517TIP3    H168042   1.256   0.481   1.452  2.2927  0.6367  1.3329
15517TIP3    H268043   1.210   0.499   1.595 -1.5457 -1.3242  0.4191
15518TIP3   OH268044   6.466   6.227  15.960  0.0882 -0.6056  0.2028
15518TIP3    H168045   6.480   6.256  15.869  1.4562 -0.7693  0.3410
15518TIP3    H268046   6.375   6.250  15.979 -0.3279 -0.9205 -1.3367
15519TIP3   OH268047   3.469   1.270  17.092  0.3941  0.4864 -0.6377
15519TIP3    H168048   3.488   1.346  17.147 -1.9797 -0.0051  0.9538
15519TIP3    H268049   3.470   1.303  17.003  0.3484  2.1695 -0.0218
15520TIP3   OH268050   6.175   0.117  13.946  0.0062  0.1197 -0.1493
15520TIP3    H168051   6.236   0.092  13.877  1.0126  1.8899  0.0612
15520TIP3    H268052   6.183   0.212  13.952 -1.7078  0.2339  0.8885
15521TIP3   OH268053   1.816   5.211  15.448  0.4506  0.0304  0.5060
15521TIP3    H168054   1.891   5.245  15.400 -0.7757  1.6911 -0.2616
15521TIP3    H268055   1.797   5.126  15.406  0.2853  0.8037 -1.0271
15522TIP3   OH268056   5.546   5.914  11.639  0.1513  0.2909 -0.2677
15522TIP3    H168057   5.550   5.968  11.560 -0.0240 -0.9508 -1.1366
15522TIP3    H268058   5.543   5.977  11.711 -0.4681  1.4463 -1.2862
15523TIP3   OH268059   3.160   2.824  15.016  0.1727 -0.1744 -0.3824
15523TIP3    H168060   3.201   2.875  14.946 -2.5932  0.5930 -1.5095
15523TIP3    H268061   3.183   2.870  15.096  1.5584  0.1790 -0.9636
15524TIP3   OH268062   2.159   0.344  15.548 -0.0124  0.0971  0.1850
15524TIP3    H168063   2.174   0.326  15.641 -1.6921  1.6267  0.7807
15524TIP3    H268064   2.064   0.350  15.540  0.1143 -0.1306 -1.6636
15525TIP3   OH268065   4.942   4.810  13.943 -0.2804 -0.0967  0.2832
15525TIP3    H168066   5.016   4.868  13.963  0.0582 -0.8041  1.1316
15525TIP3    H268067   4.867   4.868  13.936  0.2582  0.5708  0.0238
15526TIP3   OH268068   0.760   5.167   2.743  0.1299  0.7838  0.4351
15526TIP3    H168069   0.852   5.173   2.718  0.7020  0.9565  2.4544
15526TIP3    H268070   0.762   5.157   2.838 -1.8949 -0.7374  0.3560
15527TIP3   OH268071   0.090   4.120   3.568  0.3534  0.3634  0.0317
15527TIP3    H168072   0.007   4.102   3.613 -0.3436 -0.3396 -1.4948
15527TIP3    H268073   0.153   4.136   3.638 -0.6060 -1.1369  1.2581
15528TIP3   OH268074   0.773   1.412   0.765 -0.9645 -0.4950  0.2872
15528TIP3    H168075   0.782   1.435   0.672 -0.8180 -3.1928 -0.4036
15528TIP3    H268076   0.853   1.445   0.805 -1.4152  1.4859 -0.3325
15529TIP3   OH268077   6.294   1.725  10.971  0.0115 -0.2387 -0.5343
15529TIP3    H168078   6.256   1.777  10.900  1.8838  0.3703 -1.1251
15529TIP3    H268079   6.261   1.765  11.051  3.5333  3.6632 -0.8760
15530TIP3   OH268080   4.141   3.261  13.089 -0.5671 -0.4071  0.2148
15530TIP3    H168081   4.205   3.231  13.153 -0.0869  0.6354  0.2301
15530TIP3    H268082   4.169   3.349  13.066 -1.7286 -0.1219 -0.1412
15531TIP3   OH268083   4.781   5.775   4.725  0.6681  0.2418  0.2542
15531TIP3    H168084   4.780   5.783   4.821 -1.2414  0.8545  0.2019
15531TIP3    H268085   4.730   5.850   4.694 -0.3236 -0.9971 -1.1741
15532TIP3   OH268086   2.505   0.992  11.631 -0.1562 -0.4731  0.2234
15532TIP3    H168087   2.582   0.943  11.661 -0.9409 -1.2085  1.0842
15532TIP3    H268088   2.506   0.981  11.536 -0.0719 -1.8196  0.3668
15533TIP3   OH268089   1.349   6.624   0.180  0.1096 -0.4479 -0.2875
15533TIP3    H168090   1.331   6.530   0.185  0.8037 -0.5163  1.1820
15533TIP3    H268091   1.422   6.631   0.118  0.2430 -0.9040 -0.1850
15534TIP3   OH268092   4.998   3.030  12.612 -0.2128 -0.0621 -0.2662
15534TIP3    H168093   4.908   3.042  12.640 -0.3081  1.0272 -1.0258
15534TIP3    H268094   4.994   2.961  12.546 -0.2869 -1.0240  0.7256
15535TIP3   OH268095   0.397   4.892  14.466 -0.3686  0.3987  0.1175
15535TIP3    H168096   0.361   4.958  14.406 -0.9037  0.6092  0.6761
15535TIP3    H268097   0.478   4.864  14.423 -1.2187 -0.1347 -1.1807
15536TIP3   OH268098   4.629   3.599   5.944 -0.5644 -0.1565 -0.0077
15536TIP3    H168099   4.668   3.513   5.958 -0.7229  0.0971  2.1188
15536TIP3    H268100   4.679   3.637   5.872  0.9296 -1.1479  0.4947
15537TIP3   OH268101   2.277   0.322  12.408  0.0278 -0.5320  0.2266
15537TIP3    H168102   2.257   0.245  12.355 -0.1071  0.6413 -1.4612
15537TIP3    H268103   2.372   0.331  12.402  0.0067 -0.3671  0.1398
15538TIP3   OH268104   2.510   3.508  11.707  0.0835  0.6147  0.3621
15538TIP3    H168105   2.519   3.552  11.792 -0.3687 -0.2816  0.8932
15538TIP3    H268106   2.430   3.455  11.716 -0.0511  0.6354 -0.6790
15539TIP3   OH268107   0.376   2.503  16.104  0.4348 -0.0088 -0.5522
15539TIP3    H168108   0.454   2.503  16.160 -0.9852 -1.2815  1.5175
15539TIP3    H268109   0.379   2.588  16.059  3.9739 -0.7871 -1.9766
15540TIP3   OH268110   5.168   3.623  13.964  0.6215 -0.1115 -0.0940
15540TIP3    H168111   5.093   3.682  13.966  0.6649 -0.0655  0.7529
15540TIP3    H268112   5.151   3.564  13.891 -0.3138 -0.1907  0.1873
15541TIP3   OH268113   4.733   6.180   2.174 -0.4701  0.6064  0.1129
15541TIP3    H168114   4.755   6.121   2.247 -0.2528  1.9630  1.1664
15541TIP3    H268115   4.747   6.267   2.209 -0.2341  1.2833 -1.6288
15542TIP3   OH268116   1.643   6.315  16.013  0.2180 -0.0201 -0.4705
15542TIP3    H168117   1.712   6.249  16.015 -1.0716 -1.4089 -0.7593
15542TIP3    H268118   1.572   6.274  15.963 -2.5066 -0.3284  3.4025
15543TIP3   OH268119   2.298   6.117   0.031 -0.6477 -0.1059 -0.3045
15543TIP3    H168120   2.317   6.183  -0.035 -0.1910  0.0407 -0.0281
15543TIP3    H268121   2.365   6.050   0.017 -1.1342 -0.5307 -0.6102
15544TIP3   OH268122   5.044   3.925  17.237  0.5351 -0.0357  0.5794
15544TIP3    H168123   5.109   3.958  17.299  0.9174 -0.1407  0.2385
15544TIP3    H268124   5.095   3.895  17.162  0.0489  0.5607 -0.0057
15545TIP3   OH268125   1.555   5.722  16.381 -0.4845  0.2182  0.3676
15545TIP3    H168126   1.548   5.648  16.322 -0.6322 -1.4687  2.4401
15545TIP3    H268127   1.573   5.683  16.467 -3.1878  2.3789  2.0136
15546TIP3   OH268128   5.768   2.773   4.615 -0.2049  0.1086  0.2912
15546TIP3    H168129   5.750   2.805   4.704  3.5680  0.0884  1.1221
15546TIP3    H268130   5.747   2.679   4.619 -0.4997  0.2021  1.0080
15547TIP3   OH268131   3.353   3.864   1.212 -0.0820  0.2239 -0.0975
15547TIP3    H168132   3.414   3.816   1.156 -0.4502  2.6347 -2.6409
15547TIP3    H268133   3.401   3.876   1.294  2.3581  0.8596 -1.5745
15548TIP3   OH268134   0.311   4.358  15.494 -0.0703  0.4138 -0.2024
15548TIP3    H168135   0.269   4.280  15.532  2.8230 -0.7292  0.7664
15548TIP3    H268136   0.326   4.335  15.403 -0.1330  0.2168 -0.1651
15549TIP3   OH268137   4.365   1.272  13.026 -0.0831 -0.4640  0.0949
15549TIP3    H168138   4.286   1.269  12.972  0.6821 -0.3224 -1.0517
15549TIP3    H268139   4.356   1.197  13.085 -0.9411 -0.6060 -0.1997
15550TIP3   OH268140   1.038   5.167   2.768 -0.0880 -0.2058  0.3828
15550TIP3    H168141   1.069   5.122   2.689  0.2011  0.6030  0.0233
15550TIP3    H268142   0.992   5.100   2.818  1.2497 -1.1440  0.3633
15551TIP3   OH268143   6.413   3.120  13.524 -0.2432 -0.9268  0.9288
15551TIP3    H168144   6.461   3.176  13.586 -0.7387 -0.2983  0.7466
15551TIP3    H268145   6.362   3.061  13.580 -0.9468 -0.1390  1.1201
15552TIP3   OH268146   4.586   5.806  13.448  0.2716  0.5222 -0.0863
15552TIP3    H168147   4.553   5.865  13.517  0.7623 -0.1846  0.7673
15552TIP3    H268148   4.642   5.862  13.394  1.0277  0.7729  0.9392
15553TIP3   OH268149   1.750   1.286   0.659  0.1719 -0.8484 -0.5341
15553TIP3    H168150   1.705   1.369   0.640  3.1734  1.2745  1.2980
15553TIP3    H268151   1.753   1.282   0.754  0.3861 -2.9283 -0.6161
15554TIP3   OH268152   4.186   0.205   2.987 -0.8135  0.2375 -0.2532
15554TIP3    H168153   4.182   0.266   2.914 -0.7601 -0.2666 -0.6754
15554TIP3    H268154   4.170   0.259   3.064 -0.5699  0.8185 -0.6107
15555TIP3   OH268155   2.450   2.259  16.542  0.3280  0.1315  0.2016
15555TIP3    H168156   2.544   2.241  16.547  0.5640  0.1363 -2.8323
15555TIP3    H268157   2.443   2.354  16.536  0.1157  0.1354  0.4800
15556TIP3   OH268158   3.305   5.725  13.723  0.2067 -0.4330  0.3537
15556TIP3    H168159   3.347   5.752  13.642  0.3434 -1.3462  0.1090
15556TIP3    H268160   3.220   5.690  13.696 -0.5054  0.9264  0.7906
15557TIP3   OH268161   4.450   4.210  12.684 -0.2318  0.9162 -0.9969
15557TIP3    H168162   4.483   4.120  12.681 -2.0581  0.1501  0.5609
15557TIP3    H268163   4.529   4.264  12.692  0.8332 -0.6395 -0.7593
15558TIP3   OH268164   1.765   0.497   1.254  0.4771  0.0882 -0.2828
15558TIP3    H168165   1.688   0.440   1.255  2.4360 -2.7570 -2.9450
15558TIP3    H268166   1.755   0.550   1.175  1.8323 -1.2289 -1.3754
15559TIP3   OH268167   1.300   2.584  13.659 -0.2851 -0.5623 -0.2968
15559TIP3    H168168   1.254   2.526  13.720 -0.3229 -0.3407 -0.1159
15559TIP3    H268169   1.265   2.671  13.677 -0.8983 -0.6174 -1.2017
15560TIP3   OH268170   4.211   1.465   3.153 -0.5150  0.2328  0.2263
15560TIP3    H168171   4.255   1.423   3.080 -1.8827 -1.4886  0.3567
15560TIP3    H268172   4.174   1.546   3.116  1.1748  0.7820 -0.2911
15561TIP3   OH268173   6.106   6.705  11.710  0.5260  0.2794  0.2391
15561TIP3    H168174   6.126   6.797  11.693  1.9528 -0.4733 -2.3952
15561TIP3    H268175   6.070   6.672  11.628  1.1901 -1.8192  0.7476
15562TIP3   OH268176   2.125   6.008   4.213  0.2510 -0.1455  0.1695
15562TIP3    H168177   2.181   6.085   4.226 -1.5480  1.2450 -0.1248
15562TIP3    H268178   2.139   5.983   4.122  0.5701  0.0474  0.1637
15563TIP3   OH268179   6.510   1.956   6.495  0.0591  0.0327  0.2776
15563TIP3    H168180   6.576   1.952   6.565  0.6248 -0.5440 -0.2827
15563TIP3    H268181   6.491   1.864   6.476  0.6975  0.1709 -1.0677
15564TIP3   OH268182   1.501   6.607  16.051  0.0320  0.0516 -0.0070
15564TIP3    H168183   1.485   6.692  16.092  1.5192  0.7493 -0.8602
15564TIP3    H268184   1.452   6.611  15.969 -0.1977 -0.0608  0.1227
15565TIP3   OH268185   3.384   1.080   4.184 -0.0100 -0.1207  0.9395
15565TIP3    H168186   3.418   1.006   4.133 -1.1693 -0.2572  0.3450
15565TIP3    H268187   3.424   1.157   4.145 -3.3063  0.0750 -2.3219
15566TIP3   OH268188   3.192   1.755  13.546 -0.3593 -0.1730 -0.1330
15566TIP3    H168189   3.223   1.685  13.488  0.3515  0.7265 -0.8582
15566TIP3    H268190   3.117   1.793  13.500  0.2384  0.5785 -0.5101
15567TIP3   OH268191   4.224   1.114   3.652  0.1084 -0.2679 -0.1243
15567TIP3    H168192   4.176   1.089   3.731  2.5156  2.2960  2.2620
15567TIP3    H268193   4.271   1.034   3.627 -2.3816 -1.7363 -0.3176
15568TIP3   OH268194   2.061   4.612  15.148 -0.0195 -0.0101  0.4194
15568TIP3    H168195   2.022   4.699  15.135  2.5116  0.9557 -1.3288
15568TIP3    H268196   2.049   4.594  15.241 -1.5230  1.7594  0.6073
15569TIP3   OH268197   2.390   4.386   0.571 -0.2125 -0.3186  0.4740
15569TIP3    H168198   2.394   4.426   0.484 -2.4342 -1.6175 -0.2571
15569TIP3    H268199   2.313   4.330   0.568 -0.5934 -0.0189  3.4588
15570TIP3   OH268200   5.675   0.419   5.597 -0.4811  0.0974 -0.5067
15570TIP3    H168201   5.711   0.424   5.686 -0.8106  0.0000 -0.3702
15570TIP3    H268202   5.633   0.333   5.593  0.3879 -0.3082 -1.0746
15571TIP3   OH268203   1.061   0.923   0.127 -0.5351  0.5402  0.3549
15571TIP3    H168204   0.983   0.900   0.177 -0.2563 -0.0687  0.5080
15571TIP3    H268205   1.095   0.840   0.096  0.3693  0.7576  0.7550
15572TIP3   OH268206   4.754   4.085  14.865  0.0038 -0.5094  0.6609
15572TIP3    H168207   4.725   4.167  14.906  2.6016  0.9661 -0.3155
15572TIP3    H268208   4.789   4.033  14.937 -0.1778 -0.0836  1.0579
15573TIP3   OH268209   6.211   4.324   4.443  0.3358  0.0971 -0.5502
15573TIP3    H168210   6.296   4.343   4.481  1.0288 -0.3390 -1.8409
15573TIP3    H268211   6.149   4.373   4.497  1.4312  0.7089  0.1789
15574TIP3   OH268212   0.545   1.994  16.865 -0.2508  0.1101  0.3236
15574TIP3    H168213   0.553   2.042  16.783 -0.2907  0.3241  0.4443
15574TIP3    H268214   0.625   2.017  16.913 -1.1078  1.4769  1.1242
15575TIP3   OH268215   5.013   0.521   3.512 -0.4562 -0.1184  0.4399
15575TIP3    H168216   4.963   0.444   3.540  0.1099 -1.1613 -1.3168
15575TIP3    H268217   4.947   0.582   3.480 -1.0349  0.7461  3.2095
15576TIP3   OH268218   6.576   4.902   2.907  0.4579 -0.4275 -0.0334
15576TIP3    H168219   6.581   4.975   2.969  1.5969 -1.2464  0.8783
15576TIP3    H268220   6.511   4.843   2.945 -0.7285  0.2628 -0.9556
15577TIP3   OH268221   3.057   6.145   3.239  0.4019 -0.5750 -0.2983
15577TIP3    H168222   3.010   6.112   3.316  2.2765 -0.1161  1.1080
15577TIP3    H268223   3.055   6.240   3.249  0.5332 -0.5091 -0.8932
15578TIP3   OH268224   6.452   1.576   3.667 -0.0116  0.4357 -0.4964
15578TIP3    H168225   6.395   1.500   3.656  2.1988 -1.0370 -2.2367
15578TIP3    H268226   6.522   1.545   3.725  0.4746  1.4031 -0.5612
15579TIP3   OH268227   5.836   1.360  11.456  0.9216 -0.0051 -0.5111
15579TIP3    H168228   5.824   1.317  11.371 -0.2357 -1.5157  0.3964
15579TIP3    H268229   5.864   1.290  11.515  2.4570  1.1757  0.2115
15580TIP3   OH268230   5.137   3.622  16.402  0.8829  0.7057  0.3498
15580TIP3    H168231   5.100   3.536  16.419  1.0919  0.2427 -1.4871
15580TIP3    H268232   5.185   3.643  16.482  1.5889 -1.2800  0.4775
15581TIP3   OH268233   3.015   3.473  14.652 -0.2432  0.0788  0.4573
15581TIP3    H168234   3.098   3.447  14.612 -0.3777 -1.2365  0.9873
15581TIP3    H268235   3.039   3.505  14.739 -0.1819  0.7445  0.1948
15582TIP3   OH268236   3.618   2.219  14.105 -0.7327  0.0368  0.4762
15582TIP3    H168237   3.631   2.262  14.189 -1.4562 -0.4227  0.8228
15582TIP3    H268238   3.607   2.126  14.126  0.2527 -0.2496 -0.2187
15583TIP3   OH268239   4.814   2.547  12.235  0.1639  0.4707 -0.4367
15583TIP3    H168240   4.883   2.573  12.175  0.7153 -0.7050 -0.3192
15583TIP3    H268241   4.828   2.601  12.312  1.5376 -0.4201 -0.0420
15584TIP3   OH268242   1.677   5.662   1.384  0.1933 -0.4041 -0.5711
15584TIP3    H168243   1.665   5.720   1.310  1.9893 -1.1681 -1.4829
15584TIP3    H268244   1.669   5.718   1.461  0.3711  0.7535 -1.3968
15585TIP3   OH268245   4.797   0.568   2.332  0.2811 -0.0824  0.1889
15585TIP3    H168246   4.792   0.550   2.238 -0.7950  0.1153  0.1943
15585TIP3    H268247   4.723   0.627   2.349  2.6409  2.9160  0.5037
15586TIP3   OH268248   6.374   1.186   5.831  0.0338  0.1666  0.1212
15586TIP3    H168249   6.415   1.196   5.745 -0.4118  3.2145  0.1837
15586TIP3    H268250   6.401   1.265   5.879 -1.2923 -0.5515  2.1009
15587TIP3   OH268251   2.166   4.797   3.854 -0.3573  0.0774  0.3348
15587TIP3    H168252   2.119   4.822   3.775 -1.3299 -2.3981  0.0882
15587TIP3    H268253   2.142   4.706   3.869  2.0885 -0.3818  1.8528
15588TIP3   OH268254   5.450   3.988  14.167 -0.3791 -0.3638 -0.0385
15588TIP3    H168255   5.355   4.004  14.164 -0.1337  0.9064 -1.8630
15588TIP3    H268256   5.465   3.918  14.104  0.0708  0.4989 -0.9112
15589TIP3   OH268257   5.263   1.136  11.771  0.1270 -0.3030  0.5842
15589TIP3    H168258   5.308   1.055  11.795 -0.8601 -1.3766 -1.1161
15589TIP3    H268259   5.190   1.143  11.832 -1.7678 -2.4904 -1.3166
15590TIP3   OH268260   1.425   3.342   2.389 -0.0690 -0.3161 -0.3558
15590TIP3    H168261   1.489   3.290   2.341  2.0451  0.5215  1.4619
15590TIP3    H268262   1.456   3.432   2.381 -0.0245 -0.0965  2.0221
15591TIP3   OH268263   1.930   2.684   2.235  0.0485 -0.2510  0.1588
15591TIP3    H168264   2.007   2.668   2.289  0.5354  0.5205 -0.2949
15591TIP3    H268265   1.951   2.643   2.151 -1.4470 -3.0641  1.0783
15592TIP3   OH268266   0.404   3.592   5.484  0.4106 -0.3447 -0.3070
15592TIP3    H168267   0.329   3.635   5.442 -0.5438 -1.1501  0.5388
15592TIP3    H268268   0.382   3.591   5.577  1.1785 -1.1781 -0.1273
15593TIP3   OH268269   3.876   4.196   0.959 -0.4689  0.5365  1.0360
15593TIP3    H168270   3.885   4.140   0.882  1.0679 -1.4772  2.6217
15593TIP3    H268271   3.925   4.275   0.936  1.2195 -0.6385  0.4563
15594TIP3   OH268272   2.258   4.772   1.563 -0.0624 -0.1188 -0.1682
15594TIP3    H168273   2.284   4.810   1.647  0.5999 -0.4418 -0.2242
15594TIP3    H268274   2.341   4.761   1.515 -0.2926 -1.2478 -0.3140
15595TIP3   OH268275   4.227   3.665  11.963 -0.2574  0.1363  0.2325
15595TIP3    H168276   4.154   3.671  11.902  1.1057  0.3421 -1.4221
15595TIP3    H268277   4.273   3.585  11.938 -0.3217 -0.4074  1.7525
15596TIP3   OH268278   1.209   2.303  15.574 -0.0328  0.0098 -0.2447
15596TIP3    H168279   1.211   2.223  15.627  1.5830  0.2479  0.0794
15596TIP3    H268280   1.132   2.350  15.605  0.7201  0.0045  1.6875
15597TIP3   OH268281   2.721   5.686  16.702 -0.4280  0.1137 -0.3237
15597TIP3    H168282   2.798   5.677  16.645  0.7364 -1.7814  1.4659
15597TIP3    H268283   2.665   5.612  16.679 -1.0500  0.6681 -0.6132
15598TIP3   OH268284   4.216   6.486  10.862  0.4381 -0.4078  0.2578
15598TIP3    H168285   4.194   6.539  10.939  0.6340 -1.7863  1.2914
15598TIP3    H268286   4.143   6.424  10.855 -0.1477  0.4447 -1.3722
15599TIP3   OH268287   0.115   5.845   4.432  0.2525 -0.1111  0.0259
15599TIP3    H168288   0.152   5.757   4.424  1.8490  0.4291  1.1300
15599TIP3    H268289   0.083   5.849   4.522  1.0438  0.7499  0.2731
15600TIP3   OH268290   1.278   6.407   7.053 -0.0706  0.4773 -0.4338
15600TIP3    H168291   1.196   6.456   7.065  0.5988  1.4850  0.1377
15600TIP3    H268292   1.268   6.364   6.969 -1.5439 -0.1051  0.0163
15601TIP3   OH268293   6.696   3.388   5.989  0.1139 -0.6847 -0.4150
15601TIP3    H168294   6.727   3.297   5.998 -0.5459 -0.8583  0.0753
15601TIP3    H268295   6.671   3.395   5.897  0.5583 -0.8755 -0.5537
15602TIP3   OH268296   3.059   5.885   3.920 -0.1744 -0.3272 -0.0847
15602TIP3    H168297   3.048   5.963   3.974 -1.7925 -1.7180  1.6660
15602TIP3    H268298   3.125   5.833   3.967  1.0302  0.0597 -1.3353
15603TIP3   OH268299   2.996   2.441   0.481 -0.2936 -0.3179 -0.0783
15603TIP3    H168300   2.914   2.412   0.440 -0.0315 -0.0791 -0.7849
15603TIP3    H268301   3.065   2.407   0.423  0.2784 -3.3122  2.2196
15604TIP3   OH268302   1.569   3.969   1.834 -0.6285  0.3885  0.4331
15604TIP3    H168303   1.557   4.051   1.787 -0.0078 -0.2372 -0.8510
15604TIP3    H268304   1.490   3.918   1.816 -0.7191  0.4355  0.6880
15605TIP3   OH268305   0.202   1.627  14.144 -0.2871  0.0691 -0.5558
15605TIP3    H168306   0.191   1.678  14.064 -2.4276  0.9073  0.2490
15605TIP3    H268307   0.163   1.681  14.213  2.3759 -0.2025  1.2543
15606TIP3   OH268308   1.438   2.826  11.663  0.3690 -0.4392  0.4233
15606TIP3    H168309   1.510   2.838  11.725 -0.8783 -0.2006  1.8618
15606TIP3    H268310   1.476   2.848  11.578  1.8350  0.2740  1.2326
15607TIP3   OH268311   1.942   4.417   2.680  0.2017  0.3076  0.0794
15607TIP3    H168312   1.922   4.376   2.596 -1.2822  1.1666 -0.0150
15607TIP3    H268313   1.861   4.407   2.730  0.0522  2.4850  0.3047
15608TIP3   OH268314   3.845   6.723  15.189 -0.3497 -0.4642  0.2633
15608TIP3    H168315   3.927   6.772  15.195  0.3972 -1.8009  1.1539
15608TIP3    H268316   3.853   6.672  15.109 -0.1012 -0.9780  0.6167
15609TIP3   OH268317   3.550   0.322  14.498  0.4502 -0.1513  0.4030
15609TIP3    H168318   3.602   0.402  14.505  0.0193  0.1392  0.3333
15609TIP3    H268319   3.559   0.295  14.407  0.8895 -0.3879  0.5144
15610TIP3   OH268320   3.251   1.533  13.384  0.0696  0.1966 -0.3117
15610TIP3    H168321   3.176   1.477  13.402 -0.0443  0.6148  0.5805
15610TIP3    H268322   3.288   1.500  13.302 -0.4544 -0.6758 -0.1959
15611TIP3   OH268323   2.387   3.581  12.820 -0.2026  0.2978  0.2954
15611TIP3    H168324   2.402   3.639  12.895  0.7553  1.3659 -0.7087
15611TIP3    H268325   2.406   3.494  12.854  0.1575  0.7629  1.3253
15612TIP3   OH268326   3.915   0.335   6.152 -0.5387 -0.1057  0.2819
15612TIP3    H168327   3.939   0.396   6.222  0.8112 -0.3862  0.0891
15612TIP3    H268328   3.995   0.284   6.138 -0.3944  0.7627 -2.2770
15613TIP3   OH268329   2.217   3.023   5.642  0.6194 -0.0420  0.1903
15613TIP3    H168330   2.226   3.038   5.736  1.1408  0.7502  0.0116
15613TIP3    H268331   2.225   3.109   5.602  0.0995 -0.3336 -0.5652
15614TIP3   OH268332   3.508   3.930   1.690  0.1262  0.0758  0.5543
15614TIP3    H168333   3.570   3.863   1.659  1.6465  1.1970  1.1163
15614TIP3    H268334   3.489   3.982   1.612  1.6990  1.1327  0.8595
15615TIP3   OH268335   2.545   0.886  15.360 -0.1248  0.0480 -0.2472
15615TIP3    H168336   2.483   0.951  15.327 -0.2408  0.1660  0.2001
15615TIP3    H268337   2.571   0.919  15.446  0.6247  0.0467 -0.4630
15616TIP3   OH268338   5.365   5.281   3.546  0.0483 -0.2186 -0.0340
15616TIP3    H168339   5.358   5.191   3.578  2.6672  0.0706  1.5516
15616TIP3    H268340   5.459   5.298   3.542 -0.3202  1.5876 -2.8973
15617TIP3   OH268341   3.434   4.546   3.395  0.5131  0.1640  0.6493
15617TIP3    H168342   3.416   4.550   3.301 -0.3987 -1.4905  0.7406
15617TIP3    H268343   3.356   4.585   3.436  1.3591  1.8445  0.6957
15618TIP3   OH268344   3.781   5.015   2.682 -0.4230 -0.9119 -0.3358
15618TIP3    H168345   3.857   5.019   2.624  0.6862  0.7112  1.1785
15618TIP3    H268346   3.726   4.947   2.644  0.8971 -0.8059 -2.5252
15619TIP3   OH268347   2.617   4.469   5.854 -0.0486  0.3715 -0.0773
15619TIP3    H168348   2.665   4.402   5.902 -0.2669  0.8121  0.7712
15619TIP3    H268349   2.682   4.537   5.836 -0.1872  0.6601  0.4819
15620TIP3   OH268350   1.568   0.123   3.095 -0.3043  0.0873 -0.1389
15620TIP3    H168351   1.620   0.198   3.064 -1.1758  0.7718  0.0335
15620TIP3    H268352   1.559   0.067   3.018  1.3195 -0.4161  0.0106
15621TIP3   OH268353   4.056   1.236   1.658 -0.5380  0.2325  0.0522
15621TIP3    H168354   3.979   1.268   1.611  0.4563  0.8476 -1.1740
15621TIP3    H268355   4.112   1.313   1.666  0.6958 -0.6070 -0.5290
15622TIP3   OH268356   0.705   6.580   3.677  0.1168 -0.2262 -0.1809
15622TIP3    H168357   0.631   6.586   3.738 -0.4158 -0.3913 -0.8045
15622TIP3    H268358   0.782   6.595   3.732 -0.3246 -0.8185  0.6223
15623TIP3   OH268359   1.455   5.772  13.836  0.3019  0.2681 -0.9982
15623TIP3    H168360   1.525   5.823  13.795  1.9270 -0.7579  0.4232
15623TIP3    H268361   1.501   5.713  13.896 -1.7429 -0.9536 -0.6002
15624TIP3   OH268362   6.024   2.577  14.635 -0.0964  0.3826 -0.0023
15624TIP3    H168363   6.085   2.626  14.581 -1.2431  0.9216 -0.8266
15624TIP3    H268364   6.020   2.490  14.595  0.0728  0.3703  0.0073
15625TIP3   OH268365   3.084   4.664  12.733 -0.0002  0.3067  0.1230
15625TIP3    H168366   3.027   4.718  12.789  0.6445  0.9196  0.1921
15625TIP3    H268367   3.113   4.723  12.664 -1.1960 -0.5797 -1.1811
15626TIP3   OH268368   3.701   0.636   2.423  0.2569  0.2808  0.3579
15626TIP3    H168369   3.773   0.573   2.414 -1.7732 -2.4894  2.6514
15626TIP3    H268370   3.744   0.717   2.450  2.6373 -1.0068  0.5957
15627TIP3   OH268371   5.856   2.249  16.182  0.2308 -0.1904 -0.2894
15627TIP3    H168372   5.950   2.230  16.182  0.6181  1.4986 -2.1259
15627TIP3    H268373   5.847   2.324  16.241  0.4075  1.1041 -1.8627
15628TIP3   OH268374   2.884   4.014  15.278  0.0439 -0.7014  0.4600
15628TIP3    H168375   2.854   3.967  15.200 -1.8488  0.9021  0.2022
15628TIP3    H268376   2.892   3.945  15.344 -2.0558 -1.5453 -0.0973
15629TIP3   OH268377   3.392   3.025  14.148 -0.0561 -0.6472  0.4548
15629TIP3    H168378   3.409   3.092  14.082 -2.9872  0.5880  0.9068
15629TIP3    H268379   3.413   2.943  14.104 -0.2689  0.2804 -1.4198
15630TIP3   OH268380   3.352   2.305   1.131  0.0556 -1.1227  0.4260
15630TIP3    H168381   3.258   2.314   1.145 -0.0197  0.5424 -0.9907
15630TIP3    H268382   3.387   2.281   1.217 -1.6112 -1.4592  1.0305
15631TIP3   OH268383   5.381   3.305   5.202  0.2968 -0.4946 -0.4094
15631TIP3    H168384   5.434   3.287   5.124 -1.5644 -1.0387 -1.5746
15631TIP3    H268385   5.350   3.395   5.190 -0.3988 -0.7529 -0.5295
15632TIP3   OH268386   0.470   3.067  13.638  0.3460  0.2055  0.8501
15632TIP3    H168387   0.416   3.036  13.566  1.2477  1.2946 -0.3054
15632TIP3    H268388   0.407   3.093  13.705 -0.4692 -1.6410  0.8270
15633TIP3   OH268389   0.366   0.637  13.834  0.5955  0.1101 -0.0114
15633TIP3    H168390   0.412   0.575  13.890  0.4237  0.8225  0.9265
15633TIP3    H268391   0.352   0.714  13.889 -0.1471  0.5736 -0.8282
15634TIP3   OH268392   2.538   3.407   0.467 -0.6564  0.5419  0.0978
15634TIP3    H168393   2.508   3.466   0.398  0.8574  1.2562  0.0241
15634TIP3    H268394   2.586   3.463   0.528  0.0879 -0.4665  0.4627
15635TIP3   OH268395   2.457   6.150   6.020  0.5091 -0.2317 -0.4006
15635TIP3    H168396   2.488   6.233   5.983 -0.5608 -0.7090 -2.4287
15635TIP3    H268397   2.530   6.090   6.008  0.8240  0.0703 -0.0517
15636TIP3   OH268398   0.775   5.791   1.614 -0.7788 -0.0908  0.2991
15636TIP3    H168399   0.838   5.783   1.542 -0.8200  1.3019  0.0978
15636TIP3    H268400   0.733   5.876   1.600 -1.8808 -0.4942  1.0949
15637TIP3   OH268401   5.984   2.855   1.681  0.5592  0.8435 -0.5968
15637TIP3    H168402   5.994   2.934   1.733  0.4948  0.7887 -0.5013
15637TIP3    H268403   5.993   2.884   1.590  1.6413  0.7963 -0.5177
15638TIP3   OH268404   1.249   5.650  10.557  0.3003  0.1438  0.3050
15638TIP3    H168405   1.342   5.629  10.566  0.3525  0.9693  1.8971
15638TIP3    H268406   1.244   5.745  10.572 -0.8294  0.0700  0.4406
15639TIP3   OH268407   4.928   3.746   2.830  0.0955  0.2125  0.4503
15639TIP3    H168408   4.906   3.729   2.922 -1.7747  1.0690  0.1829
15639TIP3    H268409   4.863   3.695   2.781  2.1115 -1.5898 -0.4358
15640TIP3   OH268410   1.543   4.761  15.234 -0.1887  0.1999 -0.5263
15640TIP3    H168411   1.521   4.822  15.163  0.2210 -0.7292 -1.4803
15640TIP3    H268412   1.621   4.716  15.202 -0.0247 -0.2603  0.5177
15641TIP3   OH268413   5.944   3.130   4.810 -0.0671 -0.0163 -0.1174
15641TIP3    H168414   5.970   3.216   4.842  1.4798 -1.0927  1.6002
15641TIP3    H268415   6.004   3.069   4.853 -1.7468 -2.0520 -0.5813
15642TIP3   OH268416   3.604   3.860   6.048 -0.0424  0.1117 -0.2719
15642TIP3    H168417   3.600   3.825   6.137  0.2190  0.7197 -0.0190
15642TIP3    H268418   3.628   3.951   6.060  0.5142  0.0573 -0.9973
15643TIP3   OH268419   1.840   3.930   2.775 -0.1225 -0.0662 -0.3101
15643TIP3    H168420   1.841   3.913   2.681 -0.4443 -1.7398 -0.0155
15643TIP3    H268421   1.748   3.946   2.796 -0.6498 -3.7314  0.4093
15644TIP3   OH268422   5.349   5.564   0.179  0.4520  0.0489 -0.0039
15644TIP3    H168423   5.306   5.539   0.260 -0.3570 -0.1206 -0.4801
15644TIP3    H268424   5.435   5.521   0.182  0.3327 -0.1328  0.6525
15645TIP3   OH268425   2.329   5.392   2.605 -0.3554 -0.0634  0.5068
15645TIP3    H168426   2.300   5.483   2.610  2.6581  1.1722 -2.1670
15645TIP3    H268427   2.368   5.375   2.691 -3.3453  0.1919  1.9927
15646TIP3   OH268428   2.895   1.868  12.174 -0.2889 -0.3541 -0.4468
15646TIP3    H168429   2.841   1.946  12.161 -0.4809 -0.2074  1.0577
15646TIP3    H268430   2.834   1.795  12.163 -1.4152 -0.1599  3.3915
15647TIP3   OH268431   2.081   5.579   3.378  0.2428 -0.3422  0.2123
15647TIP3    H168432   2.008   5.534   3.421 -0.9987  0.5583 -0.9133
15647TIP3    H268433   2.045   5.610   3.295  1.7059  0.7696 -0.0348
15648TIP3   OH268434   5.041   6.053  13.358 -0.4408  0.9476 -0.0662
15648TIP3    H168435   5.088   6.137  13.367  2.9326 -0.9125  0.4844
15648TIP3    H268436   5.014   6.050  13.267  1.0672  1.8252 -0.5603
15649TIP3   OH268437   0.593   0.754  12.541  0.5973 -0.2851 -0.1886
15649TIP3    H168438   0.518   0.744  12.600  0.0323 -0.4674 -0.9277
15649TIP3    H268439   0.579   0.688  12.473  1.9259 -0.9537  0.1709
15650TIP3   OH268440   1.644   0.298  10.213  0.3448 -0.1514  0.7092
15650TIP3    H168441   1.701   0.363  10.172 -1.7984  1.0178 -0.4903
15650TIP3    H268442   1.685   0.281  10.298  3.1475 -0.2833 -0.6052
15651TIP3   OH268443   4.695   5.448  15.630 -0.1122 -0.4742 -0.0960
15651TIP3    H168444   4.622   5.474  15.686 -0.8029  0.3809 -1.3634
15651TIP3    H268445   4.722   5.363  15.664 -2.5445 -1.4201 -0.4336
15652TIP3   OH268446   3.581   3.053  13.117 -0.4684 -0.1975  0.3269
15652TIP3    H168447   3.530   2.973  13.107 -0.6770 -0.1106  0.6980
15652TIP3    H268448   3.575   3.096  13.032 -0.5310 -0.4718  0.1909
15653TIP3   OH268449   4.944   0.110   1.443  0.2091  0.4115 -0.3086
15653TIP3    H168450   4.948   0.179   1.377 -0.5432  1.1548  0.4138
15653TIP3    H268451   4.921   0.155   1.525 -0.8231 -0.7522  0.0675
15654TIP3   OH268452   6.692   2.150  11.114  0.2550  0.3582 -0.1204
15654TIP3    H168453   6.787   2.143  11.125  0.1806 -1.5314 -0.4096
15654TIP3    H268454   6.679   2.178  11.024  0.5536  0.9254  0.0170
15655TIP3   OH268455   1.616   4.069   6.685 -0.1604 -0.5351 -0.0876
15655TIP3    H168456   1.569   4.140   6.728 -0.3870 -0.5759 -0.2692
15655TIP3    H268457   1.577   4.063   6.598  1.0604  0.2760 -0.7009
15656TIP3   OH268458   2.553   4.676   5.471 -0.4228 -0.3639 -0.0837
15656TIP3    H168459   2.520   4.730   5.399 -0.5620 -0.1990  0.1039
15656TIP3    H268460   2.474   4.646   5.516 -0.3811 -1.5223 -0.7615
15657TIP3   OH268461   4.288   4.560   5.499  0.0328  0.0659  0.1158
15657TIP3    H168462   4.254   4.474   5.472  0.2182  0.0962 -0.2194
15657TIP3    H268463   4.370   4.569   5.450  0.3607  0.1340  0.6765
15658TIP3   OH268464   0.703   3.028   5.588  0.9214 -0.1416  0.0383
15658TIP3    H168465   0.742   3.028   5.501 -0.3330  0.3786 -0.5413
15658TIP3    H268466   0.621   3.077   5.578  0.7025 -0.1700  1.4812
15659TIP3   OH268467   4.863   5.486   1.318  0.3404 -0.0586 -0.2393
15659TIP3    H168468   4.778   5.484   1.361  1.8211 -0.5793  2.8013
15659TIP3    H268469   4.877   5.397   1.287 -0.0694 -0.0604 -0.4178
15660TIP3   OH268470   0.046   0.504   2.798  0.2247  0.1196  0.0542
15660TIP3    H168471  -0.049   0.498   2.813  0.1048 -0.8876 -0.9949
15660TIP3    H268472   0.057   0.582   2.743 -0.0508 -0.0088 -0.1865
15661TIP3   OH268473   1.304   2.709   0.948 -0.2901 -0.3750 -0.5752
15661TIP3    H168474   1.264   2.694   1.034  1.8873 -0.0502  0.5193
15661TIP3    H268475   1.241   2.765   0.903 -1.2510 -0.1499  0.9862
15662TIP3   OH268476   0.133   3.824  13.945 -0.1944  0.4425  0.2068
15662TIP3    H168477   0.051   3.804  13.899 -0.9336  1.8493  0.8600
15662TIP3    H268478   0.145   3.750  14.006 -0.4169 -0.2847 -0.6199
15663TIP3   OH268479   0.426   0.608   0.724  0.7114  0.1533  0.1704
15663TIP3    H168480   0.500   0.599   0.783  0.9509  0.5098 -0.0771
15663TIP3    H268481   0.459   0.658   0.650  0.9990 -2.0968 -1.2933
15664TIP3   OH268482   5.262   6.161  15.517 -0.0488  0.0500  0.1133
15664TIP3    H168483   5.309   6.142  15.436  0.8927 -0.5307  0.7690
15664TIP3    H268484   5.317   6.226  15.562 -0.2595 -0.0715  0.5534
15665TIP3   OH268485   3.023   2.618   3.823 -0.0160  0.1301 -0.0114
15665TIP3    H168486   2.994   2.533   3.858 -1.6444 -0.3845 -2.4576
15665TIP3    H268487   3.110   2.601   3.787 -0.1987 -0.4407 -0.1923
15666TIP3   OH268488   0.492   5.393  10.471 -0.1198  0.0796  0.3902
15666TIP3    H168489   0.458   5.305  10.453 -0.3865  0.0991  0.8006
15666TIP3    H268490   0.581   5.378  10.503 -0.1452 -0.0401  0.4050
15667TIP3   OH268491   2.881   1.644  11.136  0.8549  0.1660 -0.0820
15667TIP3    H168492   2.915   1.722  11.179 -1.5600  1.8465 -1.1429
15667TIP3    H268493   2.793   1.633  11.171  0.5196 -1.0778 -1.2412
15668TIP3   OH268494   0.086   2.753  13.380 -0.5760 -0.1327 -0.1461
15668TIP3    H168495   0.128   2.743  13.295  0.4049  1.6298  0.1141
15668TIP3    H268496   0.007   2.804  13.363  1.4471  3.3269  0.4721
15669TIP3   OH268497   5.505   2.167  15.908 -0.1590  0.5554 -0.2372
15669TIP3    H168498   5.528   2.130  15.993 -0.7345  0.5901 -0.0682
15669TIP3    H268499   5.533   2.259  15.914  1.8542  0.0203 -0.8816
15670TIP3   OH268500   4.816   0.520  11.856  0.0198  1.1059 -0.4394
15670TIP3    H168501   4.768   0.459  11.913  2.0885  1.1854  1.4262
15670TIP3    H268502   4.785   0.498  11.768 -2.8965  0.6635  0.6268
15671TIP3   OH268503   4.078   2.413  15.554 -0.2999 -0.0348  0.5805
15671TIP3    H168504   4.165   2.439  15.584  0.0366 -1.4670  0.8843
15671TIP3    H268505   4.068   2.323  15.585 -1.4450 -0.2590 -0.4029
15672TIP3   OH268506   5.998   2.211  11.634 -0.0680 -0.7590 -0.2496
15672TIP3    H168507   5.973   2.301  11.658  1.6030 -0.7496  1.6185
15672TIP3    H268508   6.076   2.221  11.581 -1.5699 -1.0025 -2.6017
15673TIP3   OH268509   3.088   4.414  16.883  0.1479 -0.3897  0.3260
15673TIP3    H168510   3.143   4.418  16.960  0.2412 -0.4663  0.2647
15673TIP3    H268511   3.112   4.331  16.841 -1.0436 -1.1342  1.0818
15674TIP3   OH268512   4.350   6.362   5.377  0.0479 -0.7273  0.0497
15674TIP3    H168513   4.424   6.336   5.431  1.2975  0.1692 -1.2047
15674TIP3    H268514   4.374   6.448   5.342 -1.5850 -0.4116 -0.3478
15675TIP3   OH268515   1.412   2.196   5.062  0.1813 -0.4347  0.3351
15675TIP3    H168516   1.470   2.236   4.998 -1.5227 -0.0585 -1.0069
15675TIP3    H268517   1.468   2.136   5.112  2.1602  1.5111  0.5167
15676TIP3   OH268518   2.293   1.987  14.955  0.1546  0.0431  0.0806
15676TIP3    H168519   2.308   1.948  15.041  1.5572  0.7774  0.1868
15676TIP3    H268520   2.203   2.019  14.959  0.2356  0.1599  1.3207
15677TIP3   OH268521   0.727   2.426  12.701  0.4767  0.5020  0.2709
15677TIP3    H168522   0.732   2.340  12.660  0.8905  0.6853 -0.0700
15677TIP3    H268523   0.662   2.474  12.649  0.9263  0.7005 -0.1156
15678TIP3   OH268524   1.258   5.526  14.444 -0.8332 -0.6422 -0.0326
15678TIP3    H168525   1.191   5.473  14.486 -1.2846 -1.7552 -2.1045
15678TIP3    H268526   1.256   5.609  14.492 -2.4434 -1.3037  1.0903
15679TIP3   OH268527   4.360   0.103  10.943 -0.6040 -0.8612  0.3989
15679TIP3    H168528   4.373   0.048  10.865 -1.2724 -0.6244  0.1169
15679TIP3    H268529   4.265   0.109  10.953 -0.5557  0.8267  0.0185
15680TIP3   OH268530   4.701   4.087   3.589 -0.4296  0.0310 -0.0654
15680TIP3    H168531   4.713   4.014   3.528 -0.3027  0.0222 -0.0316
15680TIP3    H268532   4.724   4.050   3.674  0.0367  0.2192 -0.1067
15681TIP3   OH268533   5.586   4.499   5.350 -0.2120 -0.1320 -0.7655
15681TIP3    H168534   5.515   4.473   5.291 -0.9193  1.4375 -0.6136
15681TIP3    H268535   5.604   4.590   5.327 -0.4119  0.4578  1.3446
15682TIP3   OH268536   5.572   2.143  15.465  0.2183  0.2359  0.4598
15682TIP3    H168537   5.591   2.130  15.558  1.5427  2.2126  0.5115
15682TIP3    H268538   5.641   2.204  15.435 -0.0950 -0.4938 -1.8411
15683TIP3   OH268539   0.047   0.558  10.506 -0.1829  0.0164 -0.6168
15683TIP3    H168540  -0.038   0.594  10.480 -0.2811 -0.8537 -1.5169
15683TIP3    H268541   0.025   0.475  10.548  0.1879  0.0607 -0.3380
15684TIP3   OH268542   0.570   6.692   5.128  0.1899  0.1449 -0.5317
15684TIP3    H168543   0.620   6.765   5.164 -2.5896  1.4323  0.8562
15684TIP3    H268544   0.568   6.627   5.199  0.7726 -0.3547 -0.9664
15685TIP3   OH268545   6.816   6.400   2.768  0.1855 -0.6748 -0.4286
15685TIP3    H168546   6.818   6.471   2.705  0.1294 -0.2415  0.0486
15685TIP3    H268547   6.793   6.322   2.717 -0.6543 -0.1864 -0.7973
15686TIP3   OH268548   2.165   5.314  11.560 -0.2575  0.3555  0.3735
15686TIP3    H168549   2.145   5.220  11.563 -0.0643  0.2596 -1.1186
15686TIP3    H268550   2.258   5.320  11.579  0.0254  0.1242 -0.9133
15687TIP3   OH268551   2.773   5.858  14.275 -0.3711  0.4396  0.1560
15687TIP3    H168552   2.808   5.923  14.337  2.4592 -0.0268 -0.8569
15687TIP3    H268553   2.767   5.777  14.326  0.0780  0.5158  0.3327
15688TIP3   OH268554   5.218   6.643   5.804 -1.2155 -0.2043  0.6377
15688TIP3    H168555   5.309   6.643   5.834 -0.6547 -0.0228 -1.0636
15688TIP3    H268556   5.175   6.580   5.862  0.2003 -1.0599  0.7887
15689TIP3   OH268557   0.086   3.212   5.688 -0.4146 -0.1426 -0.2902
15689TIP3    H168558   0.168   3.253   5.659 -0.7724  0.7517 -0.0302
15689TIP3    H268559   0.091   3.213   5.783 -0.5021 -0.5600 -0.2814
15690TIP3   OH268560   6.166   3.865   0.459 -0.0636 -0.4480  0.1007
15690TIP3    H168561   6.145   3.802   0.390  1.1285 -0.8670  0.1090
15690TIP3    H268562   6.241   3.913   0.426 -1.1137  1.1577 -0.0033
15691TIP3   OH268563   4.341   3.678  16.235 -0.1416  0.2632  0.0860
15691TIP3    H168564   4.364   3.626  16.158  0.7904  0.8749 -0.0560
15691TIP3    H268565   4.291   3.752  16.201  2.4616  1.9347 -0.2680
15692TIP3   OH268566   3.243   1.653  16.902 -0.2657  1.2453  0.0689
15692TIP3    H168567   3.262   1.629  16.992  2.6507  1.0473 -0.5739
15692TIP3    H268568   3.277   1.742  16.892 -1.0359  1.4676 -0.7043
15693TIP3   OH268569   6.314   3.805  13.745 -0.2468  0.0403 -0.1742
15693TIP3    H168570   6.324   3.757  13.827  1.1408 -1.9612 -1.4607
15693TIP3    H268571   6.313   3.897  13.771 -1.1822 -0.5902  2.1982
15694TIP3   OH268572   4.253   4.360   0.095  0.0104  0.3705 -0.3426
15694TIP3    H168573   4.187   4.425   0.072 -3.0994 -3.0409 -1.4078
15694TIP3    H268574   4.277   4.318   0.013  1.7283 -0.0971  0.3617
15695TIP3   OH268575   0.007   5.418   0.295 -0.2238 -0.2073  0.0315
15695TIP3    H168576  -0.026   5.402   0.207 -0.0330  0.1285 -0.1022
15695TIP3    H268577   0.075   5.485   0.284  0.0616 -0.4324  0.3844
15696TIP3   OH268578   3.750   4.645   1.818  0.0035  0.3824  0.3399
15696TIP3    H168579   3.844   4.653   1.800  0.0802 -0.4751  0.3215
15696TIP3    H268580   3.730   4.719   1.875  0.1767  2.0282 -1.6733
15697TIP3   OH268581   2.405   3.609   1.250  0.3248  0.4774 -0.3380
15697TIP3    H168582   2.485   3.661   1.256 -0.5974  2.1405 -2.0690
15697TIP3    H268583   2.415   3.559   1.169  0.8167 -1.4724  0.8666
15698TIP3   OH268584   5.192   5.020   4.205 -0.5458 -0.2004 -0.2472
15698TIP3    H168585   5.162   4.988   4.120 -1.2977 -0.4240  0.0926
15698TIP3    H268586   5.122   5.079   4.234 -1.0916 -1.3746  0.9362
15699TIP3   OH268587   5.859   2.226  15.012  0.3117  1.2131 -0.2162
15699TIP3    H168588   5.847   2.185  15.098  1.1010  0.2139 -0.5647
15699TIP3    H268589   5.952   2.250  15.010  0.3950  0.8579 -0.9366
15700TIP3   OH268590   4.284   0.092  11.604  0.2873  0.9785  0.0593
15700TIP3    H168591   4.333   0.174  11.608 -1.3855  2.0659 -1.4470
15700TIP3    H268592   4.204   0.109  11.653 -0.1975  0.3235 -0.4899
15701TIP3   OH268593   2.785   2.488   4.513  0.7902 -0.2288 -0.3391
15701TIP3    H168594   2.760   2.499   4.604 -1.7991 -0.1649 -1.0135
15701TIP3    H268595   2.866   2.537   4.503 -1.1655  3.4426  0.9039
15702TIP3   OH268596   2.304   3.445   4.060  0.0382 -0.3229  0.3163
15702TIP3    H168597   2.371   3.376   4.059 -1.3145 -1.6635 -2.0004
15702TIP3    H268598   2.321   3.495   3.980 -0.9280  0.0885  0.3647
15703TIP3   OH268599   2.875   5.330  16.933  0.4533 -0.1424  0.5023
15703TIP3    H168600   2.853   5.241  16.963 -0.9263 -0.0209 -0.0918
15703TIP3    H268601   2.968   5.325  16.909  0.3024 -1.5295  0.1485
15704TIP3   OH268602   6.679   5.022  14.554 -0.3330 -0.0430 -0.3601
15704TIP3    H168603   6.678   5.063  14.640 -0.1759 -1.8152  0.5117
15704TIP3    H268604   6.748   5.068  14.506  0.0800  0.4545  0.7028
15705TIP3   OH268605   5.163   6.119  14.521 -0.7029  0.9700  0.4553
15705TIP3    H168606   5.241   6.172  14.506 -0.4709  0.4201 -0.3547
15705TIP3    H268607   5.197   6.034  14.548 -0.8653 -0.2267 -2.8297
15706TIP3   OH268608   2.648   3.364  11.356 -0.1684 -0.3610 -0.3462
15706TIP3    H168609   2.670   3.407  11.274 -0.7182  2.4819  0.9290
15706TIP3    H268610   2.732   3.345  11.397  0.1168 -2.1697 -1.7135
15707TIP3   OH268611   2.359   0.095   0.572 -0.2928  0.5767  0.2508
15707TIP3    H168612   2.268   0.121   0.558 -0.1257  1.9173  1.5602
15707TIP3    H268613   2.354   0.025   0.637 -0.4988 -0.4533 -0.8616
15708TIP3   OH268614   1.009   1.412  13.766 -0.2543 -0.1545 -0.3172
15708TIP3    H168615   0.968   1.499  13.774 -0.6982 -0.5132  1.5971
15708TIP3    H268616   0.947   1.362  13.713 -1.2725 -0.0673  0.7806
15709TIP3   OH268617   2.704   2.654  16.232  0.0514 -0.5168  0.3171
15709TIP3    H168618   2.609   2.669  16.233  0.0955 -0.2119  0.1363
15709TIP3    H268619   2.741   2.739  16.205  0.4465 -0.3019  1.5151
15710TIP3   OH268620   1.237   5.171   1.568 -0.1703  0.0626  0.1632
15710TIP3    H168621   1.198   5.162   1.481 -1.1149  1.4615  0.4312
15710TIP3    H268622   1.209   5.257   1.599  0.7909 -0.0940  1.5437
15711TIP3   OH268623   4.252   4.404  13.815 -0.3441 -0.0052 -0.4940
15711TIP3    H168624   4.227   4.474  13.755 -2.1161  0.6411  0.9369
15711TIP3    H268625   4.239   4.441  13.902 -1.7390 -2.2229  0.2934
15712TIP3   OH268626   6.731   0.669  11.908 -0.0721 -0.5334 -0.9220
15712TIP3    H168627   6.641   0.641  11.893 -0.8794  1.2928  0.2856
15712TIP3    H268628   6.754   0.717  11.828 -1.3452  1.7787  0.0335
15713TIP3   OH268629   1.710   4.074  15.402 -0.4668 -0.1700 -0.2155
15713TIP3    H168630   1.773   4.094  15.471  0.7636 -1.0136 -1.0646
15713TIP3    H268631   1.636   4.035  15.448 -0.0766  0.1903  0.7353
15714TIP3   OH268632   5.734   1.258   2.501  0.3801 -0.3244  0.1335
15714TIP3    H168633   5.646   1.268   2.464  0.3079 -0.5841  0.2356
15714TIP3    H268634   5.752   1.164   2.497  0.4497 -0.3330  0.5728
15715TIP3   OH268635   5.063   5.189   0.633 -0.3187 -0.4935  0.5153
15715TIP3    H168636   5.049   5.189   0.538 -0.8338  0.4020  0.5786
15715TIP3    H268637   5.084   5.281   0.653  1.3213 -0.9743  1.0496
15716TIP3   OH268638   2.510   3.014   6.091 -0.1094 -0.0798 -0.5446
15716TIP3    H168639   2.473   3.083   6.147  1.7186  0.3942  0.1101
15716TIP3    H268640   2.459   2.936   6.113  1.1499 -0.1387  2.5042
15717TIP3   OH268641   2.660   4.795  11.150  0.0875 -0.1034 -0.1573
15717TIP3    H168642   2.753   4.801  11.130  0.2191 -2.3519 -0.2944
15717TIP3    H268643   2.646   4.861  11.218  1.6563  0.6316 -0.5295
15718TIP3   OH268644   2.715   0.446   2.999 -0.0033  0.6997  0.0283
15718TIP3    H168645   2.719   0.447   3.094  0.4249 -0.9140  0.0471
15718TIP3    H268646   2.804   0.464   2.970  0.1792 -0.2478 -0.0317
15719TIP3   OH268647   6.659   0.166   1.167 -0.4826 -0.5141 -0.3896
15719TIP3    H168648   6.663   0.217   1.248 -2.2868  0.7964 -1.0956
15719TIP3    H268649   6.608   0.089   1.189 -0.2070 -0.6092 -0.0679
15720TIP3   OH268650   5.721   0.573  16.337 -0.2501 -0.2472 -0.1511
15720TIP3    H168651   5.714   0.667  16.322  0.2325 -0.2386 -0.3391
15720TIP3    H268652   5.767   0.565  16.420 -0.8595 -0.3139  0.1827
15721TIP3   OH268653   5.125   5.278   3.401 -0.0273 -0.0908  0.5800
15721TIP3    H168654   5.068   5.271   3.477 -1.8075 -0.3133 -0.7420
15721TIP3    H268655   5.214   5.277   3.437 -0.8468  0.0197  2.6480
15722TIP3   OH268656   4.458   1.515   3.304  0.0252 -0.1897  0.2565
15722TIP3    H168657   4.514   1.500   3.228  1.0497 -2.2714  1.3899
15722TIP3    H268658   4.369   1.513   3.268  0.5752  1.8776 -1.3506
15723TIP3   OH268659   6.179   0.018  17.112 -0.2731 -0.3415 -0.0064
15723TIP3    H168660   6.212   0.041  17.199 -0.3614  0.6893 -0.2487
15723TIP3    H268661   6.183  -0.078  17.110 -1.8569 -0.4636  1.7421
15724TIP3   OH268662   1.354   1.530   2.902 -0.3941 -0.3891 -0.1708
15724TIP3    H168663   1.300   1.540   2.823 -0.9756  0.9750  0.3825
15724TIP3    H268664   1.298   1.560   2.973  0.7528  0.0754  0.5450
15725TIP3   OH268665   1.529   1.102   6.348 -0.4146 -0.5011 -0.3941
15725TIP3    H168666   1.446   1.073   6.386 -1.1346 -0.9902 -2.2993
15725TIP3    H268667   1.505   1.138   6.263  1.1735  0.6661 -0.3644
15726TIP3   OH268668   3.957   2.677  16.932  0.3545 -0.2957  0.2422
15726TIP3    H168669   4.049   2.697  16.918  0.1308 -0.6153 -1.8282
15726TIP3    H268670   3.915   2.763  16.944  0.7152 -0.0859 -0.0106
15727TIP3   OH268671   1.111   6.009  14.395 -0.3896 -0.1737  0.2317
15727TIP3    H168672   1.072   6.092  14.422 -0.1704  0.1908 -0.5617
15727TIP3    H268673   1.037   5.954  14.370 -0.5320 -0.2091  0.7231
15728TIP3   OH268674   6.350   3.505   0.322 -0.4609  0.2465  0.4827
15728TIP3    H168675   6.262   3.534   0.347 -1.4707 -2.0035 -0.2703
15728TIP3    H268676   6.407   3.537   0.392 -1.8160  2.1024  0.7552
15729TIP3   OH268677   0.305   3.818   2.344  0.4490 -1.0327 -0.5783
15729TIP3    H168678   0.249   3.758   2.393 -1.8028  1.3785 -0.1136
15729TIP3    H268679   0.367   3.852   2.409 -2.1589  1.7140  0.5794
15730TIP3   OH268680   5.640   1.733  15.176  0.3089  0.0907 -0.1751
15730TIP3    H168681   5.734   1.739  15.161  0.0401  0.8771 -1.7781
15730TIP3    H268682   5.614   1.822  15.199 -0.0794 -0.0437 -0.0932
15731TIP3   OH268683   2.794   4.011   5.254  0.5248 -0.3314 -0.0055
15731TIP3    H168684   2.793   4.065   5.333  0.0014 -0.7035  0.2431
15731TIP3    H268685   2.824   3.925   5.284  2.7009  0.1791 -0.6349
15732TIP3   OH268686   4.969   4.409   0.243  0.5717  0.1083 -0.1515
15732TIP3    H168687   4.964   4.458   0.325 -0.6007  1.0010 -0.7304
15732TIP3    H268688   4.963   4.317   0.269  0.1821  0.3866  0.7679
15733TIP3   OH268689   4.615   6.525  16.554 -0.4867 -0.4957  0.0870
15733TIP3    H168690   4.643   6.483  16.635 -1.9206 -1.3431  0.1743
15733TIP3    H268691   4.560   6.598  16.582 -0.4040 -0.3592 -0.1016
15734TIP3   OH268692   2.218   0.978   5.844  0.0061 -0.0847  0.2781
15734TIP3    H168693   2.161   0.992   5.769  0.6139 -0.8453 -0.3343
15734TIP3    H268694   2.218   1.062   5.890 -0.5435  0.3212 -0.4575
15735TIP3   OH268695   3.685   5.391  15.819 -0.2193 -0.1836 -0.2149
15735TIP3    H168696   3.742   5.365  15.747  0.1239 -0.7683  0.2687
15735TIP3    H268697   3.643   5.471  15.787  1.0441  0.3925 -0.4817
15736TIP3   OH268698   3.688   1.518  13.322 -0.6273  0.2487  0.0845
15736TIP3    H168699   3.666   1.438  13.275 -1.1205  0.5942 -0.2783
15736TIP3    H268700   3.757   1.558  13.269 -0.2070 -0.0619  0.3991
15737TIP3   OH268701   6.146   2.975   4.879 -0.0249  0.5300  0.0656
15737TIP3    H168702   6.176   3.004   4.965  2.8483  0.8690 -1.0200
15737TIP3    H268703   6.162   2.881   4.878 -4.0667 -0.3027  1.4346
15738TIP3   OH268704   0.683   5.374  17.153 -0.3093 -0.0032  0.4433
15738TIP3    H168705   0.639   5.373  17.068  1.8273  0.2436 -0.7057
15738TIP3    H268706   0.719   5.463  17.160 -0.3631 -0.0625  1.5536
15739TIP3   OH268707   2.494   3.618  13.778  0.2808  0.1497  0.1092
15739TIP3    H168708   2.487   3.555  13.706  1.0579 -1.2926  1.2753
15739TIP3    H268709   2.415   3.603  13.830 -0.5322  1.5387 -0.6948
15740TIP3   OH268710   4.200   2.974  13.937 -0.3163  0.0662  0.1868
15740TIP3    H168711   4.215   3.045  13.874  1.2914 -0.4105  0.0056
15740TIP3    H268712   4.266   2.989  14.005  0.6034 -1.7451 -0.2902
15741TIP3   OH268713   0.446   1.403  12.403  0.3534 -0.0275 -0.0679
15741TIP3    H168714   0.504   1.423  12.329  0.7185 -0.8805 -0.0170
15741TIP3    H268715   0.478   1.459  12.473 -1.9231  3.0790 -1.4074
15742TIP3   OH268716   3.530   5.893  12.361  0.4727 -0.5919 -0.1280
15742TIP3    H168717   3.498   5.971  12.315  1.1002 -0.0794  0.3054
15742TIP3    H268718   3.534   5.826  12.293 -1.7200 -0.7374 -0.1641
15743TIP3   OH268719   6.716   5.868   5.742 -0.6962  0.0895 -0.5206
15743TIP3    H168720   6.778   5.886   5.672 -0.3216  0.9946  0.0402
15743TIP3    H268721   6.748   5.787   5.783 -2.0038 -1.5286 -2.6070
15744TIP3   OH268722   5.367   0.407   1.042  0.3504 -0.1497 -0.3520
15744TIP3    H168723   5.274   0.421   1.025  0.0386 -1.1464  0.4939
15744TIP3    H268724   5.370   0.358   1.124  1.6024 -0.6504 -0.6759
15745TIP3   OH268725   0.318   2.944   3.577  0.0333 -0.6794  0.0067
15745TIP3    H168726   0.319   2.955   3.482  0.8467 -0.7390  0.0052
15745TIP3    H268727   0.263   3.015   3.609 -0.0913 -0.5489 -0.4951
15746TIP3   OH268728   4.044   0.276  15.642 -0.8450 -0.6661 -0.1825
15746TIP3    H168729   4.009   0.200  15.596 -2.6818 -0.4772  0.8516
15746TIP3    H268730   4.037   0.253  15.735  0.6227 -0.1019  0.0772
15747TIP3   OH268731   6.450   0.754   3.823  0.3737 -0.4666  0.0689
15747TIP3    H168732   6.427   0.673   3.867 -0.8282 -0.2967 -0.2201
15747TIP3    H268733   6.420   0.823   3.883 -0.9618 -0.2366 -0.8255
15748TIP3   OH268734   6.136   4.901   0.077 -0.0328  0.9382  0.1287
15748TIP3    H168735   6.088   4.983   0.076  0.7438  1.4052  0.5594
15748TIP3    H268736   6.197   4.910   0.151 -0.8243 -0.5205  0.9864
15749TIP3   OH268737   0.018   1.358   5.076  0.1971 -0.6625  0.1532
15749TIP3    H168738  -0.030   1.423   5.128  0.4956  0.7885 -1.3195
15749TIP3    H268739   0.060   1.410   5.007  0.1834 -2.4782 -1.2517
15750TIP3   OH268740   2.199   3.121  13.710 -0.5664  0.2511  0.2279
15750TIP3    H168741   2.170   3.138  13.799 -2.5910 -0.1631 -0.3131
15750TIP3    H268742   2.171   3.198  13.660 -1.7796 -0.6476 -0.5170
15751TIP3   OH268743   6.433   5.696  11.546 -0.1668  0.0166  0.0636
15751TIP3    H168744   6.488   5.761  11.590 -1.0737  0.6579  0.2657
15751TIP3    H268745   6.384   5.655  11.618  0.5317 -1.0154 -0.0468
15752TIP3   OH268746   0.365   3.564  15.834  0.3308  0.3195  0.0516
15752TIP3    H168747   0.311   3.643  15.823  1.0720  0.9853  1.2358
15752TIP3    H268748   0.393   3.542  15.745  0.0501  1.3419 -0.2936
15753TIP3   OH268749   5.603   3.459  11.046 -0.2477  0.6051 -0.1025
15753TIP3    H168750   5.591   3.377  10.999 -0.0907  1.3780 -1.5204
15753TIP3    H268751   5.648   3.435  11.127 -0.9306 -0.8030 -0.1379
15754TIP3   OH268752   3.990   4.466   5.332  0.1303  0.3307  0.0129
15754TIP3    H168753   3.912   4.410   5.331  1.6795 -1.9883  1.9412
15754TIP3    H268754   3.982   4.517   5.413  1.2431 -0.9638  0.9806
15755TIP3   OH268755   4.611   6.764   1.676 -0.0808  0.0778 -0.4663
15755TIP3    H168756   4.618   6.686   1.731 -2.8822 -0.6655 -1.1085
15755TIP3    H268757   4.587   6.730   1.589 -1.8558  1.6722 -0.6156
15756TIP3   OH268758   6.773   5.192  14.216 -0.5300 -0.1411 -0.5497
15756TIP3    H168759   6.833   5.173  14.145  1.0196  1.1391  0.3940
15756TIP3    H268760   6.731   5.275  14.191  1.3107  1.2346  0.8278
15757TIP3   OH268761   0.951   0.648  12.732  0.3987  0.5398 -0.2237
15757TIP3    H168762   1.000   0.577  12.691  0.3823  0.5322 -0.2304
15757TIP3    H268763   0.927   0.615  12.818 -0.0970  0.3246 -0.4444
15758TIP3   OH268764   0.850   5.064  13.569 -0.0933 -0.9255 -0.0572
15758TIP3    H168765   0.907   5.118  13.624 -0.4753 -0.4220 -0.1483
15758TIP3    H268766   0.855   5.104  13.482 -1.0824 -0.4828  0.0798
15759TIP3   OH268767   2.083   2.723   6.387 -0.0424  0.0939 -0.4324
15759TIP3    H168768   2.119   2.745   6.473 -2.1345  0.2212  0.4313
15759TIP3    H268769   2.160   2.704   6.333  1.2475 -0.9198  1.7048
15760TIP3   OH268770   1.705   2.794  13.945  0.0010  0.5151 -0.3811
15760TIP3    H168771   1.743   2.740  14.015  0.1464  1.2736  0.1368
15760TIP3    H268772   1.624   2.827  13.983  0.0031  0.8022 -0.6309
15761TIP3   OH268773   5.403   5.008  10.523  0.1826  0.2361 -0.2785
15761TIP3    H168774   5.430   5.077  10.583 -0.2374 -1.0139  1.3569
15761TIP3    H268775   5.328   5.044  10.476 -1.9959 -0.2118  2.7523
15762TIP3   OH268776   1.772   0.586   4.633  0.0717 -0.2231  0.8873
15762TIP3    H168777   1.726   0.662   4.597 -0.7211 -1.1230 -0.0266
15762TIP3    H268778   1.858   0.588   4.592 -0.5410 -0.7772 -0.4641
15763TIP3   OH268779   2.979   2.636  15.077  0.2670  0.4790 -0.2752
15763TIP3    H168780   2.914   2.696  15.042 -0.0377  1.5908  2.0754
15763TIP3    H268781   3.062   2.681  15.066  0.2077  0.6857  0.1064
15764TIP3   OH268782   6.370   4.905   4.124  0.0111  0.2721 -0.2745
15764TIP3    H168783   6.381   4.852   4.203 -0.5226 -2.1896 -1.7746
15764TIP3    H268784   6.455   4.902   4.081 -0.7032 -1.6082 -1.6485
15765TIP3   OH268785   5.423   3.172   2.259 -0.4747 -0.1036  0.2319
15765TIP3    H168786   5.360   3.241   2.278 -1.0021 -0.6803  0.6079
15765TIP3    H268787   5.475   3.163   2.340 -2.0683 -1.8718  1.1108
15766TIP3   OH268788   5.155   3.153  13.357  0.4806  0.2613  0.4905
15766TIP3    H168789   5.063   3.166  13.379 -0.1995 -0.3721 -1.8918
15766TIP3    H268790   5.188   3.240  13.337  0.5987  0.5753  1.9493
15767TIP3   OH268791   0.374   1.869  14.433 -0.5644 -0.4381 -0.3770
15767TIP3    H168792   0.356   1.923  14.510  0.5902  2.0014 -1.7662
15767TIP3    H268793   0.344   1.921  14.359  1.3549 -1.3228 -1.8200
15768TIP3   OH268794   2.837   5.857   2.403  0.1881 -0.2756  0.6316
15768TIP3    H168795   2.818   5.950   2.392 -0.4458 -0.2545  1.8358
15768TIP3    H268796   2.815   5.818   2.318  0.2994  0.6340  0.1729
15769TIP3   OH268797   3.899   2.805  11.942 -0.1634 -0.3655  0.5525
15769TIP3    H168798   3.982   2.847  11.962  0.1224 -1.2879  1.3657
15769TIP3    H268799   3.834   2.876  11.946  0.2449 -0.0574  2.3142
15770TIP3   OH268800   5.265   5.686   2.070 -0.0795 -0.6095 -0.5189
15770TIP3    H168801   5.338   5.673   2.131  1.0288 -2.1942 -2.1191
15770TIP3    H268802   5.245   5.779   2.076  1.6410 -0.2815  0.4649
15771TIP3   OH268803   2.645   0.399   1.065  0.3519  0.0934  0.4419
15771TIP3    H168804   2.676   0.461   1.131  1.4099  0.9654 -0.8320
15771TIP3    H268805   2.569   0.357   1.105 -0.2550  2.0598  1.4342
15772TIP3   OH268806   1.376   4.554   3.189  0.3010 -0.0767  0.3495
15772TIP3    H168807   1.457   4.544   3.238  0.8440  0.5146 -0.4138
15772TIP3    H268808   1.332   4.630   3.229  1.5032  1.4120 -1.0870
15773TIP3   OH268809   5.723   2.378  11.286  0.1054 -0.5195  0.1813
15773TIP3    H168810   5.753   2.312  11.223  0.6381 -1.3135  1.2472
15773TIP3    H268811   5.803   2.406  11.330 -0.2148  0.3518  0.2084
15774TIP3   OH268812   4.606   3.614  17.053  0.2173  0.5248 -0.3536
15774TIP3    H168813   4.686   3.664  17.069 -1.3444  2.1279  3.0709
15774TIP3    H268814   4.564   3.659  16.979  0.6203  2.0802  0.3340
15775TIP3   OH268815   2.553   4.982   1.668  0.2134 -0.1796  0.0806
15775TIP3    H168816   2.550   5.077   1.656 -2.0368 -0.1161  1.0332
15775TIP3    H268817   2.507   4.967   1.750  0.7822 -2.0868  0.0659
15776TIP3   OH268818   3.933   2.784  11.269 -0.7984 -0.2478 -0.1058
15776TIP3    H168819   3.868   2.714  11.258  0.6028 -1.7144  0.8255
15776TIP3    H268820   4.007   2.741  11.311  0.2794  1.7060  0.0078
15777TIP3   OH268821   1.269   1.487   0.069 -0.3959  0.6764 -0.1643
15777TIP3    H168822   1.264   1.474   0.164  1.1671  0.2584 -0.1262
15777TIP3    H268823   1.334   1.423   0.040  0.5797  2.1309 -1.2537
15778TIP3   OH268824   6.768   4.458  12.496  0.6630  0.2955  0.0787
15778TIP3    H168825   6.771   4.484  12.588 -0.6409  1.0586 -0.0851
15778TIP3    H268826   6.699   4.512  12.458 -0.8214 -2.0941 -0.6984
15779TIP3   OH268827   3.186   1.698  14.013  0.3510 -0.6287 -0.9129
15779TIP3    H168828   3.209   1.747  13.934 -1.3127 -1.5774 -2.0166
15779TIP3    H268829   3.108   1.741  14.047  0.6807 -0.6260 -0.1534
15780TIP3   OH268830   6.504   2.980  16.730 -0.0678  0.1141  0.0235
15780TIP3    H168831   6.453   3.053  16.694 -0.9328 -0.3948  0.2256
15780TIP3    H268832   6.443   2.931  16.783  0.3962 -1.0284 -0.4753
15781TIP3   OH268833   2.310   4.656  14.131  0.4040 -0.0820  0.3610
15781TIP3    H168834   2.327   4.734  14.184 -1.3040  0.6181 -0.0742
15781TIP3    H268835   2.380   4.655  14.065  0.3342  1.1845  0.2632
15782TIP3   OH268836   3.694   2.561  10.706 -0.3229 -0.2116  0.6114
15782TIP3    H168837   3.680   2.467  10.698  0.3712 -0.5255  2.8172
15782TIP3    H268838   3.768   2.579  10.647  0.1369 -1.2077  0.8726
15783TIP3   OH268839   6.616   1.273  16.800  0.0293 -0.2276  0.1504
15783TIP3    H168840   6.557   1.208  16.838 -1.5878  2.1582  1.8783
15783TIP3    H268841   6.642   1.328  16.874  1.8679  0.7204 -1.1580
15784TIP3   OH268842   5.541   1.272  13.266  0.9787 -0.9315  0.8284
15784TIP3    H168843   5.589   1.202  13.221  1.2558  0.1992 -0.6902
15784TIP3    H268844   5.460   1.231  13.297  1.4756 -2.0867  0.5868
15785TIP3   OH268845   0.433   1.179   1.462  0.3563  0.3812 -0.2431
15785TIP3    H168846   0.496   1.243   1.428  0.3337  0.5264 -0.0182
15785TIP3    H268847   0.351   1.200   1.417  1.0438 -1.4129 -2.4158
15786TIP3   OH268848   1.221   1.856  15.162 -0.0358 -0.1762  0.0431
15786TIP3    H168849   1.141   1.897  15.195  0.1981  0.7250 -0.4977
15786TIP3    H268850   1.219   1.872  15.068 -0.0958 -1.6881 -0.2329
15787TIP3   OH268851   0.303   0.244  11.729  0.2125  0.5583 -0.0460
15787TIP3    H168852   0.391   0.232  11.692  0.4607  1.3666  0.2763
15787TIP3    H268853   0.290   0.338  11.728 -0.0359  0.5485  1.3400
15788TIP3   OH268854   0.714   2.390  11.978  0.7762  0.1701  0.2473
15788TIP3    H168855   0.791   2.334  11.982  1.6836  1.4011  0.1325
15788TIP3    H268856   0.738   2.459  11.916 -0.8720 -0.1351 -0.7588
15789TIP3   OH268857   3.047   4.760  13.063  0.0598  0.2427 -0.6825
15789TIP3    H168858   2.955   4.738  13.052  0.1599 -0.7388  0.2653
15789TIP3    H268859   3.094   4.680  13.036  0.5175 -0.0855  0.9913
15790TIP3   OH268860   3.088   5.148   3.658  0.2428 -0.6257  0.0062
15790TIP3    H168861   3.145   5.213   3.698  0.5478 -0.4981 -0.6275
15790TIP3    H268862   3.006   5.194   3.642  0.1508 -0.6515  0.4005
15791TIP3   OH268863   2.181   0.648   6.573 -0.3783 -0.2396 -0.8564
15791TIP3    H168864   2.132   0.728   6.555 -1.3682 -0.9567 -1.4877
15791TIP3    H268865   2.114   0.579   6.570  0.4495 -1.0736 -0.2871
15792TIP3   OH268866   6.229   4.262   5.112 -0.3650 -0.1834  0.0485
15792TIP3    H168867   6.322   4.270   5.132 -0.3069  0.5696 -0.5052
15792TIP3    H268868   6.185   4.290   5.192 -0.1186 -2.2478  0.9374
15793TIP3   OH268869   4.077   3.564  15.004 -0.3229 -0.4048  0.6005
15793TIP3    H168870   4.154   3.615  14.979  0.3726 -0.9045  1.6802
15793TIP3    H268871   4.046   3.525  14.922 -0.6375  1.4238 -0.1843
15794TIP3   OH268872   1.155   4.496  13.808  0.0176 -0.0591 -0.3733
15794TIP3    H168873   1.130   4.421  13.861  1.3604  0.0673  0.4677
15794TIP3    H268874   1.073   4.540  13.788 -0.4561  0.3149  2.2346
15795TIP3   OH268875   6.575   0.275  16.427 -0.0107  0.3598 -0.2712
15795TIP3    H168876   6.483   0.249  16.429  0.1147 -0.2367 -1.5631
15795TIP3    H268877   6.575   0.360  16.384 -0.1739  1.4141  1.7675
15796TIP3   OH268878   2.982   2.595  12.036  0.0106 -0.0737  0.7276
15796TIP3    H168879   2.959   2.648  11.959  1.2283 -0.8833 -0.2106
15796TIP3    H268880   3.039   2.652  12.088 -0.9154  0.5204  1.1136
15797TIP3   OH268881   6.585   4.192  10.941 -0.0232 -0.3962  0.0599
15797TIP3    H168882   6.569   4.137  10.864  1.8710 -0.7178 -0.1253
15797TIP3    H268883   6.548   4.277  10.919 -1.1859 -1.0235 -0.4502
15798TIP3   OH268884   1.003   0.404   5.245 -0.6264  0.7583  0.1115
15798TIP3    H168885   0.987   0.418   5.152  0.3294 -0.2401 -0.2033
15798TIP3    H268886   1.082   0.455   5.264 -0.7166  0.8172  0.3333
15799TIP3   OH268887   3.213   2.709  14.014 -0.2214  0.2697 -0.3557
15799TIP3    H168888   3.277   2.653  13.972 -1.1989 -1.3642  0.2576
15799TIP3    H268889   3.264   2.761  14.076  0.8039  0.5995 -1.4609
15800TIP3   OH268890   5.811   3.807  10.290  0.1779  0.2198 -0.3372
15800TIP3    H168891   5.808   3.748  10.365 -0.2256  0.2848 -0.3012
15800TIP3    H268892   5.830   3.749  10.215  2.7740  0.4352  0.0972
15801TIP3   OH268893   0.459   1.510  12.943 -0.0960  0.1807  0.1637
15801TIP3    H168894   0.380   1.509  12.998 -0.3397  1.1351 -0.1483
15801TIP3    H268895   0.525   1.463  12.995 -0.3952  0.8441  1.1677
15802TIP3   OH268896   0.675   5.852  14.113  0.2308 -0.1991 -0.8101
15802TIP3    H168897   0.749   5.912  14.098 -1.6291  2.8387  1.7229
15802TIP3    H268898   0.611   5.878  14.047 -0.5953  0.6949  0.3243
15803TIP3   OH268899   3.733   4.839   2.013  0.5004 -0.2835 -0.2681
15803TIP3    H168900   3.684   4.871   2.089 -0.7040 -0.8287 -0.8126
15803TIP3    H268901   3.795   4.910   1.993 -0.7240  0.8307 -0.1800
15804TIP3   OH268902   2.841   6.315   3.633  0.5468 -0.4710 -0.0670
15804TIP3    H168903   2.787   6.237   3.625  0.1334 -0.1304 -0.6209
15804TIP3    H268904   2.908   6.292   3.698 -0.1293 -0.9640  0.4521
15805TIP3   OH268905   5.757   5.078   1.575  0.3504 -0.1270 -0.2937
15805TIP3    H168906   5.770   4.989   1.608 -1.1144  0.1120  1.0068
15805TIP3    H268907   5.845   5.112   1.561  1.0041 -0.7074  2.1686
15806TIP3   OH268908   1.293   2.220   6.020 -0.0646 -0.2464 -0.3026
15806TIP3    H168909   1.376   2.267   6.016  0.3868 -0.9803  0.4115
15806TIP3    H268910   1.266   2.212   5.929  1.3286 -1.2137 -0.6359
15807TIP3   OH268911   3.565   5.971   3.372  0.0829  0.1994 -0.5189
15807TIP3    H168912   3.527   5.892   3.412  2.6694 -1.2464 -0.7695
15807TIP3    H268913   3.574   5.949   3.279  1.9384  0.2969 -0.3820
15808TIP3   OH268914   3.014   5.731  15.276 -0.0152  0.0664 -0.2882
15808TIP3    H168915   3.023   5.636  15.289  0.1264  0.0939 -0.1916
15808TIP3    H268916   2.992   5.740  15.183  1.1382  0.0154 -0.5745
15809TIP3   OH268917   1.411   3.883   0.828  0.1861 -0.4051  0.2741
15809TIP3    H168918   1.353   3.807   0.833  0.5049 -0.5105  3.1087
15809TIP3    H268919   1.499   3.846   0.842  0.4142  0.3920  0.9611
15810TIP3   OH268920   4.255   4.476   3.295 -0.0424 -0.7119 -0.5525
15810TIP3    H168921   4.259   4.382   3.312 -0.3135 -0.4343  1.1093
15810TIP3    H268922   4.232   4.482   3.202  0.6975 -2.2753 -0.8687
15811TIP3   OH268923   3.212   5.732   1.737 -0.6519  0.0002  0.0592
15811TIP3    H168924   3.235   5.822   1.760 -2.2805  0.5792 -0.5051
15811TIP3    H268925   3.196   5.688   1.820  0.2398  0.1976  0.3385
15812TIP3   OH268926   4.670   5.539  13.394 -0.5527 -0.4055  0.5586
15812TIP3    H168927   4.579   5.511  13.385 -0.1213 -1.2127 -1.6361
15812TIP3    H268928   4.664   5.629  13.428 -2.1650 -0.4335  0.4031
15813TIP3   OH268929   3.428   4.754   0.348  0.3584 -0.1429  0.4119
15813TIP3    H168930   3.490   4.803   0.294  0.8718 -0.3609  0.8077
15813TIP3    H268931   3.451   4.662   0.335  0.7468 -0.1744  1.3246
15814TIP3   OH268932   3.442   1.375   0.520 -0.5137 -0.2051  0.4905
15814TIP3    H168933   3.505   1.438   0.484  0.6712 -0.2040  2.4538
15814TIP3    H268934   3.478   1.289   0.497 -0.2186 -0.1938  0.9002
15815TIP3   OH268935   2.305   4.788  11.464  0.4626 -0.4431  0.8859
15815TIP3    H168936   2.240   4.725  11.496  0.2113  0.2805  1.8303
15815TIP3    H268937   2.345   4.824  11.544  0.0758  1.1410  0.3797
15816TIP3   OH268938   4.895   5.170  13.286 -0.1732  0.0822 -0.2954
15816TIP3    H168939   4.827   5.129  13.339 -1.2001 -0.7378 -2.2235
15816TIP3    H268940   4.865   5.261  13.276  0.2400  0.3598  0.8462
15817TIP3   OH268941   4.172   4.890  11.295  0.5246 -0.3064 -0.1981
15817TIP3    H168942   4.137   4.862  11.210 -1.8460  0.1583  0.6008
15817TIP3    H268943   4.227   4.966  11.274  0.0800 -0.2862 -1.3188
15818TIP3   OH268944   2.536   5.705   6.055 -0.1890  0.0548 -0.1026
15818TIP3    H168945   2.449   5.732   6.025 -0.1611 -1.0473 -1.2322
15818TIP3    H268946   2.520   5.629   6.110  0.0638 -0.1463 -0.3088
15819TIP3   OH268947   1.707   4.662  13.501  0.5392 -0.5659  0.1129
15819TIP3    H168948   1.648   4.737  13.508 -0.7735 -1.4414 -1.3505
15819TIP3    H268949   1.676   4.601  13.568 -0.2105 -1.0201 -0.6479
15820TIP3   OH268950   5.390   2.085   3.531  0.4298  0.2296  0.2344
15820TIP3    H168951   5.430   2.101   3.616 -0.5036  0.6810  0.5991
15820TIP3    H268952   5.314   2.144   3.529  0.0235 -0.3141 -0.5970
15821TIP3   OH268953   0.391   3.167  14.816  0.3317 -0.2887 -0.3222
15821TIP3    H168954   0.389   3.167  14.721  1.7952 -0.1787 -0.3641
15821TIP3    H268955   0.450   3.239  14.839  1.0576 -1.1639  0.6172
15822TIP3   OH268956   2.859   1.518   2.167  0.0974  0.0921  0.0915
15822TIP3    H168957   2.872   1.581   2.238  0.5719  0.4503 -0.3126
15822TIP3    H268958   2.764   1.509   2.161  0.0234  0.8649  0.0668
15823TIP3   OH268959   2.778   3.111   5.446 -0.1292  0.0405 -0.1647
15823TIP3    H168960   2.807   3.150   5.363 -3.0944 -0.8411 -1.7032
15823TIP3    H268961   2.811   3.022   5.443  0.3528  0.2137 -0.0701
15824TIP3   OH268962   6.110   1.027   0.667  0.0012 -0.1814  0.2506
15824TIP3    H168963   6.091   1.048   0.759 -0.2875 -1.6575  0.5419
15824TIP3    H268964   6.027   0.993   0.633 -0.2288  1.4609 -0.9081
15825TIP3   OH268965   0.758   4.073   3.529 -0.5893  0.1069  0.4911
15825TIP3    H168966   0.755   4.034   3.617 -0.8342  0.0592  0.4624
15825TIP3    H268967   0.666   4.082   3.504 -0.5029 -0.5087 -0.0453
15826TIP3   OH268968   3.079   6.027   1.367 -0.0929 -0.3652 -1.0375
15826TIP3    H168969   3.049   5.940   1.340 -1.3981 -1.4983  3.5711
15826TIP3    H268970   3.168   6.012   1.399 -0.4346 -0.0956  0.0579
15827TIP3   OH268971   3.232   1.067   1.116  0.2555 -0.7323  0.6977
15827TIP3    H168972   3.208   0.984   1.076  1.8526 -0.6429 -0.4715
15827TIP3    H268973   3.310   1.047   1.169 -0.9472 -0.5352  2.6186
15828TIP3   OH268974   2.761   5.002   0.764  0.5868  0.2070 -0.2577
15828TIP3    H168975   2.725   4.925   0.720  0.1572  0.8003 -0.9593
15828TIP3    H268976   2.784   4.971   0.852 -0.3756 -0.5155 -0.2494
15829TIP3   OH268977   1.334   0.835  11.095  0.2702 -0.4463  0.1018
15829TIP3    H168978   1.358   0.886  11.017 -0.1355 -0.6082 -0.1318
15829TIP3    H268979   1.330   0.900  11.166  1.0383 -0.3616  0.0723
15830TIP3   OH268980   1.587   0.282  13.791  0.3153  0.3814 -0.3596
15830TIP3    H168981   1.615   0.283  13.700  0.8888  0.3086 -0.1820
15830TIP3    H268982   1.647   0.342  13.836 -0.3601  0.9065 -0.1451
15831TIP3   OH268983   0.848   1.429  13.499 -0.0091 -0.3457 -0.6371
15831TIP3    H168984   0.867   1.344  13.460 -2.3107 -0.8302 -0.8042
15831TIP3    H268985   0.760   1.451  13.467 -0.5510  0.8351  1.5423
15832TIP3   OH268986   1.136   1.103  10.318  0.4127 -0.2363  0.5248
15832TIP3    H168987   1.150   1.032  10.256 -0.7803  0.3478 -0.4398
15832TIP3    H268988   1.130   1.060  10.403  3.1985 -0.9264  0.4040
15833TIP3   OH268989   6.755   5.363   2.561  0.2690  0.4094 -0.2029
15833TIP3    H168990   6.776   5.422   2.489  1.1551  0.1332 -0.1788
15833TIP3    H268991   6.734   5.280   2.520 -1.1252  0.7739 -0.2447
15834TIP3   OH268992   6.283   5.628   4.645  0.2064 -0.6878  0.1534
15834TIP3    H168993   6.232   5.630   4.726 -0.0882  2.5031 -0.0081
15834TIP3    H268994   6.220   5.604   4.577 -0.3281 -0.0861  0.4306
15835TIP3   OH268995   5.035   4.770  16.844  0.4506 -0.3625  0.6242
15835TIP3    H168996   4.955   4.718  16.844 -0.6484  1.2815 -0.0966
15835TIP3    H268997   5.020   4.836  16.912  1.0067  0.2076  0.1992
15836TIP3   OH268998   1.239   6.650   5.708 -0.0291  0.3161 -0.5397
15836TIP3    H168999   1.181   6.679   5.637  0.0718 -0.9676 -1.1535
15836TIP3    H269000   1.312   6.712   5.707  0.0366  0.2188 -1.6425
15837TIP3   OH269001   4.144   5.069   1.008 -0.3261 -0.3386  0.5138
15837TIP3    H169002   4.188   5.103   0.930 -0.2739  0.8775  1.0705
15837TIP3    H269003   4.131   5.145   1.064 -0.8309 -1.1189  1.4797
15838TIP3   OH269004   2.225   1.677  11.617 -0.0102  0.5018  0.6301
15838TIP3    H169005   2.301   1.672  11.559 -0.4549  1.2439 -0.0428
15838TIP3    H269006   2.243   1.752  11.674 -0.0497  0.4303  0.7366
15839TIP3   OH269007   2.604   3.909   4.973 -0.3581 -0.0378  0.0690
15839TIP3    H169008   2.558   3.991   4.988 -1.9094 -1.0121  0.7225
15839TIP3    H269009   2.560   3.845   5.029  1.1502 -1.2200 -0.0411
15840TIP3   OH269010   4.857   1.168   5.808 -0.2957 -0.5226  0.0230
15840TIP3    H169011   4.792   1.115   5.854 -2.0437  1.8537  0.3995
15840TIP3    H269012   4.920   1.193   5.877 -0.8347 -0.0844  0.3612
15841TIP3   OH269013   1.447   6.584  11.139  0.1526  0.0779  0.2561
15841TIP3    H169014   1.403   6.540  11.067 -1.1576 -0.3139  1.2743
15841TIP3    H269015   1.525   6.622  11.100 -0.5930 -0.0454 -1.3795
15842TIP3   OH269016   0.296   6.002  16.079  0.1182 -0.1784 -0.4195
15842TIP3    H169017   0.378   5.959  16.055  0.2440 -0.0364 -0.2515
15842TIP3    H269018   0.227   5.940  16.053  0.2541 -0.0696 -1.0510
15843TIP3   OH269019   0.509   5.199  13.258 -0.0192 -0.8241 -0.2581
15843TIP3    H169020   0.571   5.267  13.285 -1.0037 -0.1184  0.2417
15843TIP3    H269021   0.473   5.231  13.175 -1.2003 -0.2785  0.4706
15844TIP3   OH269022   0.917   3.740  12.262 -0.1215 -0.0462 -0.3767
15844TIP3    H169023   1.010   3.748  12.238  0.1043 -1.8953 -0.2073
15844TIP3    H269024   0.882   3.828  12.251  1.2595  0.3205 -2.1539
15845TIP3   OH269025   6.394   0.626  11.476  0.4257 -0.0823  0.1430
15845TIP3    H169026   6.382   0.616  11.382  1.2856 -0.6561  0.0893
15845TIP3    H269027   6.464   0.691  11.484  3.2756 -3.0813  0.3084
15846TIP3   OH269028   5.463   2.052   0.872  0.1863 -0.0718  0.4874
15846TIP3    H169029   5.555   2.027   0.863 -0.1162 -1.7720  1.9074
15846TIP3    H269030   5.463   2.118   0.942  0.5782  1.6184 -1.0630
15847TIP3   OH269031   3.084   1.310  12.142 -0.0455  0.1010  0.2704
15847TIP3    H169032   3.029   1.387  12.125  0.7278  0.5948 -0.0458
15847TIP3    H269033   3.171   1.347  12.161  0.6126 -0.7309 -1.0078
15848TIP3   OH269034   0.456   3.151  15.178 -0.3438  0.0907 -0.4643
15848TIP3    H169035   0.522   3.189  15.121  0.9287  0.5176  1.2307
15848TIP3    H269036   0.379   3.138  15.122  1.1643 -0.3910 -2.4598
15849TIP3   OH269037   6.813   2.695   4.905 -0.6147  0.3087 -0.6067
15849TIP3    H169038   6.895   2.666   4.946 -0.1098  2.1983 -0.2217
15849TIP3    H269039   6.745   2.645   4.950 -0.0945  2.5529  2.8025
15850TIP3   OH269040   1.072   6.321   4.565  0.1785  0.2049 -0.2545
15850TIP3    H169041   1.087   6.381   4.638 -0.0707  1.5617 -1.3002
15850TIP3    H269042   1.160   6.304   4.531  0.2838 -0.3263  0.2787
15851TIP3   OH269043   2.834   2.300   2.819 -0.1540  0.0723  0.4132
15851TIP3    H169044   2.858   2.240   2.889 -1.0646 -0.9364 -0.1338
15851TIP3    H269045   2.819   2.383   2.863  2.4589  0.2831  1.0185
15852TIP3   OH269046   1.745   0.757   0.297 -0.2288 -0.3676 -0.6495
15852TIP3    H169047   1.710   0.823   0.237  2.8975  0.2728 -1.8436
15852TIP3    H269048   1.730   0.794   0.384  1.1484  1.7637 -1.2876
15853TIP3   OH269049   5.909   0.722   3.914 -0.8184  0.2116  0.1563
15853TIP3    H169050   5.826   0.698   3.872 -1.3356 -0.9999  1.8469
15853TIP3    H269051   5.884   0.784   3.982 -0.4569 -0.8234  1.2465
15854TIP3   OH269052   3.928   5.198  10.912 -0.4113  0.1550  0.6797
15854TIP3    H169053   3.910   5.108  10.885  1.9797  0.0648 -0.7857
15854TIP3    H269054   3.987   5.189  10.986  0.2359  0.5166  0.2078
15855TIP3   OH269055   2.888   2.692  17.008 -0.0887  0.1415 -0.3222
15855TIP3    H169056   2.893   2.772  16.955  2.1024  0.6423  0.5632
15855TIP3    H269057   2.863   2.723  17.095 -1.5062 -0.4249 -0.5159
15856TIP3   OH269058   5.350   3.373  12.941 -0.6994  0.4425  0.3980
15856TIP3    H169059   5.371   3.400  12.851 -0.5777  0.7077  0.5047
15856TIP3    H269060   5.255   3.378  12.946 -1.0094 -2.9207 -0.7715
15857TIP3   OH269061   2.143   0.350  15.816 -0.6801  0.2939  0.2112
15857TIP3    H169062   2.188   0.282  15.865  1.4786  1.5475  0.0514
15857TIP3    H269063   2.071   0.378  15.873 -0.0396 -0.3725  1.3529
15858TIP3   OH269064   3.504   6.743  10.933  0.2576  0.1879  0.0958
15858TIP3    H169065   3.457   6.777  10.857  1.4190  0.1264 -0.6683
15858TIP3    H269066   3.472   6.654  10.943  1.8734 -0.6389 -1.8444
15859TIP3   OH269067   2.443   4.682   2.441  0.0205  0.2005 -0.4136
15859TIP3    H169068   2.501   4.757   2.452  0.7787 -0.5213  0.5553
15859TIP3    H269069   2.500   4.610   2.418 -0.6073 -0.2696 -0.5112
15860TIP3   OH269070   3.888   4.815  13.225 -0.5913 -0.1839 -0.3694
15860TIP3    H169071   3.920   4.783  13.140  2.2084 -0.3569  0.7077
15860TIP3    H269072   3.898   4.910  13.219  1.3606 -0.3173  0.4094
15861TIP3   OH269073   5.189   1.119   3.815 -0.0669 -0.4464 -0.2103
15861TIP3    H169074   5.267   1.174   3.813 -0.9449  0.8125 -0.3885
15861TIP3    H269075   5.205   1.056   3.885  2.1059 -1.6928 -1.7754
15862TIP3   OH269076   4.419   4.034   1.749 -0.4384 -0.3063 -0.1733
15862TIP3    H169077   4.333   4.072   1.771  0.0361 -0.3955  1.8477
15862TIP3    H269078   4.406   3.940   1.757 -0.0214 -0.2968  0.5722
15863TIP3   OH269079   6.808   4.516   1.377  0.0876 -0.1277 -0.0695
15863TIP3    H169080   6.817   4.473   1.462  0.4389 -0.0415 -0.0634
15863TIP3    H269081   6.714   4.512   1.359  0.0485 -0.4253  0.1762
15864TIP3   OH269082   2.792   2.792   3.234  0.3115  0.1136  0.1946
15864TIP3    H169083   2.799   2.703   3.268  1.1826  0.3097  0.5451
15864TIP3    H269084   2.698   2.810   3.234  0.0501 -1.2024 -0.9568
15865TIP3   OH269085   4.886   6.448  14.916  0.5751 -0.9443 -0.0194
15865TIP3    H169086   4.848   6.365  14.945  0.0422 -1.3409 -1.7912
15865TIP3    H269087   4.971   6.424  14.879  0.9233 -0.5456  0.5155
15866TIP3   OH269088   0.618   2.765   5.587  0.5535 -0.1649 -0.2551
15866TIP3    H169089   0.668   2.847   5.594 -1.5985  1.0818  1.2904
15866TIP3    H269090   0.583   2.765   5.498 -1.0967  1.6563  0.3534
15867TIP3   OH269091   6.640   3.523   4.825 -0.4700  0.6654  0.1652
15867TIP3    H169092   6.570   3.478   4.776  0.3028  0.6605 -0.9719
15867TIP3    H269093   6.598   3.600   4.863 -1.0632  0.7607 -0.6711
15868TIP3   OH269094   5.275   4.840  12.461 -0.3833 -0.1412 -0.5688
15868TIP3    H169095   5.254   4.880  12.546  0.8004 -0.2368 -0.2173
15868TIP3    H269096   5.197   4.855  12.408 -1.7625 -1.4639  1.0191
15869TIP3   OH269097   3.874   6.788   2.599  0.0693 -0.8128  0.1042
15869TIP3    H169098   3.780   6.803   2.604  0.2528  0.0161  1.2388
15869TIP3    H269099   3.895   6.739   2.679  0.6670 -0.5871  0.0916
15870TIP3   OH269100   5.601   6.757  16.773 -0.1564 -0.1200 -0.1036
15870TIP3    H169101   5.629   6.667  16.790 -0.0242 -0.4354 -1.9387
15870TIP3    H269102   5.528   6.771  16.834 -0.8930 -1.8423 -0.5409
15871TIP3   OH269103   1.684   0.731  11.780 -0.0073  0.3083 -0.1730
15871TIP3    H169104   1.637   0.761  11.858  0.5974 -0.6925  0.5912
15871TIP3    H269105   1.766   0.696  11.814  0.8917  1.1818 -1.4032
15872TIP3   OH269106   4.035   0.890   5.949  0.3777 -0.1762 -0.6508
15872TIP3    H169107   4.041   0.875   5.855 -1.5738 -0.2238 -0.7752
15872TIP3    H269108   4.033   0.803   5.987  1.0850 -0.1568 -0.5578
15873TIP3   OH269109   4.503   0.273   5.621  0.0210  0.9767  0.0249
15873TIP3    H169110   4.492   0.192   5.672  0.5146  1.9946  1.7781
15873TIP3    H269111   4.499   0.244   5.530 -1.2538 -0.8336  0.6273
15874TIP3   OH269112   2.976   5.537  11.024 -0.1555  0.1134  0.4611
15874TIP3    H169113   3.063   5.500  11.009 -0.4925 -1.1656  1.5290
15874TIP3    H269114   2.943   5.555  10.937  1.2704  0.8222  0.0462
15875TIP3   OH269115   1.587   1.115  12.860 -0.5691  0.2502 -0.5112
15875TIP3    H169116   1.674   1.082  12.836 -0.9558 -1.8288  0.8868
15875TIP3    H269117   1.605   1.182  12.927 -0.1075 -1.1622  0.8005
15876TIP3   OH269118   5.959   4.176   1.635  0.2304 -0.5263  0.0874
15876TIP3    H169119   6.042   4.218   1.612  1.1588 -1.7993  1.0198
15876TIP3    H269120   5.985   4.100   1.688 -1.4729 -1.5962 -0.5726
15877TIP3   OH269121   5.357   0.033  16.650 -0.4307 -0.5124 -0.1051
15877TIP3    H169122   5.384   0.125  16.650 -0.9125 -0.3423 -2.0961
15877TIP3    H269123   5.438  -0.016  16.636 -0.1681 -0.3990  1.0030
15878TIP3   OH269124   5.532   5.796   3.371  0.4566 -0.3527  0.2124
15878TIP3    H169125   5.543   5.889   3.352  2.3723 -0.5895  0.0171
15878TIP3    H269126   5.536   5.753   3.285 -1.1368 -0.5703  0.2296
15879TIP3   OH269127   3.845   4.664  12.716  0.2212 -0.0191 -0.1417
15879TIP3    H169128   3.815   4.614  12.792 -1.4651 -1.1794 -1.5414
15879TIP3    H269129   3.901   4.604  12.668  0.8587  0.5412 -0.1077
15880TIP3   OH269130   0.445   1.156  11.905  0.1588 -0.6135 -0.3952
15880TIP3    H169131   0.450   1.060  11.908 -1.7564 -0.7246 -0.1020
15880TIP3    H269132   0.351   1.175  11.900  0.2758  1.3022  3.0978
15881TIP3   OH269133   2.023   2.328   5.419  0.3250  0.0835 -0.3893
15881TIP3    H169134   2.108   2.357   5.453  0.8060 -0.4110 -1.1413
15881TIP3    H269135   2.017   2.371   5.333  0.2216 -0.5891 -0.7211
15882TIP3   OH269136   3.129   5.074   3.379 -0.3048  0.4691 -0.5268
15882TIP3    H169137   3.118   5.056   3.472 -0.1502  1.3043 -0.3441
15882TIP3    H269138   3.222   5.099   3.370 -0.5548  1.3531 -0.7382
15883TIP3   OH269139   6.143   4.224  14.169 -0.0496  0.5933 -0.0485
15883TIP3    H169140   6.184   4.235  14.255  0.5718 -0.1933 -0.2248
15883TIP3    H269141   6.175   4.298  14.118  1.6059 -0.2672 -0.3288
15884TIP3   OH269142   3.325   3.686   0.404  0.4971  0.4577 -0.6573
15884TIP3    H169143   3.233   3.658   0.408  0.2654  1.3722  0.5094
15884TIP3    H269144   3.375   3.606   0.420 -0.0872 -0.0091 -1.1101
15885TIP3   OH269145   4.027   0.222  15.910  0.1162 -0.3185  0.8053
15885TIP3    H169146   4.122   0.225  15.919  0.1311  0.0309  0.5726
15885TIP3    H269147   3.994   0.246  15.997  0.2350 -1.3093  1.1241
15886TIP3   OH269148   3.260   1.209  16.125  0.1488  0.6321 -0.3657
15886TIP3    H169149   3.338   1.154  16.116  0.4227  1.2983 -2.5185
15886TIP3    H269150   3.210   1.170  16.196  1.5610 -0.9062 -0.1942
15887TIP3   OH269151   6.252   5.996   0.796  0.0843 -0.0646 -0.1365
15887TIP3    H169152   6.314   5.930   0.826 -0.6188 -0.5117  0.3356
15887TIP3    H269153   6.189   5.948   0.742 -0.1396  0.3025 -0.2090
15888TIP3   OH269154   3.029   6.366   6.218  0.1438  0.1219  0.1098
15888TIP3    H169155   2.938   6.396   6.209  0.2519 -0.1334 -2.0996
15888TIP3    H269156   3.081   6.436   6.177  0.8232 -0.4631 -0.0256
15889TIP3   OH269157   3.617   0.694   2.163  0.2961  0.0561 -0.8598
15889TIP3    H169158   3.633   0.716   2.254 -0.0261  0.2997 -0.8628
15889TIP3    H269159   3.665   0.760   2.113  1.3355 -0.6974 -0.8683
15890TIP3   OH269160   3.221   2.207  14.469  0.0077  0.2479  0.4730
15890TIP3    H169161   3.282   2.280  14.471 -2.1637  2.2368 -2.1800
15890TIP3    H269162   3.272   2.134  14.432  0.8340  1.8907 -1.7616
15891TIP3   OH269163   0.707   5.905  17.253 -0.3646  0.3481  0.1769
15891TIP3    H169164   0.776   5.972  17.249 -0.2802  0.3299  1.3053
15891TIP3    H269165   0.748   5.831  17.297 -0.6074 -0.2803 -0.6440
15892TIP3   OH269166   0.487   4.939  16.553 -0.1810 -0.2402 -0.6591
15892TIP3    H169167   0.521   4.915  16.638  1.5374  2.3709 -0.5356
15892TIP3    H269168   0.564   4.942  16.496 -0.8042  1.2410 -1.4753
15893TIP3   OH269169   5.533   4.386   0.492 -0.6587 -0.2957 -0.1995
15893TIP3    H169170   5.603   4.426   0.544 -0.4979  0.9568 -1.3406
15893TIP3    H269171   5.521   4.299   0.530 -0.6180  0.6264  1.9971
15894TIP3   OH269172   4.770   0.217  16.800  0.8509  0.1853 -0.4017
15894TIP3    H169173   4.790   0.129  16.770  1.6919  0.1012  0.4172
15894TIP3    H269174   4.702   0.205  16.867 -1.3626  0.4052 -2.5241
15895TIP3   OH269175   3.623   0.556  16.626 -0.1258  0.1491 -0.0501
15895TIP3    H169176   3.639   0.480  16.570 -0.5753  0.2452 -0.3155
15895TIP3    H269177   3.614   0.629  16.564  0.4673  0.4412  0.2125
15896TIP3   OH269178   4.877   4.473  12.520  0.8421 -0.2594 -0.4898
15896TIP3    H169179   4.861   4.547  12.461  0.7915  0.4273  0.3745
15896TIP3    H269180   4.972   4.461  12.518  0.8948  0.1275 -0.2689
15897TIP3   OH269181   5.251   4.262   4.740 -0.2251 -0.2980 -0.1679
15897TIP3    H169182   5.338   4.297   4.757  0.0341 -0.8816 -0.2534
15897TIP3    H269183   5.205   4.332   4.695  0.1604  0.0628 -0.0056
15898TIP3   OH269184   4.343   3.841   4.368  0.1784  0.1829  0.3890
15898TIP3    H169185   4.333   3.933   4.391 -2.4717 -0.2195  0.9293
15898TIP3    H269186   4.322   3.837   4.274  1.9820  0.3774 -0.0395
15899TIP3   OH269187   4.811   2.569   4.771  0.7110  0.4254  0.0267
15899TIP3    H169188   4.810   2.532   4.683 -1.1117 -0.6115  0.4702
15899TIP3    H269189   4.744   2.637   4.770  0.8147  0.5408  0.5657
15900TIP3   OH269190   3.840   5.516   3.221 -0.6493 -0.5472  0.0954
15900TIP3    H169191   3.875   5.430   3.245  1.4361  0.1532 -0.3496
15900TIP3    H269192   3.902   5.549   3.156 -1.3556  1.3648  0.3809
15901TIP3   OH269193   6.221   4.838  12.262  0.4221 -0.4939 -0.6665
15901TIP3    H169194   6.165   4.856  12.186  1.4944  0.9992 -1.1403
15901TIP3    H269195   6.185   4.758  12.300 -1.5701  0.0297 -1.3794
15902TIP3   OH269196   2.588   1.397  15.872  0.1383 -0.4533 -0.4200
15902TIP3    H169197   2.558   1.449  15.796 -0.8906  1.4504  1.2298
15902TIP3    H269198   2.553   1.310  15.855 -3.4248  0.8525 -0.3359
15903TIP3   OH269199   4.522   5.026  15.659 -0.0893  0.6141  0.7381
15903TIP3    H169200   4.508   4.975  15.739 -0.2044 -1.2554 -0.4316
15903TIP3    H269201   4.580   5.097  15.687  1.3714 -1.0279  2.1434
15904TIP3   OH269202   0.248   4.318  17.071  0.2168 -0.2389  0.2730
15904TIP3    H169203   0.293   4.313  16.987  1.6764  0.6606  0.9865
15904TIP3    H269204   0.186   4.391  17.060  0.2821 -0.2384 -0.0892
15905TIP3   OH269205   0.032   3.539   2.056  0.0788 -0.1013 -0.1359
15905TIP3    H169206   0.060   3.534   2.148 -1.8056  1.8520  0.6038
15905TIP3    H269207   0.079   3.613   2.020 -0.3445  0.0897 -0.3030
15906TIP3   OH269208   2.053   6.181  15.313  0.2851  0.1852  0.1510
15906TIP3    H169209   2.043   6.212  15.403  1.6681 -1.1643  0.7910
15906TIP3    H269210   1.964   6.166  15.283 -0.1491 -0.3163  1.6362
15907TIP3   OH269211   5.571   1.001  15.902 -0.0087  0.1903 -0.3008
15907TIP3    H169212   5.496   0.943  15.886  0.3151 -0.1497 -0.5853
15907TIP3    H269213   5.533   1.089  15.901 -0.3684  0.0340 -0.6895
15908TIP3   OH269214   3.389   2.257   5.105  0.0316  0.8088 -0.2048
15908TIP3    H169215   3.462   2.295   5.057 -0.1233  2.4606  0.8063
15908TIP3    H269216   3.429   2.192   5.163  0.3354 -0.4152 -1.7607
15909TIP3   OH269217   2.707   6.616   1.587  0.2876  0.1437 -0.0149
15909TIP3    H169218   2.659   6.553   1.534 -1.0163  2.3814 -1.5221
15909TIP3    H269219   2.790   6.628   1.540 -0.3597  1.1953 -0.8921
15910TIP3   OH269220   4.061   0.492   2.166  0.4636 -0.1776 -0.2730
15910TIP3    H169221   4.062   0.545   2.246  1.1193  1.1389 -1.1368
15910TIP3    H269222   4.125   0.533   2.109 -0.9695 -0.2752 -2.0044
15911TIP3   OH269223   4.428   5.103   5.521  0.9270  0.0941 -0.3164
15911TIP3    H169224   4.496   5.140   5.466  2.2970 -0.7628  0.7631
15911TIP3    H269225   4.470   5.091   5.606 -0.6708 -0.1416  0.4586
15912TIP3   OH269226   5.409   5.081   0.603 -0.9732 -0.4980  0.1356
15912TIP3    H169227   5.357   5.109   0.678 -0.9098  0.7972 -0.2828
15912TIP3    H269228   5.343   5.054   0.538 -1.0301 -1.5484  0.6105
15913TIP3   OH269229   4.103   6.115   6.579  0.1384  0.2036 -0.1087
15913TIP3    H169230   4.157   6.060   6.636 -0.3774  0.5706  0.7465
15913TIP3    H269231   4.057   6.054   6.522  0.7862 -0.1599 -0.2496
15914TIP3   OH269232   4.694   0.844  14.008 -0.9656 -0.5650 -0.4325
15914TIP3    H169233   4.708   0.924  13.957 -1.5378 -0.6593 -0.7466
15914TIP3    H269234   4.782   0.812  14.027 -0.6978  0.7058  0.5944
15915TIP3   OH269235   1.320   3.781  15.979  0.6099 -0.1962 -0.1282
15915TIP3    H169236   1.230   3.753  15.996  0.0497  1.4163 -0.3505
15915TIP3    H269237   1.369   3.753  16.056 -0.3244 -0.0502  0.5300
15916TIP3   OH269238   6.743   3.396  15.061  0.3737 -0.7450 -0.6684
15916TIP3    H169239   6.760   3.442  14.979 -0.7046 -0.0584 -0.5153
15916TIP3    H269240   6.820   3.413  15.114 -0.4893  1.8593 -0.1854
15917TIP3   OH269241   6.480   6.152   4.942 -0.2017  0.6368  0.0214
15917TIP3    H169242   6.413   6.137   4.875 -0.9073 -0.5586  0.9769
15917TIP3    H269243   6.492   6.067   4.983  0.4474  1.2915  1.2118
15918TIP3   OH269244   3.484   5.485  11.419 -0.4649 -0.0050  0.6902
15918TIP3    H169245   3.427   5.520  11.351 -1.3306 -0.8472  0.9657
15918TIP3    H269246   3.483   5.551  11.488 -0.5564  0.2972  0.4004
15919TIP3   OH269247   1.696   2.198  10.941  0.7494  0.7792  0.0411
15919TIP3    H169248   1.645   2.117  10.946  0.8016  0.6331 -1.5137
15919TIP3    H269249   1.644   2.262  10.990  0.3537 -0.0206  0.6743
15920TIP3   OH269250   5.708   6.501  14.234  0.3382 -0.0956 -0.3687
15920TIP3    H169251   5.767   6.426  14.232 -0.1582 -0.5164  0.3975
15920TIP3    H269252   5.623   6.464  14.260  0.3832  0.9177  1.2323
15921TIP3   OH269253   0.237   4.829   2.684 -0.3491 -0.0347  0.1282
15921TIP3    H169254   0.157   4.822   2.735  0.1906 -0.1322  0.9738
15921TIP3    H269255   0.269   4.918   2.701 -0.0446 -0.1449  0.1396
15922TIP3   OH269256   1.712   5.311  12.542 -0.3470 -0.2749  0.2872
15922TIP3    H169257   1.755   5.372  12.603 -0.1932  1.7062 -1.7401
15922TIP3    H269258   1.620   5.311  12.569 -0.4367  1.2242  0.0122
15923TIP3   OH269259   2.108   4.846   2.012  0.7428  0.0607  0.4068
15923TIP3    H169260   2.042   4.858   1.944  0.4221  0.5507  0.8037
15923TIP3    H269261   2.165   4.776   1.978  1.2671  1.0997 -0.8860
15924TIP3   OH269262   0.149   5.256  13.736 -0.4088  0.1573  0.0994
15924TIP3    H169263   0.081   5.280  13.672  0.4310 -0.2139 -0.9464
15924TIP3    H269264   0.198   5.186  13.693 -0.2530 -0.5572  1.4396
15925TIP3   OH269265   3.192   3.634   1.273  0.4456  0.5320  0.1450
15925TIP3    H169266   3.118   3.666   1.325 -0.6200 -0.0808 -0.9869
15925TIP3    H269267   3.226   3.712   1.229 -1.1648  0.4141 -1.3713
15926TIP3   OH269268   4.681   5.035   6.083  0.3967 -0.5906  0.4557
15926TIP3    H169269   4.749   4.987   6.036  0.5234 -0.4058  0.4514
15926TIP3    H269270   4.638   4.968   6.138 -0.2179 -0.9600 -0.4510
15927TIP3   OH269271   0.810   2.233   2.894 -0.5014 -0.0363  0.2449
15927TIP3    H169272   0.806   2.150   2.941  0.1934  0.7163  1.6673
15927TIP3    H269273   0.900   2.237   2.862 -0.5748  0.1074  0.0607
15928TIP3   OH269274   2.720   6.113  13.963  0.0474  0.0487 -0.0949
15928TIP3    H169275   2.707   6.028  14.006 -3.3346  1.8976  2.8508
15928TIP3    H269276   2.814   6.125  13.961  0.5115 -2.8117  1.4879
15929TIP3   OH269277   5.624   5.067   4.051  0.2908 -0.7902  0.2218
15929TIP3    H169278   5.570   5.040   3.977 -1.3704  0.8630  0.8054
15929TIP3    H269279   5.562   5.101   4.116  1.9105 -0.0256  1.4130
15930TIP3   OH269280   0.981   1.423  13.199 -0.0579  0.3212 -0.2744
15930TIP3    H169281   0.892   1.458  13.206 -0.6677 -1.2837  0.0744
15930TIP3    H269282   1.007   1.405  13.290  1.2171  2.2155 -0.2351
15931TIP3   OH269283   2.446   6.391   3.796 -0.4741  0.1777 -0.4107
15931TIP3    H169284   2.444   6.332   3.872 -1.0997 -0.5164 -0.9594
15931TIP3    H269285   2.478   6.337   3.724  0.6381  0.9831 -0.5344
15932TIP3   OH269286   1.256   3.370   2.854  0.3157 -0.2620  0.0009
15932TIP3    H169287   1.211   3.416   2.783 -0.6990 -2.5820 -0.9062
15932TIP3    H269288   1.333   3.424   2.872  0.0944  0.8633 -2.2155
15933TIP3   OH269289   0.459   2.323  11.867  0.1587 -0.3353 -0.2574
15933TIP3    H169290   0.508   2.358  11.942 -1.8447 -1.5500  1.6619
15933TIP3    H269291   0.485   2.231  11.862  1.6669  0.1520 -2.2431
15934TIP3   OH269292   4.482   4.454  11.724 -0.2635 -0.5817 -0.2905
15934TIP3    H169293   4.435   4.538  11.718  0.3253 -0.1288  1.0929
15934TIP3    H269294   4.415   4.388  11.705 -0.6073  0.2204 -1.9222
15935TIP3   OH269295   0.149   4.124  17.229  0.5178  0.4932  0.1823
15935TIP3    H169296   0.200   4.190  17.182 -2.0277  1.2579 -1.5629
15935TIP3    H269297   0.199   4.043  17.216  0.5205  0.8998 -2.9164
15936TIP3   OH269298   3.121   1.032  13.057  0.3743  0.2507  0.6257
15936TIP3    H169299   3.112   0.959  12.995  2.3312  1.0875 -0.6836
15936TIP3    H269300   3.097   0.994  13.141  2.2449 -2.1723  0.1164
15937TIP3   OH269301   4.787   4.560  12.944  0.4111 -0.3277  0.8170
15937TIP3    H169302   4.722   4.594  13.005  1.1472 -1.3130  2.1873
15937TIP3    H269303   4.748   4.478  12.912  0.5799 -0.4745  0.9792
15938TIP3   OH269304   2.878   5.575   1.209  0.5079 -0.5786 -0.2558
15938TIP3    H169305   2.794   5.591   1.165  1.5409  0.4266 -1.9382
15938TIP3    H269306   2.875   5.483   1.235 -1.0044 -0.6266 -0.5395
15939TIP3   OH269307   5.395   4.925  13.240  0.1684  0.7693 -0.9693
15939TIP3    H169308   5.369   4.860  13.175  2.0922 -0.0632 -0.9468
15939TIP3    H269309   5.445   4.990  13.190  1.5805  0.1721 -0.3571
15940TIP3   OH269310   3.374   2.829  14.627 -0.0162  0.4514 -0.2452
15940TIP3    H169311   3.457   2.867  14.656 -0.2773  0.6533  0.2479
15940TIP3    H269312   3.326   2.902  14.587 -0.1746  0.4531 -0.0529
15941TIP3   OH269313   2.341   0.721   2.018  0.0455 -0.0972 -0.3724
15941TIP3    H169314   2.368   0.630   2.003 -1.3251 -0.8176  1.4226
15941TIP3    H269315   2.405   0.755   2.081  0.0388 -0.0847 -0.3723
15942TIP3   OH269316   0.572   1.894   0.916  0.0273 -0.1062 -0.0905
15942TIP3    H169317   0.583   1.799   0.921  1.9169  0.0266 -1.1433
15942TIP3    H269318   0.641   1.929   0.972  1.0826  0.6807 -1.8553
15943TIP3   OH269319   0.101   4.968  13.009  0.0889 -0.0863  0.0626
15943TIP3    H169320   0.097   5.064  13.002 -0.6484 -0.1668 -0.8495
15943TIP3    H269321   0.133   4.951  13.097 -1.9191  0.9939  1.0378
15944TIP3   OH269322   2.490   5.678  16.897  0.0341 -0.5281 -0.0943
15944TIP3    H169323   2.576   5.709  16.922 -0.8861  1.5065  0.6408
15944TIP3    H269324   2.487   5.689  16.802 -0.1291  1.2840  0.1108
15945TIP3   OH269325   3.084   6.442   5.796  0.1000  0.4680  0.4197
15945TIP3    H169326   3.027   6.367   5.813 -0.1017  0.6437  0.5174
15945TIP3    H269327   3.112   6.471   5.883  0.3738  0.3574  0.3719
15946TIP3   OH269328   2.904   3.968  12.829  0.0728 -0.1682 -0.3559
15946TIP3    H169329   2.924   3.924  12.911  0.0288  0.3407 -0.0668
15946TIP3    H269330   2.987   3.969  12.781  0.2234 -0.0007 -0.0935
15947TIP3   OH269331   2.831   4.514   0.650  0.3003  0.1949 -0.0530
15947TIP3    H169332   2.785   4.486   0.729  1.8143  0.9218  1.0977
15947TIP3    H269333   2.916   4.470   0.654 -0.1994 -1.0453 -2.1045
15948TIP3   OH269334   5.649   0.380  11.560  0.6573 -0.2936 -0.0163
15948TIP3    H169335   5.650   0.474  11.576 -1.1562 -0.0791 -1.0930
15948TIP3    H269336   5.633   0.371  11.466 -1.2292 -1.6636  0.4001
15949TIP3   OH269337   4.677   6.016  12.675 -0.5122 -0.0648 -0.3777
15949TIP3    H169338   4.763   6.054  12.692 -0.3853 -1.0395  1.2939
15949TIP3    H269339   4.695   5.922  12.664 -1.0557  0.0582 -2.5001
15950TIP3   OH269340   1.590   0.700   3.564 -0.1178  0.8166  0.4696
15950TIP3    H169341   1.570   0.794   3.573 -0.0999  0.9697 -0.9106
15950TIP3    H269342   1.628   0.693   3.476 -0.7939 -0.5968  0.2860
15951TIP3   OH269343   3.197   2.301   3.128  0.0081  0.0953 -0.4038
15951TIP3    H169344   3.159   2.388   3.114  0.6745  0.5667  0.6493
15951TIP3    H269345   3.123   2.241   3.121 -0.9370  0.9988  1.5995
15952TIP3   OH269346   4.790   5.632  14.282  0.3336  0.1054 -0.0848
15952TIP3    H169347   4.795   5.718  14.238 -0.1730 -0.1041 -0.5584
15952TIP3    H269348   4.862   5.634  14.345  1.2653  0.3031 -1.1344
15953TIP3   OH269349   6.122   4.237   4.189 -0.2985 -0.5360  0.3464
15953TIP3    H169350   6.153   4.279   4.269 -0.2103  0.2820 -0.1067
15953TIP3    H269351   6.028   4.254   4.188 -0.3897 -1.0158  0.5460
15954TIP3   OH269352   6.312   3.829   1.481  0.0157 -0.2039 -0.3159
15954TIP3    H169353   6.261   3.752   1.457 -0.0407 -0.6867  1.3221
15954TIP3    H269354   6.285   3.850   1.570  0.5151  1.3139 -0.5053
15955TIP3   OH269355   0.870   0.606  12.257 -0.6322 -0.1995  0.0140
15955TIP3    H169356   0.937   0.543  12.283 -1.6883 -1.6613 -0.6770
15955TIP3    H269357   0.795   0.584  12.313 -0.4138  1.6931  1.0853
15956TIP3   OH269358   2.006   0.225   3.893 -0.0525 -0.3663 -0.1232
15956TIP3    H169359   1.978   0.316   3.902 -1.3402 -0.7013 -0.6909
15956TIP3    H269360   1.991   0.186   3.979 -0.6706 -0.3671 -0.2343
15957TIP3   OH269361   0.803   1.065   3.298  0.3466  0.2818  0.0157
15957TIP3    H169362   0.719   1.053   3.253  0.7857  1.7100 -1.2181
15957TIP3    H269363   0.869   1.036   3.236  0.8667  0.7527  0.3374
15958TIP3   OH269364   4.101   2.471  16.457 -0.0335  0.1708 -0.3934
15958TIP3    H169365   4.083   2.408  16.527  1.2037 -0.2417 -0.4328
15958TIP3    H269366   4.024   2.528  16.456 -0.4977 -0.4171  0.6531
15959TIP3   OH269367   5.062   0.208  15.269  0.2712  0.1078  0.3264
15959TIP3    H169368   5.067   0.113  15.268  2.1206  0.2000 -0.3997
15959TIP3    H269369   5.130   0.237  15.208 -2.0668  1.8138 -1.6291
15960TIP3   OH269370   2.057   5.693   4.752 -0.1124 -0.1351 -0.5847
15960TIP3    H169371   2.113   5.683   4.676  0.4085 -0.2093 -0.1960
15960TIP3    H269372   2.051   5.788   4.765  0.7752 -0.1471 -0.0125
15961TIP3   OH269373   0.303   2.089   0.691  0.3874 -0.0342  0.0302
15961TIP3    H169374   0.325   2.073   0.600 -0.5603 -2.1234  0.1366
15961TIP3    H269375   0.388   2.096   0.735  0.8439  0.9571 -0.9815
15962TIP3   OH269376   2.676   1.878  11.994 -0.4010 -0.4360  0.1142
15962TIP3    H169377   2.655   1.832  11.912  0.9784  1.0842 -1.1335
15962TIP3    H269378   2.676   1.971  11.970 -2.2674  0.1934  2.3983
15963TIP3   OH269379   6.090   2.178   3.330 -0.1065 -0.5315  0.2352
15963TIP3    H169380   6.042   2.245   3.379  2.0132 -0.0386  1.7346
15963TIP3    H269381   6.099   2.105   3.391  1.4889 -0.4087  0.1592
15964TIP3   OH269382   2.759   5.564   1.581  0.1488  0.1329  0.4269
15964TIP3    H169383   2.841   5.523   1.551 -0.3233 -0.0794 -0.5876
15964TIP3    H269384   2.778   5.658   1.580 -0.0874  0.1848 -1.2911
15965TIP3   OH269385   2.875   1.068  11.675  0.3666  0.1472  0.6809
15965TIP3    H169386   2.811   1.009  11.714 -0.8553  2.1950  1.8420
15965TIP3    H269387   2.868   1.053  11.581 -0.4218 -1.0468  0.9318
15966TIP3   OH269388   1.551   1.974   6.255  0.0155  1.1250 -0.1189
15966TIP3    H169389   1.486   2.044   6.257 -1.1496  0.1598 -2.7540
15966TIP3    H269390   1.527   1.917   6.329 -1.3654  1.4556 -0.2979
15967TIP3   OH269391   5.066   3.169  16.884  0.2412 -0.2041 -0.3434
15967TIP3    H169392   5.002   3.100  16.901  0.5133 -0.0204  1.5408
15967TIP3    H269393   5.115   3.177  16.965  1.6079  0.7652 -1.2372
15968TIP3   OH269394   6.746   6.099   2.941 -0.3833 -0.6827 -0.6484
15968TIP3    H169395   6.716   6.188   2.923  2.5255  0.7583  1.2979
15968TIP3    H269396   6.820   6.086   2.882 -0.4043 -1.5829 -0.4846
15969TIP3   OH269397   1.889   3.746   3.349 -0.5107  0.0757  0.2144
15969TIP3    H169398   1.801   3.767   3.380 -0.9661  0.1979 -1.1229
15969TIP3    H269399   1.897   3.652   3.364 -0.7197  0.1419  0.7356
15970TIP3   OH269400   5.706   1.150   3.074  0.4108  0.0835 -0.0400
15970TIP3    H169401   5.790   1.103   3.080  0.2358 -0.3751 -1.0321
15970TIP3    H269402   5.669   1.144   3.162  1.3774  0.2146  0.3879
15971TIP3   OH269403   5.913   1.817   1.354 -0.3478 -0.0102  0.0784
15971TIP3    H169404   5.909   1.794   1.261 -0.4931  0.1119  0.0544
15971TIP3    H269405   5.825   1.847   1.375  0.7071  4.0392 -0.8025
15972TIP3   OH269406   2.519   2.240   2.525 -0.0632 -0.3817  0.0715
15972TIP3    H169407   2.540   2.208   2.437 -0.0674  0.1650 -0.1314
15972TIP3    H269408   2.573   2.187   2.584  0.6321 -0.1236 -0.3288
15973TIP3   OH269409   5.445   5.196   4.917 -0.2882  0.3220  0.3171
15973TIP3    H169410   5.375   5.255   4.944 -0.8305 -0.6510  1.1043
15973TIP3    H269411   5.499   5.185   4.995 -0.4785 -0.6045  0.3307
15974TIP3   OH269412   5.059   1.461  12.717  0.1005 -0.3534  0.2393
15974TIP3    H169413   5.018   1.377  12.735  0.8531 -0.5797  0.9695
15974TIP3    H269414   5.000   1.526  12.754 -0.7640 -0.5203 -0.8340
15975TIP3   OH269415   6.163   6.625  13.831  0.3209  0.4907  0.3478
15975TIP3    H169416   6.088   6.625  13.890  1.0969 -0.3720  1.3598
15975TIP3    H269417   6.239   6.615  13.889  1.3517  2.9727 -0.4966
15976TIP3   OH269418   5.984   4.080  13.446 -0.0545  0.2147  0.2825
15976TIP3    H169419   5.982   4.020  13.520  1.4262  0.4281  0.5291
15976TIP3    H269420   5.955   4.164  13.483 -2.6256 -0.4297 -0.1797
15977TIP3   OH269421   5.430   5.146  11.495 -0.4416  0.3783 -0.2909
15977TIP3    H169422   5.353   5.091  11.491 -0.5618  0.5498 -0.3405
15977TIP3    H269423   5.397   5.232  11.520 -0.2369  0.3916 -0.0645
15978TIP3   OH269424   6.311   2.710  14.732  0.5509  0.7406 -0.1660
15978TIP3    H169425   6.361   2.635  14.700 -1.4355 -0.1815 -1.2155
15978TIP3    H269426   6.244   2.724  14.665 -0.9275  1.6115  1.4755
15979TIP3   OH269427   5.639   3.127  16.631 -0.0836 -0.0834 -0.3372
15979TIP3    H169428   5.716   3.073  16.619  0.6947  1.5125 -3.1409
15979TIP3    H269429   5.673   3.212  16.659 -0.9424  0.2220 -0.1881
15980TIP3   OH269430   2.710   6.059  16.859 -0.3514 -0.1120 -0.0169
15980TIP3    H169431   2.727   6.153  16.865 -2.4876  0.2112  1.2322
15980TIP3    H269432   2.745   6.034  16.774 -1.1427  2.1096 -1.0304
15981TIP3   OH269433   5.413   4.061  13.699  0.3468 -0.2199  0.3033
15981TIP3    H169434   5.348   4.107  13.646 -0.9096 -0.5751  1.5242
15981TIP3    H269435   5.447   4.128  13.759  1.1816 -0.0149 -0.3857
15982TIP3   OH269436   6.008   1.379   1.651 -0.2040  0.1896 -0.2743
15982TIP3    H169437   6.048   1.308   1.600 -0.2480  1.2133 -1.7580
15982TIP3    H269438   5.966   1.435   1.586  0.3251  1.9028  0.8237
15983TIP3   OH269439   0.820   3.347   0.854 -0.1994 -0.2267 -0.6805
15983TIP3    H169440   0.759   3.288   0.809  1.1173 -0.5804 -2.0551
15983TIP3    H269441   0.802   3.334   0.947 -2.3692 -0.1538 -1.0715
15984TIP3   OH269442   0.840   1.853  14.785 -0.7205 -0.0637  0.1417
15984TIP3    H169443   0.832   1.908  14.707  1.1171  0.8593  0.5621
15984TIP3    H269444   0.797   1.903  14.854 -1.2506 -0.3057 -0.0138
15985TIP3   OH269445   0.149   4.878  14.124  0.2219 -0.2412  0.9987
15985TIP3    H169446   0.138   4.925  14.041 -0.5841  2.0337  2.3607
15985TIP3    H269447   0.067   4.830  14.135 -0.2026  0.5210  1.1445
15986TIP3   OH269448   4.282   4.102  15.433 -0.8246 -0.0752 -0.2362
15986TIP3    H169449   4.203   4.052  15.409  0.2739 -1.7637 -0.4575
15986TIP3    H269450   4.354   4.041  15.417  0.4770  1.1988  0.6734
15987TIP3   OH269451   2.229   0.079  12.307  0.2510  0.2965  0.4636
15987TIP3    H169452   2.167   0.033  12.364  0.1860 -2.1765 -1.4708
15987TIP3    H269453   2.308   0.024  12.309  0.3736  0.3712 -1.4808
15988TIP3   OH269454   2.457   3.833   5.451  0.6709 -0.7816 -0.5192
15988TIP3    H169455   2.540   3.855   5.491  0.9502 -0.8474 -1.0546
15988TIP3    H269456   2.469   3.852   5.358 -0.4226  0.7190 -0.3822
15989TIP3   OH269457   3.302   0.805  13.516 -0.3759  0.0326 -0.0804
15989TIP3    H169458   3.368   0.770  13.576  0.7219  1.1495 -0.6090
15989TIP3    H269459   3.220   0.798  13.564 -0.0169 -2.0693  0.3212
15990TIP3   OH269460   1.729   0.335   2.979 -0.0490  0.1382 -0.5699
15990TIP3    H169461   1.774   0.346   2.895 -2.3674  0.5961 -1.7850
15990TIP3    H269462   1.779   0.390   3.040  2.0112 -0.6697 -1.4887
15991TIP3   OH269463   5.751   0.153   0.578 -0.2180  0.1094 -0.4752
15991TIP3    H169464   5.830   0.117   0.618 -0.4742  0.5813  0.4686
15991TIP3    H269465   5.780   0.235   0.537  0.1698 -0.6754 -1.8115
15992TIP3   OH269466   1.585   5.070  13.316 -0.5604 -0.3112  0.2518
15992TIP3    H169467   1.677   5.084  13.341 -0.5102  0.1594 -0.1826
15992TIP3    H269468   1.540   5.052  13.399 -0.1620 -0.0583  0.5267
15993TIP3   OH269469   0.681   0.855  11.833  0.1412 -0.4225  0.3438
15993TIP3    H169470   0.709   0.787  11.894 -1.4557 -0.3587  1.1584
15993TIP3    H269471   0.746   0.925  11.844  1.1420 -1.3345  0.3199
15994TIP3   OH269472   2.452   2.218   1.146 -0.6643 -0.0259  0.4641
15994TIP3    H169473   2.518   2.159   1.183  0.5344  0.0920 -1.4229
15994TIP3    H269474   2.396   2.161   1.092 -1.6292  0.0046  1.4265
15995TIP3   OH269475   5.261   0.024   3.859  0.9860 -0.5752  0.2969
15995TIP3    H169476   5.350   0.015   3.824  0.3916 -1.3493 -1.0363
15995TIP3    H269477   5.224   0.097   3.811  1.2184  0.3751  1.5453
15996TIP3   OH269478   4.205   2.083   2.115 -0.1024  0.0816 -0.1621
15996TIP3    H169479   4.241   2.144   2.050  0.4787 -1.2836 -1.1541
15996TIP3    H269480   4.245   2.109   2.198  2.2060 -0.5912 -1.0259
15997TIP3   OH269481   3.031   5.389   1.801  0.0177  0.1729  0.2091
15997TIP3    H169482   3.004   5.302   1.831  1.9191  0.2633  2.3264
15997TIP3    H269483   3.117   5.402   1.840  0.5718  2.2597 -1.6141
15998TIP3   OH269484   4.367   2.384   3.017 -0.2050  0.2417 -0.2703
15998TIP3    H169485   4.279   2.412   3.042 -1.0917 -1.0399 -1.8578
15998TIP3    H269486   4.372   2.292   3.042  0.1103 -0.1115 -1.5856
15999TIP3   OH269487   2.099   3.657   2.809 -0.0658  0.4351  0.2193
15999TIP3    H169488   2.022   3.605   2.829  0.1906  0.7321  2.0700
15999TIP3    H269489   2.168   3.593   2.790 -0.9490  0.1708 -2.3738
16000TIP3   OH269490   1.159   1.122  16.670  0.7593  0.1070 -0.3208
16000TIP3    H169491   1.254   1.125  16.666  0.6603  1.0706 -2.3996
16000TIP3    H269492   1.130   1.209  16.645 -0.6807  0.0067  0.8882
16001TIP3   OH269493   3.849   4.662  16.041 -0.1438 -0.3205  0.0718
16001TIP3    H169494   3.808   4.737  16.085 -1.8700 -1.7821  1.0147
16001TIP3    H269495   3.813   4.664  15.952  0.7396  0.6505 -0.2786
16002TIP3   OH269496   3.622   1.626  12.942 -0.5482  0.4449  0.5470
16002TIP3    H169497   3.716   1.612  12.925 -0.3557  1.7642  0.5032
16002TIP3    H269498   3.586   1.537  12.946  0.7344 -0.0855  0.7660
16003TIP3   OH269499   5.591   4.427  15.960 -0.4690 -0.0113  0.4484
16003TIP3    H169500   5.506   4.404  15.998 -0.4561 -1.2680 -0.2661
16003TIP3    H269501   5.653   4.418  16.032 -0.5638 -1.5994  0.3485
16004TIP3   OH269502   3.827   0.005   4.963  0.1281 -0.1217  0.3437
16004TIP3    H169503   3.799  -0.073   4.915  0.0999  0.2415 -0.2312
16004TIP3    H269504   3.756   0.020   5.027 -0.0803 -0.3032  0.1560
16005TIP3   OH269505   6.256   6.683  16.767 -0.2697  0.1801 -0.1136
16005TIP3    H169506   6.272   6.590  16.749  1.3784  0.4119  0.1097
16005TIP3    H269507   6.174   6.683  16.817  0.6515 -1.3053  1.4471
16006TIP3   OH269508   4.071   0.125   4.935 -0.4748  0.3370  0.9687
16006TIP3    H169509   4.085   0.219   4.948 -1.0195  0.3852  1.2183
16006TIP3    H269510   3.978   0.117   4.912 -0.0135  0.0465 -0.8696
16007TIP3   OH269511   4.437   5.243   3.534 -0.4126 -0.3727  0.1048
16007TIP3    H169512   4.462   5.150   3.536  1.1686  0.0206 -0.4175
16007TIP3    H269513   4.491   5.283   3.602  0.1985  0.4591 -0.8542
16008TIP3   OH269514   5.277   3.783   4.861 -0.0123  0.2340  0.4503
16008TIP3    H169515   5.274   3.689   4.875  4.2079 -0.3537 -1.6165
16008TIP3    H269516   5.298   3.820   4.946 -0.3589 -0.8231  1.0010
16009TIP3   OH269517   0.181   1.260  13.602  0.8429 -0.5932  0.1269
16009TIP3    H169518   0.203   1.315  13.677  0.3061  0.8077 -0.7204
16009TIP3    H269519   0.136   1.185  13.639 -0.9588  0.9122  1.0691
16010TIP3   OH269520   3.236   5.835  12.405  0.1368  0.1487 -0.2728
16010TIP3    H169521   3.294   5.866  12.474 -1.8864  1.8727  0.7132
16010TIP3    H269522   3.294   5.816  12.332  2.3295 -1.8498  1.9188
16011TIP3   OH269523   0.369   4.223  12.445  0.4141  0.4150  0.1561
16011TIP3    H169524   0.310   4.170  12.499 -0.8632  1.7311  0.0574
16011TIP3    H269525   0.449   4.230  12.499 -0.1061  0.0260  0.9985
16012TIP3   OH269526   3.641   6.046  12.613 -0.2517 -0.1016 -0.7693
16012TIP3    H169527   3.730   6.024  12.585  0.3914  1.6442 -0.1625
16012TIP3    H269528   3.649   6.064  12.707 -1.4980 -1.1881 -0.4340
16013TIP3   OH269529   1.088   2.590   4.511 -0.4254  0.1016  0.2884
16013TIP3    H169530   1.084   2.509   4.562  0.1513  1.0398  1.8853
16013TIP3    H269531   0.998   2.606   4.484 -0.8750 -0.0472  1.6438
16014TIP3   OH269532   2.366   5.254   5.706 -0.4222  0.3817 -0.4348
16014TIP3    H169533   2.329   5.323   5.650  0.3134  0.1279 -1.2560
16014TIP3    H269534   2.342   5.279   5.795 -1.0781  1.1314 -0.8200
16015TIP3   OH269535   2.567   1.172  16.493  0.7334  0.1787 -0.1450
16015TIP3    H169536   2.495   1.214  16.540  0.0673 -0.5271 -0.5361
16015TIP3    H269537   2.634   1.241  16.485 -0.1650  1.0289 -0.3777
16016TIP3   OH269538   6.555   5.947   3.082 -0.3907 -0.2432 -0.4540
16016TIP3    H169539   6.518   5.993   3.158  0.1845 -1.2406  0.4467
16016TIP3    H269540   6.612   6.012   3.040  1.6175 -0.5394  1.6817
16017TIP3   OH269541   2.942   1.323   5.538  0.5163  0.4495  0.1703
16017TIP3    H169542   2.949   1.367   5.623 -1.7240  2.2862 -0.5473
16017TIP3    H269543   2.866   1.266   5.546  1.3179 -0.6652 -0.0634
16018TIP3   OH269544   4.064   1.481  16.949  0.4999 -0.3780 -0.3867
16018TIP3    H169545   4.069   1.386  16.959 -0.0885 -0.6311 -2.2730
16018TIP3    H269546   4.130   1.515  17.009  0.4145 -1.9564  0.6299
16019TIP3   OH269547   1.413   0.607  16.852  0.3760  0.5150  0.2799
16019TIP3    H169548   1.496   0.559  16.842  1.0202  2.2309 -3.8372
16019TIP3    H269549   1.346   0.541  16.836  0.9913 -0.3920  1.3140
16020TIP3   OH269550   5.608   2.123  16.197  0.1626 -0.3625 -0.2321
16020TIP3    H169551   5.609   2.029  16.214  0.5417 -0.2571  0.3446
16020TIP3    H269552   5.700   2.149  16.202 -0.0051  0.1541  0.2923
16021TIP3   OH269553   5.299   0.801   0.300 -0.2430  0.5239 -0.2415
16021TIP3    H169554   5.390   0.783   0.324 -0.2422 -0.0466 -0.6466
16021TIP3    H269555   5.303   0.882   0.250  0.3799 -0.7676 -2.3577
16022TIP3   OH269556   6.751   2.518   4.012 -0.4260  0.3766  0.1270
16022TIP3    H169557   6.795   2.434   3.996 -1.3912 -0.1917  0.4449
16022TIP3    H269558   6.816   2.583   3.986  1.2735 -0.4035  2.1962
16023TIP3   OH269559   0.541   5.639  16.415  0.3264 -0.0424 -0.1387
16023TIP3    H169560   0.574   5.726  16.437  1.3874 -0.7586  1.1138
16023TIP3    H269561   0.473   5.622  16.480 -1.4933  0.7713 -1.7546
16024TIP3   OH269562   1.827   6.160   6.370 -0.3942 -0.0785  0.3295
16024TIP3    H169563   1.893   6.135   6.435  0.1339  0.9439  0.1995
16024TIP3    H269564   1.877   6.193   6.296 -1.0349  0.3813  0.0927
16025TIP3   OH269565   0.315   6.512   4.333  0.6313 -0.8495 -0.3991
16025TIP3    H169566   0.325   6.509   4.428 -2.2083  0.4927  0.0187
16025TIP3    H269567   0.310   6.606   4.313  0.6051 -1.1345 -1.7927
16026TIP3   OH269568   4.427   6.711  16.627  0.8130 -0.0084 -0.1464
16026TIP3    H169569   4.370   6.641  16.661  0.2145  0.2056 -0.6906
16026TIP3    H269570   4.419   6.781  16.691  1.7588 -0.6075  0.6251
16027TIP3   OH269571   5.436   6.499  17.046 -0.3442  0.1205 -0.8281
16027TIP3    H169572   5.443   6.584  17.090 -1.0333 -0.1674 -0.1470
16027TIP3    H269573   5.349   6.467  17.070 -0.0264 -0.8486 -0.9504
16028TIP3   OH269574   2.454   5.366   3.126 -0.0945  0.5466 -0.3484
16028TIP3    H169575   2.416   5.393   3.210  0.1318 -1.9741  0.6180
16028TIP3    H269576   2.548   5.376   3.139 -0.0388 -0.1643 -0.1509
16029TIP3   OH269577   0.735   0.077   5.246 -0.2160  0.2525 -0.3014
16029TIP3    H169578   0.731   0.155   5.191  0.6369  0.2977 -0.3172
16029TIP3    H269579   0.827   0.051   5.243 -0.5510 -0.9379 -0.5546
16030TIP3   OH269580   0.508   2.558  10.295  0.3607 -0.2806  0.4822
16030TIP3    H169581   0.596   2.595  10.295 -0.0688  0.7949 -1.5627
16030TIP3    H269582   0.451   2.630  10.322 -0.1801 -0.2252 -0.7929
16031TIP3   OH269583   1.438   1.819   1.403  0.2057 -0.2704  0.3520
16031TIP3    H169584   1.367   1.825   1.467 -0.0098 -0.0328  0.0881
16031TIP3    H269585   1.402   1.766   1.332 -0.6365  2.0617 -1.0277
16032TIP3   OH269586   4.062   5.767   0.670  0.1380 -0.4932 -0.8551
16032TIP3    H169587   4.009   5.731   0.741  0.3315 -0.4459 -0.6847
16032TIP3    H269588   4.148   5.782   0.710 -0.4687  1.9786 -0.3841
16033TIP3   OH269589   3.189   2.784  12.188 -0.3019  0.0639  0.0832
16033TIP3    H169590   3.134   2.850  12.146  0.2382  1.1138  1.0211
16033TIP3    H269591   3.270   2.783  12.137 -0.2143  0.2989  0.2193
16034TIP3   OH269592   1.459   0.235   1.585 -0.1498 -0.3562  0.0302
16034TIP3    H169593   1.475   0.325   1.610  2.5475 -0.5881 -0.7267
16034TIP3    H269594   1.372   0.215   1.620  0.1092  1.8515  2.0211
16035TIP3   OH269595   5.997   3.062  11.958 -0.1349 -0.2037 -0.0044
16035TIP3    H169596   5.933   2.997  11.987  0.1385 -0.2310  0.5446
16035TIP3    H269597   6.071   3.051  12.017  1.1435 -1.4163 -1.8006
16036TIP3   OH269598   1.317   5.508   1.399  0.1620  0.1055 -0.7482
16036TIP3    H169599   1.316   5.541   1.488 -0.6971  1.1003 -1.1236
16036TIP3    H269600   1.344   5.583   1.346  0.0738 -0.3168 -1.4000
16037TIP3   OH269601   1.742   1.205   2.231 -0.6504 -0.7670 -0.5176
16037TIP3    H169602   1.696   1.210   2.315 -2.1092 -2.3253 -1.2129
16037TIP3    H269603   1.736   1.113   2.206  0.5881 -0.4850 -1.8995
16038TIP3   OH269604   6.095   0.256   1.270  0.7022 -0.1547 -0.2643
16038TIP3    H169605   6.060   0.314   1.337 -0.7265 -1.0809 -0.1840
16038TIP3    H269606   6.186   0.242   1.295 -0.1752 -1.6367  2.3236
16039TIP3   OH269607   2.868   1.737   3.210  0.3104 -0.4255 -0.0360
16039TIP3    H169608   2.853   1.783   3.293 -0.2217 -2.1562  0.8661
16039TIP3    H269609   2.782   1.703   3.186  0.5459 -0.2958 -1.0756
16040TIP3   OH269610   0.702   3.060  13.489 -0.7717 -0.0928 -0.3763
16040TIP3    H169611   0.618   3.089  13.524 -0.5551 -2.1924  2.0113
16040TIP3    H269612   0.690   2.966  13.473  1.1313 -0.4322  0.0783
16041TIP3   OH269613   2.542   0.981  12.136  0.1974  0.0514  0.2639
16041TIP3    H169614   2.493   0.908  12.174  0.3681 -0.1477  0.0958
16041TIP3    H269615   2.481   1.055  12.140  0.4497  0.1950  1.5517
16042TIP3   OH269616   2.461   0.102   2.033  0.1813  0.4864 -0.2192
16042TIP3    H169617   2.402   0.158   1.984 -0.9727 -0.2234  0.3384
16042TIP3    H269618   2.418   0.016   2.033  0.3987  0.3486  1.5820
16043TIP3   OH269619   4.329   6.412  14.804  0.2105  0.1137  0.6876
16043TIP3    H169620   4.303   6.437  14.893  0.1431  1.4275  0.3105
16043TIP3    H269621   4.251   6.368  14.768 -0.8077  2.2013  0.2764
16044TIP3   OH269622   5.342   4.026   3.042  0.3995  0.2416  0.3644
16044TIP3    H169623   5.389   4.106   3.018  2.8177 -1.1009  0.5861
16044TIP3    H269624   5.298   3.999   2.961  1.9063  0.2121 -0.4574
16045TIP3   OH269625   1.643   4.674   2.081 -0.3155  0.2689 -0.6219
16045TIP3    H169626   1.672   4.607   2.143 -2.2225  0.4135  0.4904
16045TIP3    H269627   1.695   4.751   2.103  0.4099 -0.2399 -0.5258
16046TIP3   OH269628   6.605   1.713   4.094 -0.2246 -0.9049  0.3942
16046TIP3    H169629   6.577   1.621   4.094 -1.5982 -0.4958  0.7006
16046TIP3    H269630   6.665   1.720   4.020 -3.0399 -1.1871 -1.9989
16047TIP3   OH269631   3.697   0.430  13.605  0.0211 -0.4230 -0.3560
16047TIP3    H169632   3.679   0.499  13.541 -0.4807 -0.2711 -0.0565
16047TIP3    H269633   3.624   0.369  13.595 -1.1322  0.6138  1.4466
16048TIP3   OH269634   0.180   1.487  12.593  0.3049  0.4104 -0.0681
16048TIP3    H169635   0.254   1.488  12.532  1.5463  2.0563  1.4076
16048TIP3    H269636   0.205   1.423  12.660  0.3775  0.8978  0.3774
16049TIP3   OH269637   2.539   2.352  13.791  0.0304 -0.1584 -0.0444
16049TIP3    H169638   2.620   2.381  13.832  0.3025 -0.6994 -0.2019
16049TIP3    H269639   2.551   2.369  13.698 -0.7965  1.5624  0.1567
16050TIP3   OH269640   4.649   5.362   1.552  0.1105 -0.0784 -0.1942
16050TIP3    H169641   4.636   5.348   1.646  0.8493  0.0599 -0.0703
16050TIP3    H269642   4.670   5.276   1.517 -1.2649 -0.3402 -0.4278
16051TIP3   OH269643   3.526   0.782   3.185 -0.0539  0.4517 -0.5050
16051TIP3    H169644   3.618   0.809   3.191  0.0884  0.1054 -1.0964
16051TIP3    H269645   3.497   0.817   3.101 -0.3507  0.2213 -0.4957
16052TIP3   OH269646   4.135   4.257  12.132 -0.5301 -0.3777 -0.1306
16052TIP3    H169647   4.089   4.317  12.074  0.6212  0.4784 -0.1686
16052TIP3    H269648   4.196   4.211  12.075 -0.6401 -0.8015  0.0941
16053TIP3   OH269649   1.038   4.811   5.523 -0.2426 -0.5293  0.2432
16053TIP3    H169650   0.997   4.782   5.604 -0.1062 -0.2563  0.4124
16053TIP3    H269651   1.076   4.732   5.485  0.4229 -0.5193  0.8704
16054TIP3   OH269652   4.316   4.052   3.828  0.3861 -0.5750  0.3420
16054TIP3    H169653   4.238   4.062   3.882  2.4659 -2.2113  3.8566
16054TIP3    H269654   4.370   4.128   3.850  0.1144  0.1849 -1.5414
16055TIP3   OH269655   3.522   2.281   4.117  0.0331  0.2528  0.0147
16055TIP3    H169656   3.601   2.239   4.150  0.9972  1.9301 -0.1154
16055TIP3    H269657   3.453   2.217   4.132  1.1120 -0.5440  1.7633
16056TIP3   OH269658   4.451   1.929  11.380 -0.0517 -0.1513 -0.1311
16056TIP3    H169659   4.544   1.908  11.371 -0.2970 -0.9016 -1.0861
16056TIP3    H269660   4.449   2.023  11.400  0.9140 -0.1598  0.0252
16057TIP3   OH269661   3.976   0.846  14.562  0.5266 -0.2738  0.4234
16057TIP3    H169662   3.988   0.762  14.519  4.4775  1.0696 -1.3901
16057TIP3    H269663   3.956   0.907  14.491 -1.9186  0.4222  1.6573
16058TIP3   OH269664   2.031   4.347  14.236 -0.2112 -0.2098  0.4851
16058TIP3    H169665   2.018   4.422  14.178 -2.3637  0.5319  1.8428
16058TIP3    H269666   2.088   4.379  14.305 -0.6706  0.0354  0.7580
16059TIP3   OH269667   6.302   5.118   3.913  0.2462  0.2311  0.1305
16059TIP3    H169668   6.240   5.092   3.846  0.4367 -0.5763  0.2555
16059TIP3    H269669   6.311   5.040   3.969  3.4839 -0.6670 -1.4870
16060TIP3   OH269670   6.589   3.572   1.998  0.9688  0.0426 -0.1192
16060TIP3    H169671   6.525   3.523   2.050  0.1645  2.1860  1.0085
16060TIP3    H269672   6.674   3.539   2.026  0.4299 -0.9987  0.3004
16061TIP3   OH269673   2.364   5.870   4.322  0.1966  0.2513 -1.0316
16061TIP3    H169674   2.449   5.828   4.331  0.3614 -0.3925 -4.6089
16061TIP3    H269675   2.384   5.959   4.294 -0.2790  0.9369  0.7493
16062TIP3   OH269676   6.045   0.284  13.081 -0.5844 -0.1217 -0.3141
16062TIP3    H169677   6.070   0.265  12.991 -0.2733 -0.7290 -0.0990
16062TIP3    H269678   6.123   0.264  13.133 -1.1619 -0.9779  0.2334
16063TIP3   OH269679   6.704   5.058  13.370 -0.5412  0.0039  0.3088
16063TIP3    H169680   6.780   5.006  13.346  0.9428  1.8591  0.8787
16063TIP3    H269681   6.670   5.091  13.287 -0.5376 -0.5618  0.0816
16064TIP3   OH269682   3.443   2.872  12.095  0.3112  0.1127  0.3082
16064TIP3    H169683   3.464   2.879  12.189  0.0293  0.0114  0.3778
16064TIP3    H269684   3.386   2.947  12.078  2.6131  1.7709 -0.4010
16065TIP3   OH269685   4.636   3.161  13.239 -0.2030 -0.1835 -0.1183
16065TIP3    H169686   4.699   3.231  13.218 -1.5767  0.3606 -2.4735
16065TIP3    H269687   4.685   3.103  13.298  2.7183 -0.0557 -2.2903
16066TIP3   OH269688   5.875   4.002  14.772  0.0875 -0.8803 -0.2916
16066TIP3    H169689   5.796   4.000  14.825  0.2660 -1.4843 -0.0460
16066TIP3    H269690   5.911   4.090  14.785  0.1714 -1.0537  0.6472
16067TIP3   OH269691   2.023   4.021   4.859  0.6106  0.2632  0.0999
16067TIP3    H169692   1.977   3.939   4.874  0.3076  0.3736 -0.2024
16067TIP3    H269693   1.974   4.086   4.910  1.0069  0.2043  0.5485
16068TIP3   OH269694   1.637   3.045   5.944 -0.3301  0.5184  0.0791
16068TIP3    H169695   1.639   2.992   6.023  0.1178 -0.5068 -0.6002
16068TIP3    H269696   1.558   3.016   5.898 -0.0189  0.3282 -0.3509
16069TIP3   OH269697   0.639   2.246  16.159  0.1467  0.5249  0.8321
16069TIP3    H169698   0.717   2.208  16.198  0.5409 -0.4190 -0.7976
16069TIP3    H269699   0.567   2.216  16.214  0.6896 -0.7222  0.8691
16070TIP3   OH269700   1.774   4.858  14.531 -0.2031 -0.4374  0.0080
16070TIP3    H169701   1.832   4.868  14.607  0.2590 -1.4088 -0.2024
16070TIP3    H269702   1.745   4.767  14.536 -1.3699 -0.0775 -0.1362
16071TIP3   OH269703   2.908   1.884   0.744 -0.1255  0.5601 -0.5181
16071TIP3    H169704   2.877   1.956   0.799 -0.3495  0.7786 -0.9284
16071TIP3    H269705   2.915   1.922   0.656  0.0378  0.1609 -0.6793
16072TIP3   OH269706   5.818   0.237   5.204 -0.0322 -0.0524 -0.2262
16072TIP3    H169707   5.844   0.253   5.295 -1.6020 -0.9098  0.3870
16072TIP3    H269708   5.745   0.298   5.189  1.0575  1.0159 -1.3455
16073TIP3   OH269709   1.196   1.041   4.080 -0.2951 -0.4506 -0.2674
16073TIP3    H169710   1.246   1.051   4.161 -0.0552  2.1944 -0.6749
16073TIP3    H269711   1.190   0.947   4.066  1.3206 -0.8883  1.7954
16074TIP3   OH269712   5.026   0.630   4.515 -0.1631  0.5727 -0.1631
16074TIP3    H169713   5.052   0.600   4.602  0.1174  0.4135 -0.3016
16074TIP3    H269714   4.963   0.700   4.532 -0.4528  0.2383  0.1658
16075TIP3   OH269715   1.877   1.091  14.546  0.0720  0.0570  0.6522
16075TIP3    H169716   1.835   1.158  14.493  0.3985  0.7245  1.2246
16075TIP3    H269717   1.844   1.008  14.512 -1.6778  0.5670  1.0902
16076TIP3   OH269718   0.063   0.650   6.917 -0.4499  0.1158 -0.2152
16076TIP3    H169719   0.071   0.634   6.823 -1.9192 -1.5676 -0.0894
16076TIP3    H269720   0.079   0.564   6.957 -0.2697  0.7276  1.0466
16077TIP3   OH269721   3.387   4.618   2.674  0.4974  0.4888 -0.6019
16077TIP3    H169722   3.397   4.524   2.659  1.7477  0.7265 -1.3071
16077TIP3    H269723   3.469   4.645   2.714 -0.9334  0.7857  2.2483
16078TIP3   OH269724   4.276   4.695  17.253 -0.1306 -0.4256  0.1445
16078TIP3    H169725   4.301   4.665  17.340 -0.5964 -1.2810 -0.0134
16078TIP3    H269726   4.181   4.686  17.250 -0.3556  1.6091  0.2894
16079TIP3   OH269727   6.601   2.686  10.795  0.1039 -0.3507 -0.0347
16079TIP3    H169728   6.682   2.718  10.835 -0.0668 -0.2651  0.2470
16079TIP3    H269729   6.565   2.762  10.750  0.1254 -0.3596 -0.0664
16080TIP3   OH269730   6.188   4.751  11.675 -0.1715  0.8667 -0.1236
16080TIP3    H169731   6.156   4.805  11.602 -1.1760  1.0201  0.4163
16080TIP3    H269732   6.279   4.776  11.685 -0.9654  3.4533  0.9779
16081TIP3   OH269733   6.458   0.540   4.887  0.1441  0.6137 -0.1024
16081TIP3    H169734   6.470   0.620   4.938 -2.1927  0.2391  1.1043
16081TIP3    H269735   6.430   0.475   4.951 -0.1630 -0.5843 -1.4402
16082TIP3   OH269736   6.467   0.991  14.466  0.3793  0.3008  0.4651
16082TIP3    H169737   6.432   1.045  14.537  2.0497  0.0785  1.4786
16082TIP3    H269738   6.560   1.011  14.463  0.4814 -0.2993 -1.1465
16083TIP3   OH269739   1.252   3.476   1.462  0.6693 -0.6277 -0.7287
16083TIP3    H169740   1.168   3.432   1.472  0.0166  0.7617 -0.0785
16083TIP3    H269741   1.299   3.459   1.544 -0.2310  1.2405  0.1990
16084TIP3   OH269742   3.749   1.663   5.308 -0.3427  0.0060  0.6756
16084TIP3    H169743   3.830   1.654   5.258 -0.3579  0.9010  0.4704
16084TIP3    H269744   3.768   1.624   5.393  0.0431 -0.5149  0.3515
16085TIP3   OH269745   0.034   2.640   1.491  0.3296 -0.2811 -0.3424
16085TIP3    H169746   0.002   2.620   1.403  2.3215  0.9303 -1.3577
16085TIP3    H269747  -0.040   2.684   1.533 -1.4291 -2.8370 -0.6053
16086TIP3   OH269748   0.515   5.203   4.195  0.3340  0.1982 -0.0086
16086TIP3    H169749   0.492   5.130   4.251 -1.7377  0.1602 -0.8296
16086TIP3    H269750   0.458   5.275   4.224  1.4828  1.1128  0.0088
16087TIP3   OH269751   6.254   4.142   4.723  0.2271 -0.2009 -0.6605
16087TIP3    H169752   6.218   4.074   4.667  0.3806 -1.6414  0.9456
16087TIP3    H269753   6.182   4.165   4.783  0.4244  0.4732 -0.6759
16088TIP3   OH269754   0.501   0.036  11.552  0.0158  0.2759  0.5667
16088TIP3    H169755   0.544  -0.044  11.583  0.3317  0.3733  0.3895
16088TIP3    H269756   0.536   0.105  11.609  2.4779  0.8441 -1.5347
16089TIP3   OH269757   3.151   3.147  13.429  0.1416 -0.0854 -0.4982
16089TIP3    H169758   3.116   3.197  13.503 -0.8721  1.3087 -1.8878
16089TIP3    H269759   3.235   3.114  13.461  0.4191  1.7512  0.7787
16090TIP3   OH269760   2.260   0.346   3.392 -0.3135  0.0965 -0.1447
16090TIP3    H169761   2.243   0.437   3.419 -0.6250  0.0408 -0.1481
16090TIP3    H269762   2.290   0.354   3.301 -1.2594  0.1268 -0.4627
16091TIP3   OH269763   1.472   3.701  16.203  0.3745 -0.1983 -0.3063
16091TIP3    H169764   1.524   3.779  16.183  1.6035 -0.9738 -0.1810
16091TIP3    H269765   1.531   3.645  16.253 -1.0514 -0.4635  1.1442
16092TIP3   OH269766   4.809   6.457   5.324 -0.5127 -0.8107  0.5348
16092TIP3    H169767   4.845   6.373   5.298 -0.0612 -0.6980  0.7908
16092TIP3    H269768   4.867   6.488   5.393 -0.1702  0.1120 -0.1543
16093TIP3   OH269769   3.874   4.591   3.371  0.4676 -0.5137 -0.1980
16093TIP3    H169770   3.956   4.640   3.380  0.1627  0.1492 -0.9986
16093TIP3    H269771   3.854   4.564   3.461  1.7662 -1.0310 -0.0491
16094TIP3   OH269772   0.329   2.886   2.224 -0.2910 -0.3856 -0.2515
16094TIP3    H169773   0.386   2.812   2.204  1.5302  0.8641  0.1607
16094TIP3    H269774   0.242   2.848   2.234  0.8789 -2.6985  1.5881
16095TIP3   OH269775   0.506   0.694  16.755 -0.4103 -0.2656  0.2720
16095TIP3    H169776   0.479   0.688  16.663 -0.3974  0.3823  0.2198
16095TIP3    H269777   0.537   0.606  16.777  3.7132  0.5709 -1.6327
16096TIP3   OH269778   0.137   2.067   4.801 -0.0771 -0.4414 -0.5082
16096TIP3    H169779   0.214   2.021   4.770 -1.2456 -2.8133  0.0208
16096TIP3    H269780   0.116   2.129   4.731  3.1416  1.3016 -0.0023
16097TIP3   OH269781   2.610   6.159  15.792 -0.6714  0.0290 -0.1667
16097TIP3    H169782   2.519   6.176  15.768 -0.9114  0.3844  0.9743
16097TIP3    H269783   2.626   6.069  15.763 -1.1174  0.2541 -1.1350
16098TIP3   OH269784   5.355   6.491   5.045 -0.2775 -0.4549 -0.1609
16098TIP3    H169785   5.432   6.543   5.021 -0.4567 -0.6309 -1.1492
16098TIP3    H269786   5.325   6.454   4.962 -1.4422 -0.3692  0.2126
16099TIP3   OH269787   2.417   6.196   0.359 -0.7955  0.2856 -0.5144
16099TIP3    H169788   2.375   6.111   0.372 -0.8109  0.3813  0.0523
16099TIP3    H269789   2.346   6.252   0.327 -1.2536  0.6127  1.0438
16100TIP3   OH269790   4.809   0.289  15.131 -0.6014  0.1390  0.2230
16100TIP3    H169791   4.894   0.289  15.173 -0.5867  0.0822  0.1946
16100TIP3    H269792   4.759   0.222  15.177 -1.3176  1.6060  1.6141
16101TIP3   OH269793   2.374   3.605  14.506  0.2307 -0.6389  0.4871
16101TIP3    H169794   2.443   3.668  14.529 -1.1936  0.5017  1.7163
16101TIP3    H269795   2.313   3.654  14.451 -0.6554 -1.0571  1.0830
16102TIP3   OH269796   3.129   6.273  11.916 -0.7110 -0.1108  0.1771
16102TIP3    H169797   3.148   6.317  11.998  1.1254 -0.7846  0.1282
16102TIP3    H269798   3.119   6.181  11.939  1.4944 -0.5614 -0.5684
16103TIP3   OH269799   1.223   3.708   2.531  0.1790  0.3866 -0.0576
16103TIP3    H169800   1.188   3.632   2.578 -1.0656  0.6997 -0.4567
16103TIP3    H269801   1.244   3.772   2.600  0.2377  0.0837  0.2046
16104TIP3   OH269802   2.705   1.385  13.836 -0.3280 -0.3709 -0.2764
16104TIP3    H169803   2.741   1.304  13.872 -1.6440 -0.7974  0.1294
16104TIP3    H269804   2.651   1.356  13.762  1.5153  0.4074 -1.9566
16105TIP3   OH269805   5.322   4.384  16.058 -0.3664 -0.6189 -0.8063
16105TIP3    H169806   5.273   4.308  16.027  1.3769 -2.2946  0.4269
16105TIP3    H269807   5.361   4.355  16.140  0.9544  1.3670 -0.7081
16106TIP3   OH269808   4.792   4.896  11.267  0.6186  0.2129  0.2782
16106TIP3    H169809   4.720   4.833  11.275  0.1223  0.6346 -0.7717
16106TIP3    H269810   4.852   4.855  11.205  0.4752  0.6062 -0.1210
16107TIP3   OH269811   6.040   0.154  11.213  0.8830 -0.4087 -0.1658
16107TIP3    H169812   5.972   0.172  11.148  1.6987 -1.4817 -1.3369
16107TIP3    H269813   6.061   0.240  11.249  0.5861  0.2507 -1.5125
16108TIP3   OH269814   1.192   1.762  10.677  0.1500 -0.1263 -0.0364
16108TIP3    H169815   1.131   1.697  10.643  2.2636 -2.6888  0.8835
16108TIP3    H269816   1.259   1.770  10.608  0.2074  0.6382  0.1087
16109TIP3   OH269817   1.786   4.057   1.571 -0.4783 -0.8799 -0.0538
16109TIP3    H169818   1.771   4.126   1.506 -0.4672 -0.8149  0.0128
16109TIP3    H269819   1.740   3.980   1.535 -0.3771 -0.8751 -0.1926
16110TIP3   OH269820   0.879   0.087   3.414  0.6443  0.3986  0.1678
16110TIP3    H169821   0.962   0.096   3.460  0.8122  1.1260 -0.2638
16110TIP3    H269822   0.898   0.028   3.341  1.4182  2.5358 -1.4026
16111TIP3   OH269823   5.794   4.303   5.258 -0.3001  0.7181  0.1432
16111TIP3    H169824   5.875   4.340   5.294  0.4643  0.3838 -1.2187
16111TIP3    H269825   5.725   4.349   5.306  0.6725 -0.0956  2.4254
16112TIP3   OH269826   4.598   2.404   2.672  0.4924 -0.3929  0.3897
16112TIP3    H169827   4.606   2.311   2.693 -1.6916 -0.7433 -0.1547
16112TIP3    H269828   4.635   2.412   2.584  0.1107 -0.8602  0.1872
16113TIP3   OH269829   0.740   6.812  12.881 -0.0222  0.5507  0.4668
16113TIP3    H169830   0.812   6.786  12.823  0.9204  1.2080  1.3401
16113TIP3    H269831   0.681   6.736  12.880 -0.2011  0.6767 -1.6145
16114TIP3   OH269832   6.415   6.137  15.405  0.5624 -0.0310  0.2161
16114TIP3    H169833   6.496   6.188  15.410  1.0042 -0.8321  1.3857
16114TIP3    H269834   6.444   6.046  15.408 -0.4109 -0.3229  1.0334
16115TIP3   OH269835   1.906   5.428   3.002 -0.1790 -0.0934  0.2535
16115TIP3    H169836   1.949   5.498   3.051 -1.2589  0.0563  1.0145
16115TIP3    H269837   1.973   5.397   2.941  0.9104  0.3376  1.1955
16116TIP3   OH269838   5.402   2.321  16.244 -0.9970  0.0694  0.6375
16116TIP3    H169839   5.425   2.329  16.336 -1.9266  0.2857  0.8612
16116TIP3    H269840   5.448   2.243  16.214  0.8362  1.0529  0.8018
16117TIP3   OH269841   0.503   4.587  14.777  0.7272  0.0990  0.4569
16117TIP3    H169842   0.505   4.498  14.811  0.0193 -0.4338 -0.8740
16117TIP3    H269843   0.414   4.618  14.795  0.4472 -0.0717 -0.5881
16118TIP3   OH269844   5.396   3.640   3.535 -0.8751 -0.2888 -0.2514
16118TIP3    H169845   5.303   3.664   3.527 -0.6542  0.5003 -0.6047
16118TIP3    H269846   5.407   3.616   3.626 -2.1952 -3.7914 -0.9328
16119TIP3   OH269847   3.329   3.531   0.066  0.6274  0.1874  0.3787
16119TIP3    H169848   3.327   3.623   0.040  0.1662 -0.5123 -2.2284
16119TIP3    H269849   3.247   3.517   0.113  0.5794  1.0330  0.5527
16120TIP3   OH269850   2.165   1.007  12.365 -0.3162 -0.2471  0.2514
16120TIP3    H169851   2.260   0.999  12.368 -0.1942  0.6425 -1.2166
16120TIP3    H269852   2.145   1.083  12.419 -0.1289  0.0505 -0.0977
16121TIP3   OH269853   0.895   0.454   0.045 -0.0911  0.0582  1.0999
16121TIP3    H169854   0.886   0.542   0.008  0.4682  0.6881  2.4393
16121TIP3    H269855   0.822   0.405   0.007  0.0473  0.8893 -0.2531
16122TIP3   OH269856   3.342   3.385  15.879  0.1575  0.2089 -0.0354
16122TIP3    H169857   3.252   3.416  15.873  0.0582 -0.3542 -1.6636
16122TIP3    H269858   3.351   3.354  15.969 -0.7198  1.9221  0.6547
16123TIP3   OH269859   5.911   2.840  11.621 -0.5375 -0.1418 -0.0148
16123TIP3    H169860   5.894   2.835  11.527 -1.2120 -0.6214  0.1233
16123TIP3    H269861   5.984   2.901  11.630  0.0066 -0.6536 -0.9038
16124TIP3   OH269862   0.721   5.936   2.657 -0.4510 -0.4243  0.3473
16124TIP3    H169863   0.769   5.876   2.600  0.5561  1.1891 -0.5757
16124TIP3    H269864   0.735   6.022   2.617  1.3233  0.9347  3.6794
16125TIP3   OH269865   3.344   3.851  13.169  0.3541 -0.1225  0.0709
16125TIP3    H169866   3.281   3.897  13.114  0.5291  1.2648  1.0136
16125TIP3    H269867   3.347   3.763  13.132 -2.1515 -0.2337  0.0090
16126TIP3   OH269868   0.777   1.467  11.277 -0.4651  0.0601 -0.3570
16126TIP3    H169869   0.718   1.522  11.328 -0.2118 -1.0316  1.1655
16126TIP3    H269870   0.722   1.428  11.209 -0.6513  2.1119 -1.4017
16127TIP3   OH269871   2.028   1.566  16.259  0.4735 -0.0164 -0.3538
16127TIP3    H169872   1.995   1.602  16.341 -0.2244  0.5921 -0.8906
16127TIP3    H269873   2.042   1.643  16.204 -0.9104 -0.5491 -1.4730
16128TIP3   OH269874   4.803   6.761  17.024 -0.0037 -0.0343 -0.5889
16128TIP3    H169875   4.890   6.749  17.062 -0.2196 -0.5423 -0.2425
16128TIP3    H269876   4.744   6.760  17.099 -0.1303  2.4133 -0.6283
16129TIP3   OH269877   4.855   0.692   0.361  0.0465  0.6425 -0.3192
16129TIP3    H169878   4.779   0.681   0.417  0.7477  1.0152  0.7354
16129TIP3    H269879   4.910   0.616   0.380 -0.6779 -0.3444 -2.0993
16130TIP3   OH269880   0.965   2.092   0.482  0.3926 -0.4052 -0.4297
16130TIP3    H169881   0.958   2.067   0.574 -0.3707  2.8564  0.4682
16130TIP3    H269882   0.889   2.052   0.440 -2.1527  2.2889  1.4414
16131TIP3   OH269883   3.490   4.960  14.203 -0.1014  0.4088 -0.5510
16131TIP3    H169884   3.452   4.911  14.276  1.5728 -0.0848  0.0093
16131TIP3    H269885   3.415   5.004  14.162 -1.3061 -0.7633  0.3451
16132TIP3   OH269886   5.336   2.609  14.821 -0.3138 -0.3225  0.2337
16132TIP3    H169887   5.411   2.567  14.863 -1.2998 -3.1827 -0.6693
16132TIP3    H269888   5.363   2.619  14.729  0.2340  1.8853  0.6160
16133TIP3   OH269889   0.352   6.082  12.668  0.3797  0.5219  0.0043
16133TIP3    H169890   0.350   6.158  12.727 -0.5444  0.8160 -0.3982
16133TIP3    H269891   0.328   6.008  12.724  0.2628  0.6831  0.1717
16134TIP3   OH269892   5.158   5.937  13.873  0.4757 -0.3500  0.1448
16134TIP3    H169893   5.192   5.956  13.785 -0.0795 -0.5902 -0.1272
16134TIP3    H269894   5.192   5.849  13.893  1.0124 -0.0890  0.3772
16135TIP3   OH269895   4.312   6.189   0.808 -0.4321 -0.6039 -0.2229
16135TIP3    H169896   4.354   6.123   0.863  0.3208 -0.4913 -0.6664
16135TIP3    H269897   4.256   6.238   0.869  0.9585 -0.0133  0.5863
16136TIP3   OH269898   0.680   0.500  11.702  0.1009 -0.1242  0.4782
16136TIP3    H169899   0.734   0.535  11.631 -1.6705  0.9265 -0.3698
16136TIP3    H269900   0.724   0.528  11.782 -0.9276  3.5921 -0.1660
16137TIP3   OH269901   5.217   6.774  15.766 -0.0292  0.5628  0.5713
16137TIP3    H169902   5.199   6.716  15.692  1.4956  0.6549  0.1087
16137TIP3    H269903   5.141   6.764  15.823 -0.0129 -1.5377  0.2762
16138TIP3   OH269904   3.038   0.011   2.412 -0.4424 -0.3545  0.2881
16138TIP3    H169905   2.964  -0.030   2.367 -2.0610  2.3968  0.2613
16138TIP3    H269906   2.998   0.085   2.458  2.0109 -0.0570  1.9782
16139TIP3   OH269907   5.816   1.136   5.123 -0.6838  0.4655  0.0198
16139TIP3    H169908   5.777   1.069   5.067 -1.4117  0.2888  0.7326
16139TIP3    H269909   5.878   1.089   5.179 -0.9747  0.4333  0.3151
16140TIP3   OH269910   5.165   5.555  15.662 -0.1315 -0.0117  0.4528
16140TIP3    H169911   5.089   5.533  15.608 -0.5814  1.0824  0.6102
16140TIP3    H269912   5.177   5.649  15.648  3.4900 -0.8159 -2.4505
16141TIP3   OH269913   6.378   5.924   1.739  0.2733 -0.5551  0.0032
16141TIP3    H169914   6.384   5.941   1.834  0.1676 -0.7235  0.0394
16141TIP3    H269915   6.331   5.841   1.733 -0.4236 -0.1451 -0.2244
16142TIP3   OH269916   4.762   1.973  11.369 -0.6514 -0.3361 -0.3715
16142TIP3    H169917   4.754   2.061  11.406 -4.3825 -0.4448 -0.6533
16142TIP3    H269918   4.775   1.916  11.445 -0.1629  0.2654 -0.0019
16143TIP3   OH269919   0.002   0.754   2.046 -0.4518 -0.0177  0.1410
16143TIP3    H169920  -0.013   0.680   2.104 -0.5459 -0.8878 -0.9612
16143TIP3    H269921   0.084   0.794   2.076  0.0079 -1.0459  0.2502
16144TIP3   OH269922   6.622   3.591   6.612  0.2611  0.3548  0.0192
16144TIP3    H169923   6.717   3.590   6.623  0.2138  0.7728  0.4862
16144TIP3    H269924   6.592   3.509   6.650  0.5607 -0.3814 -1.3209
16145TIP3   OH269925   6.170   5.593  14.765 -0.3494 -0.0508 -0.4679
16145TIP3    H169926   6.164   5.584  14.860  2.0698  0.4157 -0.2366
16145TIP3    H269927   6.098   5.652  14.742  0.0940  1.2198  1.2993
16146TIP3   OH269928   3.967   5.874  16.266 -0.2698  0.0952  0.0254
16146TIP3    H169929   4.024   5.810  16.222 -0.6900  0.5943 -1.2500
16146TIP3    H269930   3.909   5.906  16.197  0.2782  2.2576  0.5424
16147TIP3   OH269931   2.740   1.204   4.730  0.2573  0.0739  0.0221
16147TIP3    H169932   2.798   1.155   4.672 -0.5125  1.3475 -1.8723
16147TIP3    H269933   2.652   1.172   4.710 -0.1271  1.3263 -0.3336
16148TIP3   OH269934   2.980   2.716   5.726 -0.1299 -0.5942  0.3835
16148TIP3    H169935   2.947   2.719   5.816 -2.8928 -0.7123 -0.5880
16148TIP3    H269936   2.986   2.808   5.700  0.7404 -0.5573  0.7048
16149TIP3   OH269937   6.488   1.167   0.457 -0.1522 -0.2737  0.1553
16149TIP3    H169938   6.395   1.162   0.434 -0.7906 -1.6831  2.8829
16149TIP3    H269939   6.520   1.078   0.444  0.5542 -0.0361  0.2803
16150TIP3   OH269940   3.758   1.810  10.721 -0.0199 -0.1077 -0.1841
16150TIP3    H169941   3.844   1.839  10.692  0.3115 -0.6220  0.2867
16150TIP3    H269942   3.765   1.715  10.725 -0.4839 -0.1238  0.2598
16151TIP3   OH269943   6.755   3.647   1.450 -0.0660 -0.2374 -0.2330
16151TIP3    H169944   6.848   3.626   1.441  0.4048  1.1457  1.1377
16151TIP3    H269945   6.710   3.571   1.414  1.5920 -1.2096 -0.3280
16152TIP3   OH269946   3.448   2.888   5.179  0.6553 -0.2323  0.2674
16152TIP3    H169947   3.535   2.866   5.211  0.1434 -0.2885  1.6674
16152TIP3    H269948   3.401   2.920   5.257 -0.6313 -0.3943 -0.4242
16153TIP3   OH269949   1.035   3.449   1.844  0.0232  0.1795 -0.8518
16153TIP3    H169950   1.084   3.423   1.922  1.6271  0.5997 -1.6985
16153TIP3    H269951   0.948   3.473   1.877  0.6164  0.1413  0.7739
16154TIP3   OH269952   3.317   2.587  15.214  0.3995  0.0392 -0.3804
16154TIP3    H169953   3.316   2.666  15.268 -0.1928  0.6270 -1.2223
16154TIP3    H269954   3.305   2.515  15.275 -0.7847  0.7248  0.2192
16155TIP3   OH269955   6.053   5.420  16.848 -0.5246  0.2247 -0.1587
16155TIP3    H169956   6.019   5.405  16.760  0.8470  1.1446 -0.8593
16155TIP3    H269957   6.146   5.400  16.842 -0.4150  0.3252  1.0756
16156TIP3   OH269958   3.276   4.119  17.026  0.1927 -0.8860 -0.5290
16156TIP3    H169959   3.214   4.126  16.954  0.4196  0.0266 -0.6387
16156TIP3    H269960   3.357   4.156  16.992 -0.2632  1.4836  0.8355
16157TIP3   OH269961   3.663   1.586   1.264  0.3566 -0.3752 -0.0471
16157TIP3    H169962   3.688   1.629   1.346 -1.6073  0.7334  0.0031
16157TIP3    H269963   3.676   1.493   1.280  1.7151 -0.0286  0.9104
16158TIP3   OH269964   5.405   3.702  15.984 -0.4514 -0.2017  0.6991
16158TIP3    H169965   5.375   3.694  15.894  1.1882  2.4705 -0.1383
16158TIP3    H269966   5.325   3.701  16.036 -1.4275 -1.4669 -0.7937
16159TIP3   OH269967   0.634   2.698   3.976  0.1959  0.1192 -0.0164
16159TIP3    H169968   0.689   2.705   3.898 -0.5443  2.0311 -0.4116
16159TIP3    H269969   0.544   2.707   3.943 -0.2160 -0.5368  0.8948
16160TIP3   OH269970   1.635   5.887   2.933  0.0284 -0.4472 -0.0193
16160TIP3    H169971   1.634   5.804   2.980 -2.8774 -0.4145  0.0212
16160TIP3    H269972   1.558   5.884   2.876 -1.2459  2.9838  1.3921
16161TIP3   OH269973   4.030   4.003  10.715  0.1788 -1.1947  0.2820
16161TIP3    H169974   4.068   3.968  10.635  1.3121  1.0437 -0.2006
16161TIP3    H269975   4.101   4.055  10.754 -1.7301  1.4136  0.3879
16162TIP3   OH269976   0.143   6.367   1.025 -0.1157  0.7161 -0.4771
16162TIP3    H169977   0.126   6.457   0.996 -1.4205  0.2836 -1.1073
16162TIP3    H269978   0.082   6.314   0.974 -1.7691 -0.1851  2.3363
16163TIP3   OH269979   1.002   0.968   5.683 -0.0151 -0.0536  0.1195
16163TIP3    H169980   0.987   0.924   5.766 -2.7592  1.4138  0.4611
16163TIP3    H269981   1.061   1.041   5.706  1.2339 -1.1003  0.2930
16164TIP3   OH269982   4.152   1.705   6.364  0.2665 -0.5443 -0.1191
16164TIP3    H169983   4.107   1.714   6.448  1.4662 -2.1747  0.7103
16164TIP3    H269984   4.093   1.651   6.311  0.3213 -0.9902  0.2753
16165TIP3   OH269985   2.780   0.011  15.585 -0.0192 -0.0178 -0.5265
16165TIP3    H169986   2.757  -0.062  15.527 -0.2802 -0.8703  0.6366
16165TIP3    H269987   2.713   0.009  15.654  1.8677 -0.7329  1.3318
16166TIP3   OH269988   2.030   5.747   1.131  0.0717 -0.4766 -0.5514
16166TIP3    H169989   2.051   5.654   1.140  0.9086 -0.2514 -0.2055
16166TIP3    H269990   2.079   5.790   1.201 -0.8519  0.1471 -0.2734
16167TIP3   OH269991   6.220   3.432  14.209  0.5688 -0.0074  1.0489
16167TIP3    H169992   6.292   3.370  14.196  0.6342  0.1026  0.8939
16167TIP3    H269993   6.142   3.377  14.213  0.2769  0.1041 -1.9181
16168TIP3   OH269994   2.268   4.108   4.154  0.1059 -0.1928 -0.3596
16168TIP3    H169995   2.202   4.176   4.169  0.6695  0.2370  0.2096
16168TIP3    H269996   2.315   4.102   4.237 -0.9771 -2.4337  0.1345
16169TIP3   OH269997   4.820   2.629  16.834 -0.1618 -0.4711 -0.1967
16169TIP3    H169998   4.903   2.667  16.806  0.6013 -1.4584  0.7013
16169TIP3    H269999   4.756   2.663  16.771  0.6016  1.7232  0.1922
16170TIP3   OH270000   4.829   1.675   3.598 -0.1589 -0.4441  0.0092
16170TIP3    H170001   4.814   1.582   3.616  1.7049 -0.8267 -0.3227
16170TIP3    H270002   4.749   1.719   3.628  0.2283 -1.7838  3.1285
16171TIP3   OH270003   2.467   4.116  13.499 -0.0209 -0.3476  0.2683
16171TIP3    H170004   2.398   4.146  13.440 -0.2723  0.7125  1.0695
16171TIP3    H270005   2.501   4.196  13.539  0.0277 -1.0549  1.6819
16172TIP3   OH270006   1.364   4.760  13.412  0.1918 -0.2093 -0.7432
16172TIP3    H170007   1.345   4.666  13.412  1.0037 -0.3807 -1.7412
16172TIP3    H270008   1.413   4.775  13.492  0.0583 -0.6349 -0.5812
16173TIP3   OH270009   3.052   1.628   3.553  0.1127 -0.2770 -0.2884
16173TIP3    H170010   3.038   1.599   3.644  1.1143 -0.9887 -0.3552
16173TIP3    H270011   3.062   1.547   3.503  0.6366  0.1378 -0.8597
16174TIP3   OH270012   0.447   5.462  12.600  0.7371  0.3591 -0.1650
16174TIP3    H170013   0.517   5.404  12.571  0.3847 -0.6942  1.0311
16174TIP3    H270014   0.466   5.546  12.557  2.4424 -0.0443 -0.2508
16175TIP3   OH270015   5.526   0.329  14.409 -0.2701  0.3978 -0.1044
16175TIP3    H170016   5.505   0.412  14.454 -0.3204  0.4226 -0.1747
16175TIP3    H270017   5.443   0.302  14.369 -0.9790 -1.1089  2.2214
16176TIP3   OH270018   0.597   3.315   5.434  0.4615 -0.0726  0.2834
16176TIP3    H170019   0.685   3.294   5.401 -0.0289 -1.5592 -0.1280
16176TIP3    H270020   0.612   3.384   5.499  2.2465 -2.1720  2.1901
16177TIP3   OH270021   0.444   2.650   2.154  0.1424  0.4472  0.3818
16177TIP3    H170022   0.453   2.612   2.241 -0.2533  1.8481  1.0356
16177TIP3    H270023   0.415   2.576   2.099 -0.1851 -0.2968  1.5376
16178TIP3   OH270024   2.901   1.591  11.797 -0.1017 -0.0206 -0.2591
16178TIP3    H170025   2.942   1.521  11.746 -2.1040 -0.5767 -1.1492
16178TIP3    H270026   2.904   1.668  11.739 -0.2661 -0.0461 -0.3002
16179TIP3   OH270027   4.408   1.300  14.617  0.2352  0.3814  0.4386
16179TIP3    H170028   4.424   1.394  14.624  1.7898  0.1598  0.0039
16179TIP3    H270029   4.340   1.293  14.551  0.5016  1.1737  0.0655
16180TIP3   OH270030   5.824   6.612  11.960  0.8976 -0.2733  0.1634
16180TIP3    H170031   5.751   6.551  11.974  1.8902 -1.9434 -1.5600
16180TIP3    H270032   5.789   6.676  11.897  0.8778 -1.0521 -0.6400
16181TIP3   OH270033   0.807   4.593   6.495  0.3490  0.5976 -0.5418
16181TIP3    H170034   0.851   4.509   6.508 -1.2876 -0.0804  0.8069
16181TIP3    H270035   0.872   4.659   6.516  1.0483 -0.3715  0.3451
16182TIP3   OH270036   6.200   2.463   4.050  0.6769 -0.1455  0.1861
16182TIP3    H170037   6.130   2.400   4.064 -0.2101  0.6956 -0.3606
16182TIP3    H270038   6.257   2.422   3.985  1.4897 -1.4509  1.7035
16183TIP3   OH270039   1.361   2.350  12.917  0.4602  0.2832  0.1097
16183TIP3    H170040   1.283   2.402  12.898  1.0817  1.1406 -0.1301
16183TIP3    H270041   1.364   2.344  13.013 -0.5848 -0.8210  0.0845
16184TIP3   OH270042   4.713   2.060  15.032  0.0319 -0.0931  0.4034
16184TIP3    H170043   4.764   1.980  15.048 -2.2701 -1.1334  2.8683
16184TIP3    H270044   4.730   2.080  14.940  1.7127 -2.6583  0.0730
16185TIP3   OH270045   2.864   0.918   4.205 -0.4909  0.4035 -0.0961
16185TIP3    H170046   2.933   0.859   4.235  0.1370  1.3194  0.2966
16185TIP3    H270047   2.798   0.861   4.166  0.6858 -0.4571 -0.8652
16186TIP3   OH270048   3.127   4.832   2.034  0.7255 -0.7570  0.0509
16186TIP3    H170049   3.195   4.843   1.967 -0.8022  0.2000 -1.4007
16186TIP3    H270050   3.129   4.738   2.055 -1.0620 -1.7719 -3.8994
16187TIP3   OH270051   5.575   3.958   4.002  0.1179  0.2798  0.2932
16187TIP3    H170052   5.530   3.885   4.044 -1.4170  1.5689  0.9585
16187TIP3    H270053   5.583   4.024   4.070  1.5378  0.7302 -0.2862
16188TIP3   OH270054   4.867   4.351   3.714  0.2234 -0.0900  0.3136
16188TIP3    H170055   4.822   4.266   3.721 -0.9488  0.5234  0.3220
16188TIP3    H270056   4.861   4.388   3.802  0.9015 -0.0826  0.3555
16189TIP3   OH270057   4.521   0.430  11.359 -0.3178 -0.0478  0.5551
16189TIP3    H170058   4.581   0.500  11.334 -0.5409 -0.2386 -0.5767
16189TIP3    H270059   4.493   0.392  11.275 -0.1331 -1.5460  1.1623
16190TIP3   OH270060   5.338   0.581  12.545  0.3952  0.1023 -0.3618
16190TIP3    H170061   5.245   0.578  12.523  0.0807  0.5619  0.8513
16190TIP3    H270062   5.361   0.491  12.566 -0.4513  0.3985  1.9552
16191TIP3   OH270063   1.639   1.877   0.996 -0.5492 -0.1553  0.0895
16191TIP3    H170064   1.646   1.937   1.070 -1.4043 -1.2787  1.0974
16191TIP3    H270065   1.552   1.893   0.960 -0.4286 -0.1405 -0.1935
16192TIP3   OH270066   2.934   4.992   5.047 -0.2970  0.3577 -0.4847
16192TIP3    H170067   2.930   5.037   5.131 -3.3725  0.4967 -0.6423
16192TIP3    H270068   2.899   4.905   5.065 -0.7563  0.3138 -1.5388
16193TIP3   OH270069   3.355   4.690   3.805  0.1612  0.1598 -0.1079
16193TIP3    H170070   3.435   4.644   3.779  0.3152  0.3718 -0.0146
16193TIP3    H270071   3.358   4.772   3.755  1.3672  1.3895  1.8968
16194TIP3   OH270072   1.576   6.356  15.681  0.4740  0.2552  0.4933
16194TIP3    H170073   1.568   6.345  15.587 -0.2710  1.0304  0.4642
16194TIP3    H270074   1.654   6.306  15.705 -0.0449 -0.9941 -0.3525
16195TIP3   OH270075   0.565   4.265  11.426 -0.1214  0.3435  0.5094
16195TIP3    H170076   0.617   4.195  11.467  0.0469  0.9551  1.3492
16195TIP3    H270077   0.596   4.267  11.336  1.0881  0.4663  0.9095
16196TIP3   OH270078   0.353   6.378   0.196 -0.4394 -0.1802 -0.0752
16196TIP3    H170079   0.438   6.401   0.158 -1.1760  1.3380 -0.8395
16196TIP3    H270080   0.320   6.460   0.232 -1.0913 -1.0007  1.2078
16197TIP3   OH270081   0.854   2.339  12.337  0.9843  0.1639  0.8183
16197TIP3    H170082   0.821   2.274  12.275  0.6230  0.8857  0.2392
16197TIP3    H270083   0.835   2.302  12.423  0.3269 -0.2655  0.4943
16198TIP3   OH270084   1.225   3.474   0.193 -0.8304  0.3570  0.2308
16198TIP3    H170085   1.226   3.545   0.257  0.2525  1.4786 -0.9859
16198TIP3    H270086   1.253   3.516   0.111 -0.5979 -1.3824 -0.5955
16199TIP3   OH270087   4.905   1.528  14.190  0.4421 -0.1760 -0.4250
16199TIP3    H170088   4.960   1.456  14.159 -1.2155 -2.2862  1.4072
16199TIP3    H270089   4.845   1.545  14.118 -0.3613 -1.8980 -0.1785
16200TIP3   OH270090   2.770   6.688  11.714  0.3864 -0.5442  0.0159
16200TIP3    H170091   2.682   6.713  11.687  0.5453  1.2163  1.0930
16200TIP3    H270092   2.763   6.594  11.733 -1.1096 -0.5398 -0.4615
16201TIP3   OH270093   1.939   2.943   5.675 -0.2238  0.0003  0.4134
16201TIP3    H170094   2.026   2.984   5.666  1.1535 -3.0633 -1.0160
16201TIP3    H270095   1.927   2.935   5.770  0.4428  1.6491  0.6645
16202TIP3   OH270096   0.066   1.493   4.838 -0.1471 -0.5197 -0.3095
16202TIP3    H170097   0.060   1.588   4.838  0.3568 -0.4726 -2.1366
16202TIP3    H270098   0.008   1.464   4.768  0.5709 -1.4780 -0.5358
16203TIP3   OH270099   6.692   4.406   3.248 -0.3384  0.0187 -0.3015
16203TIP3    H170100   6.688   4.491   3.204 -0.0015  0.8912  1.2918
16203TIP3    H270101   6.650   4.421   3.333 -0.5311 -1.4929 -0.1063
16204TIP3   OH270102   1.917   0.438  15.264 -0.1536 -0.3252  0.0316
16204TIP3    H170103   2.008   0.460  15.286 -0.8421  0.7986  1.8412
16204TIP3    H270104   1.921   0.348  15.233  1.5386 -0.3600  0.3140
16205TIP3   OH270105   6.755   3.898   4.326 -0.0144 -0.0363  0.4226
16205TIP3    H170106   6.850   3.908   4.330  0.0574 -0.7888  0.7314
16205TIP3    H270107   6.733   3.847   4.404 -0.5391 -0.8152 -0.2246
16206TIP3   OH270108   1.660   5.838  13.656  0.6670 -0.2381 -0.0797
16206TIP3    H170109   1.751   5.851  13.632  1.4427 -1.5573  2.0254
16206TIP3    H270110   1.637   5.752  13.620  0.4776 -0.2490  0.0641
16207TIP3   OH270111   6.117   6.026   0.482  0.2336  0.1753 -0.2876
16207TIP3    H170112   6.038   6.066   0.444  0.2493 -0.2985 -0.8263
16207TIP3    H270113   6.084   5.970   0.552  0.0205 -0.5435 -0.9453
16208TIP3   OH270114   4.283   5.215  15.765 -0.6893 -0.3131  0.3408
16208TIP3    H170115   4.373   5.201  15.793  0.6904  2.3625 -2.4733
16208TIP3    H270116   4.255   5.295  15.811 -0.8472  0.0985 -0.4564
16209TIP3   OH270117   0.752   2.642  16.809 -0.2567  0.0724 -0.1531
16209TIP3    H170118   0.738   2.665  16.900 -0.3499 -0.9767  0.0990
16209TIP3    H270119   0.847   2.627  16.802 -0.2166  0.3690 -0.2874
16210TIP3   OH270120   1.381   5.159   2.444 -0.3077 -0.2676  0.2752
16210TIP3    H170121   1.446   5.223   2.475 -0.9117  0.2271  0.5203
16210TIP3    H270122   1.362   5.106   2.521  0.4518 -0.9783 -0.0120
16211TIP3   OH270123   3.082   0.007   4.737 -0.8404  0.8048  0.1206
16211TIP3    H170124   3.140  -0.055   4.693 -1.1171  1.9069 -1.8792
16211TIP3    H270125   2.995  -0.032   4.732 -1.0960  1.5444 -1.5831
16212TIP3   OH270126   4.718   5.620  12.161 -0.0646 -1.1479  0.4404
16212TIP3    H170127   4.771   5.541  12.170  0.9673 -0.2497  2.7924
16212TIP3    H270128   4.632   5.596  12.195  0.2412 -1.2697  1.1335
16213TIP3   OH270129   2.019   0.355  13.926  0.3943 -0.0772 -0.0624
16213TIP3    H170130   2.083   0.287  13.904 -1.1517 -1.5510 -0.1182
16213TIP3    H270131   1.956   0.311  13.984 -1.9839  0.5867 -2.0593
16214TIP3   OH270132   6.318   4.359   6.146 -0.6195 -0.0973 -0.0138
16214TIP3    H170133   6.301   4.337   6.055 -0.4688 -0.9933  0.1723
16214TIP3    H270134   6.412   4.347   6.157 -0.5858  0.3296  0.1739
16215TIP3   OH270135   0.600   2.918   1.811  0.1699 -0.0919  0.2726
16215TIP3    H170136   0.519   2.892   1.856 -0.4648  0.2236 -0.6517
16215TIP3    H270137   0.667   2.915   1.879 -0.6338 -0.2854  1.0822
16216TIP3   OH270138   6.750   0.630  15.449  0.1539  0.4004  0.4207
16216TIP3    H170139   6.838   0.639  15.485 -0.0648  0.7745  0.8560
16216TIP3    H270140   6.718   0.547  15.484  0.1520  0.4933  0.6359
16217TIP3   OH270141   6.614   3.754   3.592  0.9593  0.1167  0.5330
16217TIP3    H170142   6.630   3.674   3.641 -0.4047  1.5141  3.4272
16217TIP3    H270143   6.694   3.806   3.604 -0.5284  1.7593  4.0920
16218TIP3   OH270144   6.253   0.762  15.652 -0.5916 -0.2448 -0.2541
16218TIP3    H170145   6.264   0.735  15.743 -0.8091  0.1022 -0.1247
16218TIP3    H270146   6.174   0.716  15.622 -0.6855 -0.1272 -0.1820
16219TIP3   OH270147   3.072   0.618   3.703  0.5215 -0.0244 -0.2351
16219TIP3    H170148   3.056   0.640   3.611 -1.1277 -0.7383 -0.1363
16219TIP3    H270149   3.071   0.522   3.705  1.4838 -0.0289  0.3816
16220TIP3   OH270150   1.019   2.067  13.749  0.3004  0.1357 -0.0142
16220TIP3    H170151   1.016   2.097  13.840 -0.3164  1.6558 -0.5140
16220TIP3    H270152   0.929   2.074  13.718  0.5839  0.0384 -0.8749
16221TIP3   OH270153   5.810   1.376   2.972 -0.0400  0.4323  0.1448
16221TIP3    H170154   5.757   1.454   2.989 -0.0337  0.0093  2.3345
16221TIP3    H270155   5.756   1.303   3.003  1.2654 -0.1142  1.1804
16222TIP3   OH270156   0.276   5.212   5.920  0.2027  0.3966  0.2204
16222TIP3    H170157   0.282   5.277   5.990  1.8903 -0.5111  0.9199
16222TIP3    H270158   0.361   5.168   5.919 -0.8770 -1.7567 -0.3036
16223TIP3   OH270159   2.011   2.168   0.340 -0.6606 -0.0577 -0.2630
16223TIP3    H170160   1.935   2.197   0.392 -1.3760  0.8554 -1.7830
16223TIP3    H270161   1.996   2.206   0.254  1.2710 -0.3341 -0.7315
16224TIP3   OH270162   0.763   3.896   6.722  0.2218 -0.5068 -0.8102
16224TIP3    H170163   0.690   3.956   6.702  0.1312 -0.7267 -1.1325
16224TIP3    H270164   0.749   3.821   6.665 -0.2407 -1.2951  0.3266
16225TIP3   OH270165   5.226   6.277  13.254  0.2887  0.7046 -0.6658
16225TIP3    H170166   5.175   6.344  13.209 -1.6098 -0.4350 -0.2406
16225TIP3    H270167   5.276   6.234  13.185  0.6368  1.7605 -1.0885
16226TIP3   OH270168   3.465   0.525   0.330 -0.3074 -0.0003  0.6044
16226TIP3    H170169   3.404   0.594   0.305  1.9609  1.4920 -0.9975
16226TIP3    H270170   3.494   0.488   0.247  0.6804 -0.9615  1.3683
16227TIP3   OH270171   2.082   0.134   1.019  0.0472  0.1936 -0.5251
16227TIP3    H170172   2.004   0.083   1.042 -0.2771  0.9883  0.1810
16227TIP3    H270173   2.064   0.221   1.054  1.8393  0.0336  0.8371
16228TIP3   OH270174   6.314   5.766   0.038 -0.3921  0.5390 -0.6759
16228TIP3    H170175   6.284   5.676   0.026 -1.8863  1.0782 -1.0071
16228TIP3    H270176   6.278   5.793   0.123 -1.1325  1.2883 -1.2155
16229TIP3   OH270177   0.653   0.475  15.129 -0.1700  0.1203 -0.5159
16229TIP3    H170178   0.652   0.492  15.035  1.9136 -1.4686 -0.8617
16229TIP3    H270179   0.698   0.391  15.138  1.8827  1.4299  2.0869
16230TIP3   OH270180   3.597   1.863   3.578  0.1021 -0.1876 -0.2444
16230TIP3    H170181   3.656   1.890   3.508 -0.8313  0.6831 -0.7031
16230TIP3    H270182   3.517   1.836   3.533 -0.7072  0.9213  0.5099
16231TIP3   OH270183   5.444   6.299   5.607 -0.5360 -0.2841  0.4405
16231TIP3    H170184   5.534   6.318   5.578 -0.0043 -1.8275  1.0181
16231TIP3    H270185   5.449   6.302   5.702 -1.4590  1.1774  0.4425
16232TIP3   OH270186   1.158   6.571  12.239 -0.0023 -0.3848 -0.0024
16232TIP3    H170187   1.173   6.508  12.309  0.2468 -1.4903 -1.0284
16232TIP3    H270188   1.151   6.518  12.160  1.8244  0.9893 -1.1346
16233TIP3   OH270189   2.392   0.607   2.939 -0.6431 -0.4588  0.2448
16233TIP3    H170190   2.323   0.643   2.884 -2.4221 -0.8251  2.1589
16233TIP3    H270191   2.451   0.563   2.878 -1.6539  0.5625 -1.5109
16234TIP3   OH270192   2.248   0.427   1.650 -0.1101 -0.3151  0.0722
16234TIP3    H170193   2.192   0.478   1.591  0.7326 -0.7880 -1.1568
16234TIP3    H270194   2.221   0.337   1.637 -0.8538 -0.3069  1.4429
16235TIP3   OH270195   1.059   0.322   4.360  0.3566 -0.4757 -0.2348
16235TIP3    H170196   0.992   0.281   4.414  0.5191  0.2998  0.5659
16235TIP3    H270197   1.010   0.372   4.295  0.1623 -0.7731 -0.3194
16236TIP3   OH270198   5.820   6.183  11.604  0.5380  0.7908  0.5898
16236TIP3    H170199   5.841   6.168  11.512 -0.1642  0.2921  0.5133
16236TIP3    H270200   5.797   6.097  11.638  3.1432  0.5377  1.8484
16237TIP3   OH270201   0.471   4.421   5.967  0.3745  0.2593  0.1414
16237TIP3    H170202   0.479   4.327   5.986  1.1596  0.3734  0.3893
16237TIP3    H270203   0.432   4.424   5.879 -1.2081 -0.2845  0.8021
16238TIP3   OH270204   2.714   0.168   6.294  0.5364  0.2991  0.5906
16238TIP3    H170205   2.700   0.208   6.380  0.0141  0.1314  0.5860
16238TIP3    H270206   2.656   0.092   6.293  0.6531  0.2129  0.1452
16239TIP3   OH270207   5.585   1.861  11.146  0.1781  0.1536 -0.2086
16239TIP3    H170208   5.513   1.924  11.137 -1.3780 -1.6409 -0.7925
16239TIP3    H270209   5.572   1.823  11.234  0.6866  0.1583 -0.1336
16240TIP3   OH270210   6.178   5.905  16.132  0.7426 -0.2364 -0.0310
16240TIP3    H170211   6.130   5.971  16.182 -0.5875 -0.1110 -1.4195
16240TIP3    H270212   6.243   5.870  16.193 -0.1336  0.6625  1.4365
16241TIP3   OH270213   6.260   5.211  13.208 -0.4885 -0.0771  0.1193
16241TIP3    H170214   6.238   5.163  13.287 -0.1219 -0.6468 -0.1182
16241TIP3    H270215   6.203   5.174  13.141  1.6815 -2.1580 -0.6932
16242TIP3   OH270216   0.578   2.267   2.731 -0.1981  0.2171  0.0994
16242TIP3    H170217   0.663   2.279   2.774  0.8090  0.0094 -1.7391
16242TIP3    H270218   0.560   2.353   2.691 -0.1385 -0.1567 -0.7360
16243TIP3   OH270219   0.460   3.410   4.254  0.1198 -0.2243 -0.5332
16243TIP3    H170220   0.406   3.428   4.178 -0.9612 -1.7633 -0.1491
16243TIP3    H270221   0.457   3.315   4.264  1.2738 -0.1485  0.6768
16244TIP3   OH270222   3.074   0.195   3.341 -0.0512 -0.3475  0.0855
16244TIP3    H170223   2.990   0.164   3.375 -0.1314 -1.3499 -1.0165
16244TIP3    H270224   3.139   0.160   3.402 -0.1937 -2.1262 -0.7643
16245TIP3   OH270225   6.495   0.548  12.080  0.2882 -0.0272  0.6694
16245TIP3    H170226   6.519   0.550  12.173 -0.9386 -1.4997  1.0344
16245TIP3    H270227   6.517   0.460  12.051  0.1863  0.2682 -0.3029
16246TIP3   OH270228   6.008   4.785   0.460 -0.4345  0.6321  0.2048
16246TIP3    H170229   5.978   4.707   0.506 -2.2051  1.2345  0.1135
16246TIP3    H270230   6.093   4.760   0.423  0.3298 -0.3222  2.5351
16247TIP3   OH270231   6.655   0.174  11.461 -0.0478 -0.6007 -0.0675
16247TIP3    H170232   6.675   0.196  11.370 -0.6220  3.2410  0.6717
16247TIP3    H270233   6.560   0.164  11.463  0.2033 -3.4462 -0.3989
16248TIP3   OH270234   4.229   4.180  15.052  0.0259 -0.2701 -0.0567
16248TIP3    H170235   4.256   4.090  15.066  1.8465  0.4289  1.0101
16248TIP3    H270236   4.177   4.177  14.971 -0.1914 -2.2999  0.1412
16249TIP3   OH270237   0.435   5.782   3.820  0.3559  0.0805  0.3641
16249TIP3    H170238   0.356   5.807   3.869 -0.6275 -0.3136 -0.9761
16249TIP3    H270239   0.434   5.686   3.821 -0.7111  0.0322 -1.9942
16250TIP3   OH270240   3.607   4.869  17.286 -0.1810  0.0750  0.4049
16250TIP3    H170241   3.552   4.792  17.279  0.5462 -0.4457  0.3163
16250TIP3    H270242   3.639   4.869  17.376  0.4849 -0.1900  0.1677
16251TIP3   OH270243   5.966   0.561   1.462  0.2443  0.0401 -0.0568
16251TIP3    H170244   5.938   0.652   1.463 -0.0647 -0.0559  0.7541
16251TIP3    H270245   5.887   0.512   1.484  0.6317 -0.3591  0.4524
16252TIP3   OH270246   6.273   6.367   1.484  0.3357 -0.2018  0.0324
16252TIP3    H170247   6.294   6.450   1.442  0.1936  0.1495  0.6439
16252TIP3    H270248   6.190   6.339   1.445 -0.6635  0.9594  1.2600
16253TIP3   OH270249   0.541   6.653   4.161  0.6619 -0.1381  0.1668
16253TIP3    H170250   0.540   6.661   4.256 -0.0068 -2.0601  0.3322
16253TIP3    H270251   0.618   6.600   4.142  0.6560  0.0349 -0.3433
16254TIP3   OH270252   5.718   4.474   0.678  0.0370  0.1174  0.4704
16254TIP3    H170253   5.763   4.554   0.704  0.3449 -0.0861  0.5735
16254TIP3    H270254   5.787   4.407   0.676  0.2140  0.3452 -1.8609
16255TIP3   OH270255   5.139   2.337   4.831 -0.1081  0.1916 -0.3541
16255TIP3    H170256   5.142   2.344   4.736 -0.8837 -0.1804 -0.4094
16255TIP3    H270257   5.186   2.415   4.862 -0.8643  0.9231 -1.0267
16256TIP3   OH270258   1.694   2.187  14.937  0.2126  0.2669 -0.0084
16256TIP3    H170259   1.625   2.121  14.932  1.1002 -0.6498 -0.2739
16256TIP3    H270260   1.662   2.260  14.884 -0.8290  0.1089  0.3905
16257TIP3   OH270261   3.532   5.794   2.623 -0.8618 -0.4010  0.4272
16257TIP3    H170262   3.455   5.738   2.629 -1.2726  0.3446  2.3967
16257TIP3    H270263   3.588   5.751   2.558 -1.7663 -2.3343  0.8943
16258TIP3   OH270264   0.687   0.653   1.293  0.3865  0.0264 -0.6956
16258TIP3    H170265   0.754   0.598   1.333  1.1761  1.6168  0.2198
16258TIP3    H270266   0.633   0.592   1.243  1.0334 -1.6224  0.5583
16259TIP3   OH270267   0.869   2.949   1.634 -0.1118  0.0064 -0.3915
16259TIP3    H170268   0.956   2.978   1.660  0.4520 -1.1708 -0.9422
16259TIP3    H270269   0.820   2.947   1.716  0.7856 -0.6811  0.1407
16260TIP3   OH270270   3.037   0.044   5.303 -0.4936  0.2442 -0.2167
16260TIP3    H170271   3.047  -0.051   5.294  1.1118  0.1767  1.7885
16260TIP3    H270272   2.942   0.058   5.307 -0.7637 -1.1681 -1.4387
16261TIP3   OH270273   1.750   2.683   0.554 -0.5813  0.3892 -0.3909
16261TIP3    H170274   1.811   2.667   0.483  0.3557 -0.7098  0.6357
16261TIP3    H270275   1.768   2.773   0.582  2.3598 -0.7356  1.5561
16262TIP3   OH270276   3.621   6.715  15.753 -0.0348 -0.1800  0.1628
16262TIP3    H170277   3.676   6.791  15.771  0.1161 -0.4239  0.7221
16262TIP3    H270278   3.591   6.728  15.662  0.8881 -0.0205 -0.1205
16263TIP3   OH270279   5.830   3.506   0.911  0.1506  0.0038  0.3643
16263TIP3    H170280   5.827   3.485   1.004 -0.1862 -0.0376  0.3428
16263TIP3    H270281   5.822   3.601   0.907  1.5007  0.1388  0.4516
16264TIP3   OH270282   4.235   6.531  16.722 -0.0103 -0.4248  0.2937
16264TIP3    H170283   4.167   6.592  16.750  0.5886 -0.4512  1.9013
16264TIP3    H270284   4.189   6.449  16.706 -0.4507 -0.2763  0.7778
16265TIP3   OH270285   5.619   4.717  17.097  0.9095 -0.2747 -0.1252
16265TIP3    H170286   5.651   4.788  17.041 -1.0242  1.3996  0.8245
16265TIP3    H270287   5.644   4.742  17.185  0.6247 -1.0040  0.1713
16266TIP3   OH270288   5.687   1.807  13.266  0.2216 -0.4394 -0.2691
16266TIP3    H170289   5.738   1.731  13.294  0.8001  0.8391  2.3444
16266TIP3    H270290   5.738   1.882  13.298 -2.8357  0.9017  1.6177
16267TIP3   OH270291   4.172   0.376   5.056 -0.6164 -0.0196 -0.1473
16267TIP3    H170292   4.239   0.377   4.988 -0.6004 -0.4922 -0.1380
16267TIP3    H270293   4.198   0.307   5.116  0.4494  1.7194  1.4493
16268TIP3   OH270294   3.127   3.517  13.447  0.2108 -0.0156 -0.3155
16268TIP3    H170295   3.058   3.504  13.512  1.8753  2.8642  2.1665
16268TIP3    H270296   3.118   3.609  13.420  4.1476  0.9806  1.4467
16269TIP3   OH270297   2.139   5.650   4.212  0.0325 -1.1683 -0.6280
16269TIP3    H170298   2.130   5.567   4.259  1.8277 -0.9190  0.2163
16269TIP3    H270299   2.205   5.633   4.145  1.5845 -0.0682  0.5471
16270TIP3   OH270300   5.465   5.199   2.834 -0.1072 -0.0083  0.5682
16270TIP3    H170301   5.394   5.163   2.887  0.5174 -0.9841  0.7372
16270TIP3    H270302   5.544   5.158   2.867  0.8668  2.9536  2.0341
16271TIP3   OH270303   4.881   5.191   4.980 -0.5429 -0.2473 -0.6258
16271TIP3    H170304   4.912   5.241   4.905 -0.0956 -2.3847 -1.8967
16271TIP3    H270305   4.961   5.167   5.027 -0.5422 -2.0703 -1.5285
16272TIP3   OH270306   3.403   4.254  15.468  0.0881  0.0801 -0.2274
16272TIP3    H170307   3.339   4.316  15.434 -0.0365  0.2818  0.3694
16272TIP3    H270308   3.404   4.183  15.403 -0.3906  0.3010 -0.4806
16273TIP3   OH270309   1.410   6.629  13.889 -0.3148  0.1593  0.4946
16273TIP3    H170310   1.425   6.539  13.920 -0.6950 -0.1017 -0.0550
16273TIP3    H270311   1.474   6.682  13.936  0.1440 -0.4564  0.5706
16274TIP3   OH270312   6.703   0.408   4.231 -0.4434  0.5473 -0.1034
16274TIP3    H170313   6.789   0.399   4.273  0.5081  0.8268 -1.9465
16274TIP3    H270314   6.708   0.354   4.152 -2.7239 -1.1601  0.8621
16275TIP3   OH270315   1.444   2.471  15.908  0.1101 -0.2705 -0.5282
16275TIP3    H170316   1.426   2.381  15.934 -0.9954 -0.2109 -1.0658
16275TIP3    H270317   1.535   2.485  15.933  0.4557 -1.7121 -0.9247
16276TIP3   OH270318   0.642   3.405  12.481  0.1709  0.3674  0.2417
16276TIP3    H170319   0.597   3.475  12.435 -0.1420 -0.1420 -0.2337
16276TIP3    H270320   0.589   3.327  12.465  0.5160  0.0179  0.7618
16277TIP3   OH270321   0.088   3.679   2.439  0.2019  0.8272 -0.4755
16277TIP3    H170322   0.063   3.624   2.513  1.4021 -1.4023 -1.6798
16277TIP3    H270323   0.008   3.690   2.389 -0.6262  2.3761  1.1330
16278TIP3   OH270324   5.695   2.475  13.681 -0.4552  0.3186  0.7357
16278TIP3    H170325   5.687   2.559  13.726 -1.5692  1.8066 -2.1593
16278TIP3    H270326   5.628   2.420  13.722 -0.6278  1.2570  1.7483
16279TIP3   OH270327   1.464   0.065  16.093 -0.0643 -0.1829 -0.4846
16279TIP3    H170328   1.508   0.104  16.017  1.1189  1.8024  1.1513
16279TIP3    H270329   1.375   0.100  16.090 -0.3964 -1.1203 -1.6551
16280TIP3   OH270330   2.386   4.503   6.434  0.3621 -0.3547  0.2363
16280TIP3    H170331   2.359   4.426   6.485  1.9633 -1.1926 -0.1492
16280TIP3    H270332   2.469   4.477   6.393 -0.1739  0.8244 -1.6398
16281TIP3   OH270333   6.321   2.703   5.412  0.3148 -0.4691  0.1843
16281TIP3    H170334   6.307   2.789   5.452  0.2113 -0.5115  0.2405
16281TIP3    H270335   6.398   2.668   5.457  0.1069 -0.5815  0.4603
16282TIP3   OH270336   6.153   0.324   3.054  0.2322 -0.0423  0.0908
16282TIP3    H170337   6.161   0.279   2.970  0.9985 -0.9744  0.6526
16282TIP3    H270338   6.069   0.295   3.088  0.4545 -0.5969  0.1791
16283TIP3   OH270339   1.066   6.748   5.496  0.5058 -0.4449 -0.1356
16283TIP3    H170340   1.091   6.738   5.404  0.8412 -0.6300 -0.0241
16283TIP3    H270341   1.032   6.837   5.502 -1.8447 -1.2385 -0.9795
16284TIP3   OH270342   5.583   2.059   5.620  0.2861 -0.3298  0.2223
16284TIP3    H170343   5.522   2.072   5.693  0.7450  0.2944  0.5017
16284TIP3    H270344   5.546   2.113   5.550 -0.0088 -0.7175  0.0777
16285TIP3   OH270345   1.910   3.446   2.529 -0.1781  0.1233  0.1285
16285TIP3    H170346   1.910   3.536   2.561  3.1436 -0.0867  0.8996
16285TIP3    H270347   1.862   3.397   2.596  2.5795  0.4989  2.5004
16286TIP3   OH270348   1.632   3.847   1.461 -0.3584 -0.1670  0.9937
16286TIP3    H170349   1.564   3.858   1.527  0.2684 -1.4868  1.8688
16286TIP3    H270350   1.596   3.890   1.383 -2.5983 -1.6675  1.1715
16287TIP3   OH270351   5.138   6.815  14.563  0.2041 -0.2699 -0.2815
16287TIP3    H170352   5.121   6.778  14.650 -1.1114 -0.5316 -0.6258
16287TIP3    H270353   5.051   6.817  14.522  0.7429  0.3496 -1.3870
16288TIP3   OH270354   2.207   0.296  16.881 -0.2106  0.2619 -0.2752
16288TIP3    H170355   2.168   0.379  16.856 -0.7995  0.4797  1.3719
16288TIP3    H270356   2.234   0.307  16.972 -2.0583 -1.9807  0.5940
16289TIP3   OH270357   0.898   2.469   1.282 -0.2186  0.0364 -0.4928
16289TIP3    H170358   0.932   2.425   1.204 -0.2691 -0.6259 -0.1372
16289TIP3    H270359   0.920   2.562   1.268  1.1842 -0.2923 -0.5717
16290TIP3   OH270360   2.933   5.053   1.583 -0.0128 -0.4447 -0.1108
16290TIP3    H170361   2.981   4.971   1.589 -1.7899 -1.5784 -0.8527
16290TIP3    H270362   2.951   5.097   1.666  2.3024 -0.8086 -0.4005
16291TIP3   OH270363   0.985   2.935   4.560  0.3622 -0.0139  0.1631
16291TIP3    H170364   0.920   2.971   4.620  1.6059 -0.2126  1.6466
16291TIP3    H270365   0.939   2.865   4.513 -0.7268  0.4140  0.5862
16292TIP3   OH270366   5.119   6.404   4.242  0.4585 -0.0687 -0.3375
16292TIP3    H170367   5.036   6.406   4.195  1.3619  0.9201 -1.9171
16292TIP3    H270368   5.138   6.496   4.262  0.6282 -0.3788  1.0120
16293TIP3   OH270369   4.805   5.320   3.452  0.1420  1.0490 -0.0554
16293TIP3    H170370   4.758   5.334   3.370  0.5174  1.8616 -0.1385
16293TIP3    H270371   4.740   5.337   3.520 -0.5343 -0.9191 -0.1717
16294TIP3   OH270372   3.787   3.081  12.027  0.0874 -0.3051 -0.0406
16294TIP3    H170373   3.871   3.108  12.065 -0.2171 -0.2749  0.6151
16294TIP3    H270374   3.751   3.161  11.989 -1.1583  0.4070  2.5514
16295TIP3   OH270375   5.815   5.703  14.874  0.2267  0.0939  0.3287
16295TIP3    H170376   5.732   5.692  14.827  2.4958  0.0195 -3.9517
16295TIP3    H270377   5.857   5.777  14.831  1.7995  1.0958  3.4221
16296TIP3   OH270378   2.492   4.601  17.059  0.5058 -0.2058 -0.3103
16296TIP3    H170379   2.427   4.628  17.124 -0.2480 -2.0654 -0.2539
16296TIP3    H270380   2.576   4.626  17.098 -0.0572  0.4007  0.5363
16297TIP3   OH270381   4.024   4.814  12.571 -0.4763  0.3071  0.0315
16297TIP3    H170382   3.971   4.745  12.611 -1.3903  0.7663 -0.3783
16297TIP3    H270383   4.112   4.775  12.563 -1.2133 -1.1615 -1.1386
16298TIP3   OH270384   2.817   0.204  12.270  0.5527 -0.4273  0.0603
16298TIP3    H170385   2.811   0.284  12.323  0.3258  0.2420 -0.9718
16298TIP3    H270386   2.746   0.148  12.302 -0.7175  0.6990 -0.7344
16299TIP3   OH270387   2.901   5.002   3.232  0.3464  0.0156  0.1246
16299TIP3    H170388   2.865   5.088   3.255 -0.3727 -0.7313  1.9033
16299TIP3    H270389   2.984   4.998   3.281  1.3275  0.4483 -1.4617
16300TIP3   OH270390   2.140   3.154  11.367 -0.4286  0.5072 -1.0564
16300TIP3    H170391   2.157   3.210  11.292 -1.6153  0.2573 -1.5304
16300TIP3    H270392   2.158   3.209  11.443  1.2988  0.5973 -1.5133
16301TIP3   OH270393   3.713   1.608  16.390 -0.3253  0.4050  0.5213
16301TIP3    H170394   3.726   1.570  16.303 -1.0757  0.6948  0.2743
16301TIP3    H270395   3.663   1.688  16.373  0.4032  1.0003  1.1216
16302TIP3   OH270396   6.795   4.543   3.517 -0.4452  0.0827 -0.1819
16302TIP3    H170397   6.832   4.519   3.602  1.7793 -4.4805 -2.3142
16302TIP3    H270398   6.705   4.511   3.520 -0.4351  0.1113  0.4744
16303TIP3   OH270399   2.892   0.992   1.406 -0.6937  0.0384 -0.1031
16303TIP3    H170400   2.987   0.996   1.412 -0.6459  0.7942 -1.1894
16303TIP3    H270401   2.872   1.020   1.317 -1.8170 -2.1332 -0.5964
16304TIP3   OH270402   3.495   2.150  13.616  0.0775  0.4720  0.4194
16304TIP3    H170403   3.423   2.165  13.677  0.3753 -0.1056  0.9269
16304TIP3    H270404   3.498   2.054  13.607  1.6512  0.4076  1.4676
16305TIP3   OH270405   6.208   6.014  12.482  0.5877 -0.1894  0.4477
16305TIP3    H170406   6.296   6.050  12.487  0.2401  0.7607 -0.0978
16305TIP3    H270407   6.153   6.078  12.525  0.4371 -1.8246  2.7662
16306TIP3   OH270408   0.174   6.078   2.832 -0.3769  0.1472 -0.0577
16306TIP3    H170409   0.214   6.160   2.803 -1.5681  0.3293 -1.1845
16306TIP3    H270410   0.186   6.018   2.758  0.6403 -0.7611  0.8215
16307TIP3   OH270411   5.037   5.778   5.640 -0.3890 -0.3412  0.0163
16307TIP3    H170412   5.091   5.704   5.669 -1.8168 -1.4397 -0.0444
16307TIP3    H270413   5.041   5.776   5.545  1.1483  0.8766  0.0388
16308TIP3   OH270414   5.288   6.366  15.981 -0.0114  0.0742 -0.4094
16308TIP3    H170415   5.376   6.379  16.014 -0.6789 -1.2973  2.0567
16308TIP3    H270416   5.234   6.425  16.033 -0.8101 -0.6145 -0.4378
16309TIP3   OH270417   6.731   0.108  13.203 -0.2132  0.4877  0.2184
16309TIP3    H170418   6.726   0.192  13.157  0.7541  0.3982 -0.0487
16309TIP3    H270419   6.818   0.107  13.243 -1.0134  0.5378  2.0072
16310TIP3   OH270420   5.708   4.152  11.127 -0.2732  0.3035  0.7500
16310TIP3    H170421   5.699   4.058  11.145 -1.6459  0.8476  3.0599
16310TIP3    H270422   5.620   4.180  11.103  0.1713  0.9805 -0.1195
16311TIP3   OH270423   5.575   4.053   1.411  0.5224 -0.2676 -0.4619
16311TIP3    H170424   5.603   3.977   1.462 -0.1507  0.1002  0.4671
16311TIP3    H270425   5.556   4.017   1.324  0.9189 -1.0398 -0.2348
16312TIP3   OH270426   0.748   4.403  16.767  0.3676  0.4295 -0.0730
16312TIP3    H170427   0.691   4.479  16.782 -0.7304 -0.5628  0.9048
16312TIP3    H270428   0.693   4.327  16.789  2.0617 -0.5574  0.9051
16313TIP3   OH270429   2.008   5.067   3.764 -0.1653 -0.3847 -0.1454
16313TIP3    H170430   1.926   5.042   3.722 -0.7211  0.4313  0.4437
16313TIP3    H270431   2.023   5.158   3.735  0.0398 -0.2131  0.5053
16314TIP3   OH270432   5.115   2.713  15.226  0.2010  0.3611  0.5780
16314TIP3    H170433   5.160   2.676  15.302  0.0165 -1.2998 -0.0910
16314TIP3    H270434   5.179   2.771  15.186  1.1462 -0.5984  0.6562
16315TIP3   OH270435   5.890   3.875  15.763 -0.2761 -0.5723 -0.6417
16315TIP3    H170436   5.847   3.879  15.678 -0.5212  1.2435 -0.4576
16315TIP3    H270437   5.819   3.880  15.827  0.1396  3.1870 -0.3285
16316TIP3   OH270438   6.653   6.312  11.718 -0.1485  0.4257 -0.0452
16316TIP3    H170439   6.718   6.325  11.650 -1.0335 -1.0893 -1.2117
16316TIP3    H270440   6.569   6.311  11.672 -0.8026  0.0164  1.1283
16317TIP3   OH270441   2.595   6.640   6.092 -0.9422  0.1769 -0.1027
16317TIP3    H170442   2.592   6.688   6.009 -1.2351  1.3266  0.5553
16317TIP3    H270443   2.563   6.703   6.156 -2.1485 -1.1981  0.6607
16318TIP3   OH270444   6.299   2.997   4.639  0.2026  0.7218 -0.0719
16318TIP3    H170445   6.217   2.979   4.593 -0.8047 -1.0948  2.2886
16318TIP3    H270446   6.272   3.019   4.728  2.2756  0.1733  0.7197
16319TIP3   OH270447   1.180   6.548  15.135  0.3571  0.3209  0.6339
16319TIP3    H170448   1.182   6.458  15.104  0.0017  0.3950  0.3961
16319TIP3    H270449   1.269   6.581  15.119 -0.3080  0.9357 -1.9997
16320TIP3   OH270450   0.461   6.026  12.337  0.7486 -0.7787 -0.3992
16320TIP3    H170451   0.497   6.005  12.424  0.7764 -0.2766 -0.2853
16320TIP3    H270452   0.532   6.006  12.276  1.1904  0.0833 -0.1854
16321TIP3   OH270453   1.470   3.327   1.707  0.0318  0.6027  0.2137
16321TIP3    H170454   1.416   3.248   1.711  1.1487 -0.1234  1.8961
16321TIP3    H270455   1.560   3.295   1.714  0.4252  2.1197  3.1435
16322TIP3   OH270456   3.856   0.612  15.098 -0.0667 -0.1537 -0.8172
16322TIP3    H170457   3.911   0.673  15.147  0.1552  0.4795 -1.8647
16322TIP3    H270458   3.891   0.525  15.119  0.6032  0.1765 -0.5851
16323TIP3   OH270459   1.997   0.802   1.199  0.3226 -0.8824 -0.3499
16323TIP3    H170460   1.910   0.781   1.163 -0.0685  1.7798 -1.0418
16323TIP3    H270461   2.058   0.779   1.129  0.0191 -0.8766 -0.6158
16324TIP3   OH270462   1.347   3.315   3.502 -0.3914  0.6502  0.2691
16324TIP3    H170463   1.385   3.227   3.499  1.5523  1.4747 -0.0936
16324TIP3    H270464   1.315   3.324   3.592  0.1568 -0.1315  0.5457
16325TIP3   OH270465   0.735   0.140   4.951 -0.2611  0.3072 -0.1024
16325TIP3    H170466   0.734   0.206   4.882 -0.7685  1.4724  1.0073
16325TIP3    H270467   0.646   0.104   4.951 -0.3557  0.5366  0.1515
16326TIP3   OH270468   2.413   4.097  15.023 -0.0578 -0.1693 -0.4552
16326TIP3    H170469   2.449   4.101  14.934 -0.3610  0.5843 -0.5485
16326TIP3    H270470   2.474   4.040  15.071  0.0309 -0.6882 -1.1763
16327TIP3   OH270471   4.122   6.803  16.526  0.2561  0.0114  0.6276
16327TIP3    H170472   4.201   6.795  16.472  0.4454  0.6342  0.8131
16327TIP3    H270473   4.085   6.715  16.527 -0.1442  0.1418 -1.1290
16328TIP3   OH270474   3.139   4.624  15.585  0.5696  0.1829 -0.0266
16328TIP3    H170475   3.048   4.595  15.591  1.2280 -1.8322  0.5183
16328TIP3    H270476   3.181   4.587  15.663  2.0214  0.5377 -0.6306
16329TIP3   OH270477   3.641   2.473  11.094 -0.5855  0.7512  0.1186
16329TIP3    H170478   3.580   2.427  11.152  0.0983  0.7072  0.8117
16329TIP3    H270479   3.690   2.403  11.050 -0.9037  0.7893 -0.2985
16330TIP3   OH270480   3.964   1.419  14.994  0.3986  0.2076 -0.2684
16330TIP3    H170481   3.871   1.401  15.010  0.3289  0.4121 -0.4430
16330TIP3    H270482   3.964   1.500  14.944  0.6983  0.5280  0.2489
16331TIP3   OH270483   0.037   2.304   3.886  0.0328  0.0951 -0.1773
16331TIP3    H170484  -0.012   2.245   3.830 -1.2508  0.8627  0.0997
16331TIP3    H270485   0.108   2.337   3.831 -1.2087  0.8479 -1.3538
16332TIP3   OH270486   5.109   2.558   3.613 -0.0266 -0.5236 -0.1490
16332TIP3    H170487   5.082   2.496   3.680  1.2875  0.4840  1.3558
16332TIP3    H270488   5.204   2.547   3.607  0.0125  0.1854 -1.0360
16333TIP3   OH270489   4.763   5.440  16.599 -0.0205  0.1049  0.4212
16333TIP3    H170490   4.707   5.368  16.573 -0.2337  0.3599  0.1734
16333TIP3    H270491   4.825   5.402  16.662 -0.8158 -0.0500  1.1081
16334TIP3   OH270492   1.812   1.544  17.033 -0.0297 -0.1721  0.7624
16334TIP3    H170493   1.790   1.637  17.028  0.6183 -0.0696 -0.5089
16334TIP3    H270494   1.727   1.500  17.041 -0.4161  0.4683  0.2925
16335TIP3   OH270495   2.173   5.271  17.213  0.2751 -0.3769  0.1221
16335TIP3    H170496   2.097   5.217  17.232  0.2508 -1.1754 -2.1507
16335TIP3    H270497   2.141   5.337  17.151  1.4115 -0.6661 -0.7854
16336TIP3   OH270498   3.638   5.417   6.508  0.2334  0.2573  0.2578
16336TIP3    H170499   3.732   5.429   6.520  0.4414 -2.0385  1.1264
16336TIP3    H270500   3.618   5.335   6.552 -2.0244  0.2221 -0.7479
16337TIP3   OH270501   2.485   4.476   2.715  0.4410 -0.1214 -0.2559
16337TIP3    H170502   2.567   4.454   2.672  1.1139 -0.3470  1.1191
16337TIP3    H270503   2.448   4.392   2.741  0.2432  0.0315 -0.0358
16338TIP3   OH270504   4.165   3.321   2.518 -0.0163  0.3067  0.3586
16338TIP3    H170505   4.186   3.349   2.607  1.6533 -2.6198  0.9595
16338TIP3    H270506   4.228   3.367   2.463  1.4747 -0.7526  1.1290
16339TIP3   OH270507   2.921   3.965  13.724 -0.0845  0.2485 -0.3801
16339TIP3    H170508   2.999   3.911  13.725  0.6382  0.9457 -5.3289
16339TIP3    H270509   2.848   3.903  13.723  0.6283 -0.5783 -2.3638
16340TIP3   OH270510   6.197   0.347   2.234 -0.2214  0.0966 -0.1056
16340TIP3    H170511   6.129   0.342   2.301 -0.3160  1.9628 -0.0475
16340TIP3    H270512   6.181   0.430   2.189  1.0683 -0.1861 -1.1284
16341TIP3   OH270513   5.617   4.834   6.159  0.6743  0.2028 -0.1582
16341TIP3    H170514   5.670   4.760   6.189  1.2980  1.3900  1.7734
16341TIP3    H270515   5.680   4.893   6.118  0.3031  0.0345 -0.9751
16342TIP3   OH270516   2.078   4.182  11.909  1.0453 -0.0424 -0.4149
16342TIP3    H170517   2.046   4.174  11.820  2.3318  0.3602 -0.9198
16342TIP3    H270518   2.130   4.102  11.923  3.4238  1.3414 -1.1146
16343TIP3   OH270519   1.082   4.851   3.550 -0.1050  0.4050 -0.1384
16343TIP3    H170520   0.998   4.815   3.579 -1.0783  0.4376 -2.8114
16343TIP3    H270521   1.063   4.942   3.525  0.7895  0.5207 -0.4369
16344TIP3   OH270522   0.439   5.375   1.558  0.0072  0.3160  0.0533
16344TIP3    H170523   0.354   5.348   1.524  0.4187  0.3499 -1.0432
16344TIP3    H270524   0.432   5.365   1.653 -0.7879 -0.9362 -0.1225
16345TIP3   OH270525   0.333   4.092   5.196  0.0417 -0.0311 -0.2879
16345TIP3    H170526   0.334   4.137   5.281 -0.7911 -1.2148  0.3719
16345TIP3    H270527   0.247   4.112   5.160  1.0648  1.9685 -1.7039
16346TIP3   OH270528   1.862   1.138   4.656  0.4475  0.5077  0.7654
16346TIP3    H170529   1.870   1.233   4.650 -2.1444  0.7949  1.0045
16346TIP3    H270530   1.785   1.117   4.603  2.5394 -1.8021 -1.5062
16347TIP3   OH270531   2.872   4.254  13.704  0.3240 -0.7396  0.4170
16347TIP3    H170532   2.909   4.166  13.716 -1.3973 -1.5936 -0.2812
16347TIP3    H270533   2.798   4.257  13.765 -1.1814 -0.7269 -1.3792
16348TIP3   OH270534   4.080   2.433  11.823 -0.2053  0.5157 -0.2825
16348TIP3    H170535   4.122   2.481  11.896 -0.4127 -2.1612  1.6620
16348TIP3    H270536   4.153   2.387  11.781 -0.2978  0.9691 -0.9516
16349TIP3   OH270537   5.442   2.675   1.558  0.3189 -0.3714 -0.3264
16349TIP3    H170538   5.407   2.626   1.633 -1.6462 -0.2245 -1.1263
16349TIP3    H270539   5.376   2.742   1.540  1.4195  0.4729 -1.3454
16350TIP3   OH270540   1.129   3.929   1.460 -0.9364 -0.7423 -0.2258
16350TIP3    H170541   1.185   3.986   1.513  0.3798 -2.8323  0.7356
16350TIP3    H270542   1.056   3.907   1.518 -1.1442 -0.5062 -0.3961
16351TIP3   OH270543   5.780   6.653  14.872  0.1084 -0.1308  0.1649
16351TIP3    H170544   5.779   6.703  14.953  1.4910 -3.2561  2.2339
16351TIP3    H270545   5.688   6.643  14.848 -0.2263  2.5898  0.1558
16352TIP3   OH270546   1.812   2.881  16.621 -0.0268  0.0962  0.1394
16352TIP3    H170547   1.744   2.814  16.624 -0.2749  0.3824  1.3807
16352TIP3    H270548   1.797   2.934  16.700  1.1735  0.6187  0.0344
16353TIP3   OH270549   1.705   5.215   0.412  0.1330  0.1836 -0.0214
16353TIP3    H170550   1.757   5.199   0.491  0.0365 -1.8545 -0.3585
16353TIP3    H270551   1.706   5.310   0.402  1.9404  0.3215  1.2365
16354TIP3   OH270552   3.501   6.382   2.959 -0.2604 -0.2660  0.5462
16354TIP3    H170553   3.572   6.318   2.950 -0.0184  0.1239 -0.3817
16354TIP3    H270554   3.422   6.329   2.965  0.1150 -0.7093  1.6617
16355TIP3   OH270555   6.140   2.577  16.540  0.3078 -0.5555  0.1522
16355TIP3    H170556   6.135   2.502  16.481  2.2802  0.5915 -1.4980
16355TIP3    H270557   6.072   2.637  16.509  0.6563 -0.4018 -0.3094
16356TIP3   OH270558   4.304   3.171  14.936  0.5894  0.0830  0.1052
16356TIP3    H170559   4.247   3.145  15.009 -0.8626  1.0132 -0.6694
16356TIP3    H270560   4.245   3.214  14.874  1.8018 -0.7097 -1.6333
16357TIP3   OH270561   0.328   0.217  13.340  0.1667  0.0797 -0.3432
16357TIP3    H170562   0.370   0.291  13.297  1.3545 -0.3553  0.0447
16357TIP3    H270563   0.397   0.178  13.394 -0.1492 -1.9284 -1.3224
16358TIP3   OH270564   0.948   4.276  13.442 -0.2130  0.2690 -0.7673
16358TIP3    H170565   0.912   4.196  13.480 -1.2389  0.2746 -1.7323
16358TIP3    H270566   0.905   4.347  13.490  1.5435  0.2624  0.8848
16359TIP3   OH270567   1.043   2.125  14.032 -0.1136 -0.1245 -0.0165
16359TIP3    H170568   1.043   2.184  14.107 -0.4487  1.0443 -0.9182
16359TIP3    H270569   0.995   2.048  14.061 -0.7055  0.5488  0.7928
16360TIP3   OH270570   3.480   1.438   3.089  0.6341  0.0462 -0.3463
16360TIP3    H170571   3.421   1.421   3.015 -0.2348  1.4971  0.0101
16360TIP3    H270572   3.442   1.388   3.161  0.7722 -0.3386 -0.5349
16361TIP3   OH270573   2.250   2.865  13.607 -0.5913 -0.2377  0.1022
16361TIP3    H170574   2.231   2.953  13.637 -0.0952 -0.0968  0.0106
16361TIP3    H270575   2.262   2.814  13.687  2.3203  0.4833  0.1674
16362TIP3   OH270576   2.703   2.713  10.972  0.3500 -0.7037 -0.4775
16362TIP3    H170577   2.723   2.804  10.996 -0.6062 -0.8275  0.8233
16362TIP3    H270578   2.784   2.665  10.988  0.9372 -0.0420 -1.4197
16363TIP3   OH270579   4.520   0.709   2.094  0.3059 -0.1566 -0.4535
16363TIP3    H170580   4.533   0.750   2.179  1.0888  0.9611 -1.0811
16363TIP3    H270581   4.602   0.664   2.076  1.3799  2.3132 -2.0119
16364TIP3   OH270582   4.859   4.622  16.509 -0.2160  0.1635  0.1322
16364TIP3    H170583   4.913   4.694  16.543 -0.7274  0.7362 -0.2775
16364TIP3    H270584   4.853   4.639  16.415 -1.2451  0.1861  0.2012
16365TIP3   OH270585   0.002   1.918   2.121 -0.1440 -0.1335 -0.2599
16365TIP3    H170586   0.076   1.975   2.138  0.5478 -1.5025  1.5529
16365TIP3    H270587  -0.019   1.931   2.029 -0.0538  3.0432  0.1381
16366TIP3   OH270588   2.459   2.757   1.614 -0.4852 -0.2871  0.2888
16366TIP3    H170589   2.389   2.708   1.573 -0.9979 -0.0865  0.9117
16366TIP3    H270590   2.484   2.823   1.550  0.4255 -1.5547 -0.6797
16367TIP3   OH270591   6.569   1.223  14.249 -0.4917 -0.7999 -0.3878
16367TIP3    H170592   6.624   1.240  14.173  1.2469 -3.6741  0.1243
16367TIP3    H270593   6.510   1.153  14.221 -3.2125  1.4963 -0.5807
16368TIP3   OH270594   5.499   2.790  13.123  0.4760  0.8351  0.1606
16368TIP3    H170595   5.567   2.757  13.065 -2.6268 -1.9518 -2.0533
16368TIP3    H270596   5.450   2.712  13.149 -0.5943  2.5149  3.4633
16369TIP3   OH270597   6.794   3.833  11.233 -0.1988  0.0019 -0.1107
16369TIP3    H170598   6.825   3.912  11.277  1.6293 -1.4102  1.1882
16369TIP3    H270599   6.834   3.836  11.146 -0.8245  0.9148 -0.3782
16370TIP3   OH270600   6.481   6.676  14.604  0.1707  0.0000  0.0217
16370TIP3    H170601   6.396   6.704  14.637 -0.1519 -0.6558 -0.2487
16370TIP3    H270602   6.543   6.703  14.672 -0.2304  0.6380  0.1339
16371TIP3   OH270603   5.997   6.801   5.342 -0.0236 -0.0563  0.0026
16371TIP3    H170604   5.918   6.854   5.332 -0.8058 -1.2573 -0.2265
16371TIP3    H270605   5.985   6.756   5.426  0.2580 -0.5041 -0.1982
16372TIP3   OH270606   6.616   5.504   4.869 -0.2142  0.0835  0.3844
16372TIP3    H170607   6.572   5.419   4.873 -1.6896  0.7774 -0.3793
16372TIP3    H270608   6.583   5.552   4.944 -0.9162  0.6652 -0.2814
16373TIP3   OH270609   4.993   0.927  14.484 -0.0160  0.1829 -0.7814
16373TIP3    H170610   4.993   0.956  14.575 -1.0690  0.0364 -0.7299
16373TIP3    H270611   5.038   0.842  14.486 -0.1021  0.1459 -0.3866
16374TIP3   OH270612   1.146   4.249   0.570 -0.0280 -0.1386  0.7438
16374TIP3    H170613   1.169   4.159   0.547  1.3372  0.6097 -0.8574
16374TIP3    H270614   1.170   4.256   0.663  1.1085 -1.0188  0.5252
16375TIP3   OH270615   1.760   5.215   2.045  0.4872 -0.2339 -0.6565
16375TIP3    H170616   1.714   5.264   2.112  2.3641 -0.2388  0.6666
16375TIP3    H270617   1.815   5.279   2.001  2.5055 -0.9793  0.6941
16376TIP3   OH270618   3.701   5.545  13.335  0.3497  0.6481 -0.1623
16376TIP3    H170619   3.764   5.490  13.381  1.0596 -0.3661 -2.2925
16376TIP3    H270620   3.754   5.610  13.290 -0.0424 -0.4859 -2.3444
16377TIP3   OH270621   3.784   0.871  16.673  0.1628 -0.1526  0.5857
16377TIP3    H170622   3.793   0.869  16.578  0.2906 -0.2209  0.5989
16377TIP3    H270623   3.823   0.955  16.699  3.0752 -1.5327  0.8730
16378TIP3   OH270624   6.600   4.194   1.739  0.6141  0.0636 -0.2269
16378TIP3    H170625   6.544   4.143   1.798  0.0092  1.5132  0.4859
16378TIP3    H270626   6.665   4.233   1.797  0.5225  0.8259 -0.6283
16379TIP3   OH270627   4.811   5.006  15.253 -0.5170 -0.6095 -0.6453
16379TIP3    H170628   4.877   5.061  15.211 -0.8990  0.4394  0.1142
16379TIP3    H270629   4.752   4.980  15.182 -0.4209  0.0919 -0.9826
16380TIP3   OH270630   0.624   4.755   1.709 -0.5125 -0.1469 -0.0014
16380TIP3    H170631   0.720   4.746   1.707 -0.4692 -0.0044  1.1279
16380TIP3    H270632   0.602   4.796   1.626  0.4463  0.1025 -0.1380
16381TIP3   OH270633   3.110   3.499   2.125 -0.0116  0.0512 -0.0135
16381TIP3    H170634   3.038   3.501   2.188  0.6905 -0.0972  0.7856
16381TIP3    H270635   3.137   3.591   2.116  1.1185 -0.1442  1.3069
16382TIP3   OH270636   1.917   3.844  16.764 -0.2871 -0.7254  0.3080
16382TIP3    H170637   1.869   3.915  16.806  0.1932  0.6677 -1.4230
16382TIP3    H270638   2.002   3.843  16.807 -0.3374 -0.3226  0.4158
16383TIP3   OH270639   3.001   0.982   3.658 -0.9880 -0.1193 -0.3720
16383TIP3    H170640   3.009   0.994   3.563  0.5589 -0.4876 -0.2998
16383TIP3    H270641   3.010   1.070   3.694  0.5439 -0.2207 -0.4549
16384TIP3   OH270642   1.415   6.611  15.787  0.0706 -0.2444 -0.0238
16384TIP3    H170643   1.439   6.662  15.709  2.2144  0.1595  0.8593
16384TIP3    H270644   1.480   6.541  15.790 -1.6166 -1.8352 -0.0710
16385TIP3   OH270645   3.026   2.745   0.471  0.3009  0.2226  0.5312
16385TIP3    H170646   3.030   2.650   0.465  1.6657  0.1398  2.1572
16385TIP3    H270647   2.934   2.765   0.487  0.0513 -0.8431  0.4284
16386TIP3   OH270648   5.466   0.124  15.799  0.0917  0.2091  0.1128
16386TIP3    H170649   5.405   0.052  15.816  2.1840 -1.6228  0.1855
16386TIP3    H270650   5.424   0.176  15.731 -1.4878 -1.0838  0.0582
16387TIP3   OH270651   5.353   3.105   6.475  0.0568 -0.1526  0.5266
16387TIP3    H170652   5.258   3.118   6.470 -0.0067 -0.6382  0.5011
16387TIP3    H270653   5.375   3.059   6.394  0.3648  0.2601  0.3709
16388TIP3   OH270654   4.588   0.816  17.165  0.3671 -0.1158 -0.2773
16388TIP3    H170655   4.671   0.782  17.198  1.1728  1.5588 -0.5017
16388TIP3    H270656   4.605   0.831  17.071  0.4626  2.0189  0.0412
16389TIP3   OH270657   3.147   2.552  14.527  0.2303 -0.1966  0.0501
16389TIP3    H170658   3.172   2.614  14.458  0.1050  1.0407  1.1114
16389TIP3    H270659   3.227   2.538  14.576 -0.0872  0.2795  0.7120
16390TIP3   OH270660   0.956   1.203   1.291 -0.8738 -0.2670  0.1738
16390TIP3    H170661   0.888   1.140   1.264 -0.4919 -0.4431 -0.3831
16390TIP3    H270662   1.037   1.152   1.292 -0.5593  0.2167 -0.2840
16391TIP3   OH270663   1.802   0.161   6.047  0.0059 -0.0494 -0.3155
16391TIP3    H170664   1.883   0.110   6.045  1.0012  1.4452  0.7718
16391TIP3    H270665   1.734   0.096   6.063  0.9147 -1.3998 -1.7878
16392TIP3   OH270666   6.627   2.285  16.761 -0.3828  0.2108  0.1415
16392TIP3    H170667   6.639   2.346  16.833  0.1083 -1.0864  1.1692
16392TIP3    H270668   6.569   2.331  16.700 -1.1516  1.1481  1.5520
16393TIP3   OH270669   4.431   6.799   5.259  0.2007 -0.6800  0.5306
16393TIP3    H170670   4.417   6.860   5.187  2.5305  2.2259  2.4030
16393TIP3    H270671   4.342   6.774   5.287 -0.8156  1.6188 -0.5055
16394TIP3   OH270672   4.293   6.096   3.710  0.2474 -0.3216 -0.0802
16394TIP3    H170673   4.369   6.098   3.651 -0.5245  0.2606 -1.0682
16394TIP3    H270674   4.218   6.110   3.653 -0.5451 -0.0852  1.0059
16395TIP3   OH270675   5.525   0.379  15.199  0.0636  0.3214 -0.4344
16395TIP3    H170676   5.521   0.373  15.295  1.6396  1.4005 -0.2748
16395TIP3    H270677   5.434   0.369  15.171 -0.2528 -1.4295  1.0783
16396TIP3   OH270678   6.361   4.578   3.379 -0.4121  0.1919  0.1609
16396TIP3    H170679   6.433   4.565   3.440  0.8178  1.5099 -0.9966
16396TIP3    H270680   6.393   4.642   3.317 -1.3948 -1.5928 -2.2718
16397TIP3   OH270681   5.231   1.270  11.140 -0.1281 -0.1399  0.2794
16397TIP3    H170682   5.156   1.291  11.084 -0.8057 -0.5133  1.0423
16397TIP3    H270683   5.214   1.181  11.170  1.1749 -0.6310 -0.4216
16398TIP3   OH270684   3.062   3.103   1.581  0.0464  0.3647  0.2859
16398TIP3    H170685   3.107   3.171   1.530  0.0145  0.2305  0.0770
16398TIP3    H270686   3.068   3.024   1.526  1.5873 -0.2339  1.2826
16399TIP3   OH270687   0.753   6.358  11.712 -0.1505  0.4103 -0.0537
16399TIP3    H170688   0.795   6.273  11.709 -0.7417  0.1128 -0.0165
16399TIP3    H270689   0.669   6.342  11.755 -0.5656  0.8821 -0.6779
16400TIP3   OH270690   3.522   5.450  11.985 -0.2594 -0.4545 -0.0488
16400TIP3    H170691   3.454   5.457  12.051 -0.1067  2.4163 -0.1052
16400TIP3    H270692   3.599   5.419  12.033 -0.7533 -0.5615  0.6749
16401TIP3   OH270693   6.478   0.328  15.401 -0.0635  0.4910 -0.8128
16401TIP3    H170694   6.464   0.394  15.468 -1.5095  0.7927 -1.4011
16401TIP3    H270695   6.543   0.269  15.439 -0.8023  0.7078  0.8197
16402TIP3   OH270696   3.549   3.380   1.783 -0.3022 -0.1602  0.7382
16402TIP3    H170697   3.480   3.351   1.724  0.1274 -2.5566  1.3296
16402TIP3    H270698   3.517   3.358   1.871  0.8576 -0.5508  1.0731
16403TIP3   OH270699   6.495   2.776   4.149 -0.2133  0.3791 -0.0383
16403TIP3    H170700   6.448   2.752   4.070  0.7210  0.4450 -0.6182
16403TIP3    H270701   6.523   2.693   4.188  0.0468  0.3850 -0.2155
16404TIP3   OH270702   3.209   6.819  13.945 -0.2538 -0.4743  0.2412
16404TIP3    H170703   3.245   6.776  14.023 -1.7602  0.2116  1.3422
16404TIP3    H270704   3.133   6.767  13.922 -1.2409  0.7246  0.7138
16405TIP3   OH270705   1.834   2.383   5.605 -0.3443  0.0347  0.2347
16405TIP3    H170706   1.871   2.427   5.682 -1.9151  2.5040 -0.3822
16405TIP3    H270707   1.911   2.354   5.556  0.6958 -0.0629  1.8491
16406TIP3   OH270708   1.718   3.946  11.847  0.6675 -0.3984 -0.0630
16406TIP3    H170709   1.702   4.032  11.886  2.0011  0.6030 -1.6797
16406TIP3    H270710   1.685   3.884  11.912  2.6741  1.2263  2.5685
16407TIP3   OH270711   4.209   1.475   1.662  0.1810 -0.0955  0.1201
16407TIP3    H170712   4.213   1.542   1.731 -2.6876  0.7278 -0.4342
16407TIP3    H270713   4.208   1.526   1.581  1.1274 -0.9615 -0.4346
16408TIP3   OH270714   0.247   6.328  15.351 -0.2010 -0.7145  0.1531
16408TIP3    H170715   0.259   6.382  15.429  1.4456 -0.1998 -0.4567
16408TIP3    H270716   0.305   6.253  15.365 -1.6737 -1.8222  0.4990
16409TIP3   OH270717   6.265   0.666  15.308 -0.3833 -0.2407 -0.9198
16409TIP3    H170718   6.195   0.613  15.270  0.3822 -1.9648 -0.0008
16409TIP3    H270719   6.308   0.608  15.371 -1.8306  2.5677  2.8741
16410TIP3   OH270720   1.758   3.568   1.840  0.0639  0.8126 -0.1802
16410TIP3    H170721   1.669   3.557   1.808  0.8596  0.5465 -2.3975
16410TIP3    H270722   1.766   3.504   1.911 -2.2986  2.6330  1.7835
16411TIP3   OH270723   5.978   2.434  15.250 -0.1430  0.3756 -0.3478
16411TIP3    H170724   6.039   2.485  15.303 -0.8275  1.1165 -0.2763
16411TIP3    H270725   6.028   2.412  15.171  0.7804 -0.4790  0.4503
16412TIP3   OH270726   4.353   2.580  13.352 -0.8373  0.0958 -0.0133
16412TIP3    H170727   4.296   2.647  13.390  2.0236  1.5872  1.8421
16412TIP3    H270728   4.384   2.529  13.427 -0.1892 -1.0539 -1.0328
16413TIP3   OH270729   5.457   6.687  16.268 -0.3804  0.2858  0.4349
16413TIP3    H170730   5.507   6.606  16.265 -0.0314  0.5153 -0.1850
16413TIP3    H270731   5.510   6.746  16.321  0.4384  0.7995 -0.9127
16414TIP3   OH270732   4.489   2.009  15.816 -0.1616 -0.0657  0.1913
16414TIP3    H170733   4.469   1.940  15.879  0.7039  0.3511  0.9342
16414TIP3    H270734   4.545   1.966  15.751  0.5184 -0.0392  0.7460
16415TIP3   OH270735   6.308   4.101   6.660  0.5011  0.2052  0.1770
16415TIP3    H170736   6.295   4.196   6.665  1.8506  0.4070  0.0661
16415TIP3    H270737   6.360   4.081   6.738  0.7080 -0.3543 -0.1095
16416TIP3   OH270738   5.407   0.358   0.325 -0.5700 -0.5141 -0.4076
16416TIP3    H170739   5.455   0.384   0.246 -0.4759  0.3087 -0.0823
16416TIP3    H270740   5.460   0.289   0.364  0.8005  0.9416  0.3901
16417TIP3   OH270741   3.821   4.683  13.854  0.5698  0.5046 -0.1750
16417TIP3    H170742   3.769   4.697  13.775  0.1792 -0.5509 -0.1182
16417TIP3    H270743   3.837   4.771  13.889  0.1275  0.9288 -1.0268
16418TIP3   OH270744   4.198   1.169  15.199  0.5768 -0.7382 -0.1293
16418TIP3    H170745   4.292   1.184  15.190  1.0670 -1.3933  3.1130
16418TIP3    H270746   4.180   1.095  15.141  2.1665 -0.9436 -0.3834
16419TIP3   OH270747   1.581   0.267   4.904 -0.2961 -0.0062 -0.3245
16419TIP3    H170748   1.509   0.284   4.965  0.5293 -1.0142  0.9794
16419TIP3    H270749   1.659   0.264   4.960  0.6844  0.4921 -1.6342
16420TIP3   OH270750   3.806   3.870   5.008  0.2214 -0.2178  0.4032
16420TIP3    H170751   3.823   3.891   4.916  1.5660  0.3123  0.7574
16420TIP3    H270752   3.720   3.827   5.008  0.1710 -0.1296 -1.0803
16421TIP3   OH270753   4.893   6.432  17.180 -0.2183  0.0325  0.1454
16421TIP3    H170754   4.822   6.447  17.242  0.4217  1.0044  0.6525
16421TIP3    H270755   4.928   6.346  17.204 -1.3215 -0.5331 -0.2222
16422TIP3   OH270756   6.460   0.897   6.534  0.0250  0.4406 -0.6419
16422TIP3    H170757   6.515   0.956   6.484  1.7981 -1.6503 -1.2501
16422TIP3    H270758   6.378   0.945   6.547  1.8241  3.4175 -0.0946
16423TIP3   OH270759   1.594   5.026   1.881  0.4065 -0.2243 -0.0665
16423TIP3    H170760   1.602   4.993   1.971  2.7999 -1.6172 -0.7583
16423TIP3    H270761   1.644   5.107   1.880  0.6074 -0.3519 -0.2271
16424TIP3   OH270762   0.509   5.341   0.099  0.5283  0.3942  0.5746
16424TIP3    H170763   0.421   5.362   0.067  1.4411  1.2998 -1.4120
16424TIP3    H270764   0.568   5.378   0.033  2.4407  0.9289  2.5463
16425TIP3   OH270765   6.538   1.714  14.507 -0.6655 -0.3251  0.7156
16425TIP3    H170766   6.627   1.685  14.490 -0.8603  0.2279 -1.4145
16425TIP3    H270767   6.540   1.748  14.596  1.4738  0.4959  0.3859
16426TIP3   OH270768   1.698   4.125   5.730  0.1117 -0.6823  0.2471
16426TIP3    H170769   1.677   4.033   5.746  0.9930 -0.7199  1.2762
16426TIP3    H270770   1.777   4.123   5.675 -1.9949 -0.5383 -2.9054
16427TIP3   OH270771   1.472   4.246   1.367  0.2016 -0.6966  0.1730
16427TIP3    H170772   1.553   4.206   1.336  0.3153 -0.7250  0.5031
16427TIP3    H270773   1.455   4.318   1.306 -0.0789 -1.3304 -0.5115
16428TIP3   OH270774   1.098   6.486   0.354 -0.1183  0.4506  0.1767
16428TIP3    H170775   1.140   6.572   0.358 -1.2149  0.9546  1.2949
16428TIP3    H270776   1.021   6.494   0.411 -0.0896 -1.3509  0.5039
16429TIP3   OH270777   3.981   5.685   4.214 -0.3517  0.5282  0.2457
16429TIP3    H170778   3.939   5.771   4.208  0.3990  0.9050  0.3756
16429TIP3    H270779   4.050   5.687   4.148 -0.8507 -0.2737 -0.3023
16430TIP3   OH270780   5.653   4.782   3.413  0.0454  0.4691 -0.0243
16430TIP3    H170781   5.677   4.762   3.503  2.4442 -0.6920 -0.8865
16430TIP3    H270782   5.734   4.771   3.364 -1.3348  0.6501 -2.4000
16431TIP3   OH270783   0.513   0.264  17.013 -0.0249  0.2205  0.1059
16431TIP3    H170784   0.603   0.234  16.997  0.4414  1.4511  0.3449
16431TIP3    H270785   0.472   0.264  16.926  1.0271  2.2072 -0.4235
16432TIP3   OH270786   3.943   5.888  14.808 -0.2400  0.4111  0.1410
16432TIP3    H170787   3.959   5.891  14.713  3.2658 -0.9505  0.6405
16432TIP3    H270788   3.910   5.800  14.824 -2.7200  1.2695 -0.0317
16433TIP3   OH270789   4.203   1.423   5.060 -0.2081 -0.0499  0.4803
16433TIP3    H170790   4.283   1.392   5.018 -0.3565 -0.9801  0.8887
16433TIP3    H270791   4.186   1.360   5.130 -1.5949 -0.1599  0.0657
16434TIP3   OH270792   4.971   1.708   2.241  0.6976 -0.1733  0.4554
16434TIP3    H170793   4.940   1.729   2.153 -0.8476  0.1048  1.0595
16434TIP3    H270794   5.017   1.624   2.232  0.7821 -0.0127 -0.6491
16435TIP3   OH270795   6.734   4.010  15.544 -0.2186 -0.0991 -0.0264
16435TIP3    H170796   6.651   4.052  15.519  0.0209 -0.2806 -1.1402
16435TIP3    H270797   6.774   4.073  15.605 -0.0625  1.1011 -1.3403
16436TIP3   OH270798   3.211   5.700   4.793 -0.3276 -0.1034 -0.4348
16436TIP3    H170799   3.199   5.793   4.812  0.0675 -0.0597 -0.4041
16436TIP3    H270800   3.305   5.685   4.804 -0.4317 -0.5676 -0.1590
16437TIP3   OH270801   1.106   3.068   1.719 -0.7591  0.8645  0.1833
16437TIP3    H170802   1.184   3.044   1.669 -0.1571  1.2852  0.9190
16437TIP3    H270803   1.139   3.112   1.797 -1.7358  1.1636  0.4429
16438TIP3   OH270804   6.571   3.328  15.526  0.1528  0.2562  0.2063
16438TIP3    H170805   6.542   3.339  15.436 -1.7530 -0.7121  0.6793
16438TIP3    H270806   6.593   3.417  15.555  1.2701  0.5000 -1.3552
16439TIP3   OH270807   1.833   3.317  16.388  0.8176  0.2844  0.4630
16439TIP3    H170808   1.865   3.249  16.328 -1.4934 -0.0012 -0.5394
16439TIP3    H270809   1.816   3.392  16.332 -1.0826  0.1171  0.7755
16440TIP3   OH270810   4.227   3.344  14.446  0.0283 -0.0399  0.0087
16440TIP3    H170811   4.288   3.416  14.426 -0.6305  0.6285  0.3563
16440TIP3    H270812   4.262   3.269  14.399 -0.1471  0.9049 -1.6778
16441TIP3   OH270813   4.609   1.534  16.644 -0.1783 -0.2712  0.0171
16441TIP3    H170814   4.515   1.549  16.656  0.1157 -0.2563  2.5249
16441TIP3    H270815   4.650   1.576  16.719  1.8832 -0.0007 -1.2198
16442TIP3   OH270816   5.850   1.047  15.232  0.6402 -0.5994 -0.3281
16442TIP3    H170817   5.928   0.995  15.251  0.5591  0.2980  2.8669
16442TIP3    H270818   5.875   1.136  15.256 -1.9087 -0.6048  2.5937
16443TIP3   OH270819   6.078   6.388   4.243  0.3530  0.2220 -0.7132
16443TIP3    H170820   6.155   6.339   4.272  0.2128  0.4760  0.1175
16443TIP3    H270821   6.111   6.448   4.177  0.4526 -1.2800 -2.0505
16444TIP3   OH270822   6.167   3.280   1.494  0.2036  0.3444 -0.5960
16444TIP3    H170823   6.075   3.308   1.491  0.1885  0.3711  0.0013
16444TIP3    H270824   6.209   3.344   1.550  0.4947  0.0720 -0.5047
16445TIP3   OH270825   3.415   3.583  13.119  0.1113 -0.5175  0.1483
16445TIP3    H170826   3.339   3.545  13.164  0.6456  0.5737  2.0264
16445TIP3    H270827   3.479   3.512  13.115 -0.8381 -1.3234 -1.0794
16446TIP3   OH270828   1.296   0.124   3.148  0.4354 -0.3232  0.0187
16446TIP3    H170829   1.391   0.128   3.137  0.3402 -1.1524 -1.2034
16446TIP3    H270830   1.268   0.052   3.091 -0.9002 -0.2286  0.5367
16447TIP3   OH270831   5.890   3.526  16.377 -0.3197  0.8186 -0.2434
16447TIP3    H170832   5.860   3.441  16.411  0.7711 -0.3685 -2.1316
16447TIP3    H270833   5.828   3.589  16.412  0.3775 -0.3881  3.4152
16448TIP3   OH270834   4.503   3.472  13.272  0.7902 -0.3465  0.6108
16448TIP3    H170835   4.594   3.462  13.301  0.9268  2.2486  1.2254
16448TIP3    H270836   4.462   3.527  13.339 -0.5812  0.5325 -0.8930
16449TIP3   OH270837   5.412   0.870  11.765 -0.6819  0.4052 -0.6739
16449TIP3    H170838   5.506   0.872  11.749 -1.0414  0.5515 -2.9179
16449TIP3    H270839   5.373   0.857  11.679 -2.6715 -1.2376  0.4425
16450TIP3   OH270840   0.130   5.119  16.474  0.0339  0.0819 -0.1050
16450TIP3    H170841   0.068   5.188  16.497  1.6587  1.2899  0.7092
16450TIP3    H270842   0.135   5.065  16.553 -1.0078 -0.8335 -0.6420
16451TIP3   OH270843   3.520   5.492  11.725 -0.7528 -0.2134 -0.5616
16451TIP3    H170844   3.499   5.463  11.814  1.2587  0.5390  0.1943
16451TIP3    H270845   3.574   5.423  11.688 -0.4954  0.0731 -0.7264
16452TIP3   OH270846   0.197   3.738  16.886 -0.0066 -0.3308  0.3123
16452TIP3    H170847   0.267   3.723  16.951  0.8500 -0.1320 -0.5455
16452TIP3    H270848   0.201   3.832  16.869  0.7344 -0.5989 -1.0825
16453TIP3   OH270849   1.270   1.269   3.246  0.5511 -0.5040 -0.5948
16453TIP3    H170850   1.260   1.258   3.340  0.4629  0.9066 -0.4274
16453TIP3    H270851   1.201   1.215   3.207  0.8743 -1.4491  0.1246
16454TIP3   OH270852   1.750   3.250   2.657 -0.3752  0.0520 -0.5874
16454TIP3    H170853   1.667   3.268   2.699 -0.6090  0.6910 -1.3057
16454TIP3    H270854   1.739   3.162   2.619 -0.7653  0.1849 -0.7857
16455TIP3   OH270855   6.316   6.601   2.550 -0.1630 -0.1804 -0.2000
16455TIP3    H170856   6.278   6.594   2.463 -0.4524 -1.2040 -0.0054
16455TIP3    H270857   6.251   6.561   2.608 -0.0072  0.5555  0.4879
16456TIP3   OH270858   0.233   0.453  16.127 -0.9309  0.0985 -0.0608
16456TIP3    H170859   0.149   0.433  16.170 -2.0381 -0.7567 -2.5002
16456TIP3    H270860   0.262   0.370  16.091  0.5106  0.5811 -0.0497
16457TIP3   OH270861   0.969   2.324   0.202  0.4400  0.0742  0.0436
16457TIP3    H170862   1.001   2.266   0.270 -0.2371  0.6927  0.9092
16457TIP3    H270863   1.016   2.406   0.215  2.5278 -0.7307 -2.1389
16458TIP3   OH270864   6.401   4.473  11.744 -0.4332  0.3783  0.1432
16458TIP3    H170865   6.476   4.520  11.781  0.5498  0.8386 -2.3193
16458TIP3    H270866   6.424   4.381  11.752  0.1745  0.5021 -0.1520
16459TIP3   OH270867   1.283   4.963  15.643 -0.2197 -0.4826 -0.4299
16459TIP3    H170868   1.255   4.978  15.734  2.6999 -1.1269  0.6428
16459TIP3    H270869   1.239   4.882  15.617  0.8015 -1.6417  1.3030
16460TIP3   OH270870   0.899   2.294   5.990  0.0535  0.1479  0.2860
16460TIP3    H170871   0.817   2.252   5.965 -1.9299  2.4510  2.7207
16460TIP3    H270872   0.906   2.280   6.084  2.3069  0.3196  0.1826
16461TIP3   OH270873   3.303   3.802   5.351  0.5545  0.0257 -0.8512
16461TIP3    H170874   3.335   3.736   5.289  1.6182  0.0288 -0.3079
16461TIP3    H270875   3.374   3.813   5.414 -0.2700  0.4895  0.0162
16462TIP3   OH270876   3.803   0.604   3.004 -0.0363 -0.3697  0.9469
16462TIP3    H170877   3.710   0.591   3.019 -0.2045 -0.6235 -0.3256
16462TIP3    H270878   3.826   0.678   3.060 -0.8150 -0.8264  1.8942
16463TIP3   OH270879   0.956   3.207  15.847 -0.0635 -0.5502 -0.0027
16463TIP3    H170880   1.047   3.237  15.848 -0.1197 -0.3878  0.3626
16463TIP3    H270881   0.956   3.131  15.788  0.2993 -0.5226 -0.0373
16464TIP3   OH270882   6.114   6.532  14.827 -0.1709  0.9713  0.0505
16464TIP3    H170883   6.166   6.452  14.815 -0.7678  0.5966 -0.0832
16464TIP3    H270884   6.069   6.544  14.744 -0.9610  0.8071  0.4544
16465TIP3   OH270885   6.304   4.710   4.311  0.0548 -0.5681  0.6182
16465TIP3    H170886   6.230   4.695   4.369 -0.4446  1.0119  0.4027
16465TIP3    H270887   6.279   4.667   4.229 -0.7806  0.2590  0.4359
16466TIP3   OH270888   1.999   3.440  12.567  0.8069  0.0749 -0.0191
16466TIP3    H170889   1.996   3.406  12.656  1.9479  1.0331  0.4007
16466TIP3    H270890   2.085   3.483  12.560  1.0390 -0.6131 -1.8068
16467TIP3   OH270891   0.905   1.115  17.193 -0.5105 -0.1748  0.4529
16467TIP3    H170892   0.846   1.180  17.153 -0.1657 -0.0400  0.1613
16467TIP3    H270893   0.883   1.117  17.286 -0.2628  0.6172  0.4992
16468TIP3   OH270894   0.104   0.838   5.096 -0.3660  0.3887  0.3794
16468TIP3    H170895   0.145   0.860   5.013 -0.7292  0.1353  0.1304
16468TIP3    H270896   0.042   0.768   5.075  0.6188 -0.7179  1.1263
16469TIP3   OH270897   5.840   1.341   4.062 -0.2425  0.1237  0.0431
16469TIP3    H170898   5.774   1.275   4.082 -0.2776  0.3158  0.5780
16469TIP3    H270899   5.789   1.420   4.042 -0.2087 -0.0770 -0.8725
16470TIP3   OH270900   3.954   1.809   0.358  0.4344 -0.5934 -0.5985
16470TIP3    H170901   4.031   1.846   0.314  0.7267  0.9381  1.1403
16470TIP3    H270902   3.981   1.800   0.449 -1.0844 -1.0903 -0.1860
16471TIP3   OH270903   5.847   5.006   3.400  0.3535  0.5477 -0.8344
16471TIP3    H170904   5.854   4.942   3.329  1.1738 -0.5502  0.2153
16471TIP3    H270905   5.925   4.991   3.454 -0.5675  0.9421  0.6482
16472TIP3   OH270906   1.714   5.088   3.331  0.0875  0.0720  0.6855
16472TIP3    H170907   1.795   5.116   3.289  0.5866 -1.6033  0.5326
16472TIP3    H270908   1.668   5.038   3.264 -0.5473  0.0321  1.1468
16473TIP3   OH270909   0.968   5.457  12.445 -0.5460  0.3125 -0.4320
16473TIP3    H170910   0.999   5.392  12.507 -0.2767 -1.4038 -2.3046
16473TIP3    H270911   1.040   5.520  12.438  0.3944 -0.7846 -0.7726
16474TIP3   OH270912   6.682   1.574  14.873 -0.1426 -0.0632  1.0911
16474TIP3    H170913   6.715   1.527  14.797  0.4129 -0.3346  1.4932
16474TIP3    H270914   6.757   1.625  14.904 -1.0836  2.1185 -0.1153
16475TIP3   OH270915   6.434   4.047  11.418 -0.0080 -0.6398 -0.2013
16475TIP3    H170916   6.370   4.110  11.383 -0.5167  0.4177  2.5340
16475TIP3    H270917   6.511   4.059  11.362 -0.6469  1.3074 -0.7279
16476TIP3   OH270918   5.347   6.660   3.287  0.0862 -0.3908 -0.9397
16476TIP3    H170919   5.300   6.680   3.368  0.9779  2.1862 -1.0135
16476TIP3    H270920   5.400   6.583   3.308 -0.1130 -0.0666  0.7645
16477TIP3   OH270921   4.240   6.566   2.536  0.0221 -0.1746  0.0342
16477TIP3    H170922   4.249   6.471   2.546  2.2529 -0.3184 -2.7730
16477TIP3    H270923   4.146   6.581   2.540 -0.3724 -2.4799  0.5833
16478TIP3   OH270924   4.734   2.813   3.237  0.2698 -0.1139  0.0617
16478TIP3    H170925   4.645   2.846   3.227  0.0017 -0.8661 -0.0085
16478TIP3    H270926   4.724   2.725   3.272  0.9238 -0.9426 -1.7984
16479TIP3   OH270927   1.034   5.000   4.819 -0.2455 -0.3664  0.2634
16479TIP3    H170928   1.050   5.072   4.757 -0.3353 -1.0498 -0.5573
16479TIP3    H270929   1.036   5.042   4.905  0.5733  0.4744 -0.1594
16480TIP3   OH270930   3.239   2.548  11.378  0.3048 -0.1203 -0.5385
16480TIP3    H170931   3.162   2.579  11.331  0.9752  0.0409 -1.5526
16480TIP3    H270932   3.297   2.624  11.383 -0.7468  0.5812  2.7363
16481TIP3   OH270933   3.502   0.012  13.033 -0.0312  0.2425 -0.0829
16481TIP3    H170934   3.468   0.025  12.944  0.1971 -0.2041 -0.2345
16481TIP3    H270935   3.474  -0.076  13.058  3.4667 -1.3449 -1.3478
16482TIP3   OH270936   6.268   3.530  17.183  0.6081  0.2327 -0.7209
16482TIP3    H170937   6.322   3.609  17.190 -0.3687  0.8683 -0.2861
16482TIP3    H270938   6.224   3.523  17.268  0.1233 -0.3715 -1.0124
16483TIP3   OH270939   2.990   4.739   3.356  0.3365  0.4774  0.0912
16483TIP3    H170940   2.905   4.781   3.341  0.9766  0.9512 -2.5926
16483TIP3    H270941   3.036   4.749   3.272  2.5073 -0.9967  1.0666
16484TIP3   OH270942   5.357   0.908   3.255 -0.1245 -0.1070  0.1566
16484TIP3    H170943   5.347   0.839   3.321  1.9246  0.1246  0.7534
16484TIP3    H270944   5.307   0.982   3.290  0.5030 -0.1647  1.2233
16485TIP3   OH270945   3.958   6.282   4.858 -0.1665 -0.4027 -0.2123
16485TIP3    H170946   3.911   6.210   4.900  0.1082 -1.4189 -1.6375
16485TIP3    H270947   3.920   6.361   4.897 -1.6369 -1.2657  0.1358
16486TIP3   OH270948   4.625   1.270   1.785 -0.0251  0.1875  0.0827
16486TIP3    H170949   4.671   1.298   1.706  1.1545 -2.6492 -0.2933
16486TIP3    H270950   4.537   1.247   1.755 -0.6938  2.4378  0.2320
16487TIP3   OH270951   2.640   0.510  11.651 -0.3304 -0.6228  0.0367
16487TIP3    H170952   2.705   0.460  11.700  0.4615  1.1809  0.8473
16487TIP3    H270953   2.609   0.449  11.584  2.5976 -1.3426 -0.7338
16488TIP3   OH270954   0.392   6.330   2.744  0.1487  0.1487  0.1733
16488TIP3    H170955   0.470   6.320   2.799  0.0552 -0.7641  0.1493
16488TIP3    H270956   0.419   6.298   2.658 -0.6059 -1.3451  0.4738
16489TIP3   OH270957   0.991   3.199   1.249  0.1629 -0.0235  0.4109
16489TIP3    H170958   1.049   3.272   1.223  2.8403 -1.8276  1.0631
16489TIP3    H270959   1.007   3.132   1.183 -2.6746  0.1115 -0.4786
16490TIP3   OH270960   5.641   1.713  12.660 -0.0396 -0.0579 -0.2377
16490TIP3    H170961   5.647   1.630  12.706 -2.1167 -1.0815 -1.7537
16490TIP3    H270962   5.592   1.693  12.580 -1.0952  2.7213 -0.3377
16491TIP3   OH270963   4.609   3.701  12.350 -0.2766 -0.0586  0.1427
16491TIP3    H170964   4.696   3.664  12.333  0.1393  0.1396  1.7301
16491TIP3    H270965   4.583   3.740  12.267  0.2024 -2.0142 -0.9715
16492TIP3   OH270966   4.966   2.421   2.342 -0.1102 -0.4044 -0.5346
16492TIP3    H170967   4.988   2.357   2.274 -0.4162  0.6072 -1.5902
16492TIP3    H270968   5.051   2.448   2.377  0.3276  1.9093 -3.1498
16493TIP3   OH270969   0.145   5.551  12.584  0.3455 -0.3062 -0.8474
16493TIP3    H170970   0.096   5.552  12.502  1.5098  1.2628 -1.5701
16493TIP3    H270971   0.226   5.505  12.562  0.6803  0.1656 -0.6197
16494TIP3   OH270972   0.419   3.438  11.583 -0.2709  0.0340 -0.2597
16494TIP3    H170973   0.397   3.483  11.664 -0.7833  2.1286 -1.5239
16494TIP3    H270974   0.371   3.355  11.588 -2.2403  1.1768  0.4964
16495TIP3   OH270975   2.678   5.803  11.740  0.1926  0.3762 -0.4339
16495TIP3    H170976   2.752   5.810  11.679  0.9761 -1.1068  0.3177
16495TIP3    H270977   2.613   5.751  11.694  0.0552  0.7908 -0.7019
16496TIP3   OH270978   5.139   2.715  15.733 -0.1726  0.0309  0.3374
16496TIP3    H170979   5.180   2.634  15.764 -1.3432 -0.7673 -0.1364
16496TIP3    H270980   5.204   2.754  15.674 -0.4033 -1.6445 -1.0666
16497TIP3   OH270981   4.102   4.637  15.884  0.7373  0.0420 -0.4139
16497TIP3    H170982   4.120   4.553  15.842 -1.4826 -0.2728 -0.8062
16497TIP3    H270983   4.011   4.630  15.913  1.0326  1.7105  1.0039
16498TIP3   OH270984   6.095   1.276   3.922 -0.5053  0.7092  0.1128
16498TIP3    H170985   6.176   1.327   3.919 -0.0322 -0.0618 -0.4059
16498TIP3    H270986   6.037   1.327   3.978  0.9519  0.4132  1.9783
16499TIP3   OH270987   2.745   5.461   4.439  0.4434 -0.4238  0.1917
16499TIP3    H170988   2.709   5.430   4.356  0.7436  1.1619 -0.5561
16499TIP3    H270989   2.826   5.412   4.450  0.3922 -0.6563 -0.4313
16500TIP3   OH270990   3.551   2.336   1.818  0.4861  0.6017  0.1392
16500TIP3    H170991   3.557   2.353   1.724 -0.1678  0.7918  0.1336
16500TIP3    H270992   3.622   2.389   1.856  0.1499  1.2701 -0.1513
16501TIP3   OH270993   0.537   3.916  14.379 -0.3994 -0.3509 -0.4880
16501TIP3    H170994   0.465   3.948  14.434  1.1828  1.2249  0.7254
16501TIP3    H270995   0.564   3.833  14.420 -0.0509  0.1936  0.4002
16502TIP3   OH270996   6.519   2.435  11.950  0.4408 -0.1649 -0.3931
16502TIP3    H170997   6.592   2.373  11.948  0.5710  0.0262 -1.7501
16502TIP3    H270998   6.560   2.520  11.960  0.3187 -0.1859  0.3200
16503TIP3   OH270999   4.892   2.392   1.579  0.5192 -0.6239  0.1067
16503TIP3    H171000   4.857   2.319   1.629  0.2988 -1.0600 -0.6853
16503TIP3    H271001   4.815   2.439   1.546  0.6330 -1.9565 -2.1803
16504TIP3   OH271002   1.827   4.282  11.060  0.1847  0.3384 -0.7657
16504TIP3    H171003   1.885   4.206  11.068 -0.7631 -0.2469  0.7339
16504TIP3    H271004   1.804   4.285  10.968  0.4449 -1.0435 -0.8881
16505TIP3   OH271005   4.457   5.581   1.452 -0.0131  0.4454  0.2306
16505TIP3    H171006   4.448   5.655   1.512  1.9717  0.7438  0.1930
16505TIP3    H271007   4.520   5.524   1.495  1.0178  0.4026 -1.3185
16506TIP3   OH271008   5.117   2.323  16.309 -0.1784  0.2628 -1.2337
16506TIP3    H171009   5.083   2.237  16.286  0.7516 -0.4238 -0.0588
16506TIP3    H271010   5.210   2.309  16.328 -0.3114  1.2775  0.2788
16507TIP3   OH271011   2.816   0.725  12.155 -0.3248 -0.4386  0.2389
16507TIP3    H171012   2.870   0.649  12.135  1.4391  0.2680  2.1036
16507TIP3    H271013   2.811   0.773  12.073  1.0926 -1.0265 -0.2025
16508TIP3   OH271014   5.453   3.664   5.482 -0.2344 -0.0399  0.1673
16508TIP3    H171015   5.417   3.588   5.529 -1.7184  1.1493  0.9815
16508TIP3    H271016   5.440   3.738   5.541  0.4201  1.0124 -0.9796
16509TIP3   OH271017   4.577   5.915   5.056 -0.7386 -0.5698  1.0956
16509TIP3    H171018   4.626   5.834   5.043  1.2086  0.6214  0.8669
16509TIP3    H271019   4.503   5.908   4.994  1.8120 -0.3040 -2.1453
16510TIP3   OH271020   3.758   4.597  14.556 -0.3601  0.3210  0.1361
16510TIP3    H171021   3.803   4.560  14.480  1.6032  1.4450  0.7251
16510TIP3    H271022   3.789   4.544  14.630 -2.2003 -0.7161  0.1924
16511TIP3   OH271023   3.268   5.990   4.755 -0.5593 -0.4825  0.4386
16511TIP3    H171024   3.226   6.029   4.832  2.7688  0.0489  2.0880
16511TIP3    H271025   3.337   6.052   4.732 -0.7872 -1.1989 -2.3404
16512TIP3   OH271026   4.146   1.921   2.890  0.5233  0.0122  0.0392
16512TIP3    H171027   4.204   1.899   2.818  0.5344 -0.8751  0.3112
16512TIP3    H271028   4.058   1.901   2.857  0.6641 -2.2040  0.8969
16513TIP3   OH271029   0.896   6.277   1.169  0.4138 -0.2181 -0.2261
16513TIP3    H171030   0.945   6.211   1.119  0.1143 -2.5217  2.3725
16513TIP3    H271031   0.956   6.303   1.239  0.3089  1.8923 -0.8883
16514TIP3   OH271032   5.264   0.183  13.662 -0.2300 -0.3547 -0.7387
16514TIP3    H171033   5.276   0.102  13.611  0.7373 -0.8546  0.2417
16514TIP3    H271034   5.261   0.153  13.753  3.1508  0.9189 -0.1064
16515TIP3   OH271035   4.084   3.465   4.984 -0.7705 -0.3307  0.4828
16515TIP3    H171036   4.089   3.400   4.913 -1.7249 -0.8999  0.9150
16515TIP3    H271037   4.174   3.475   5.014 -0.2880  0.2591 -1.1207
16516TIP3   OH271038   5.139   1.460  17.090 -0.3728 -0.0101 -0.1062
16516TIP3    H171039   5.103   1.449  17.178 -0.7618  1.0158 -0.1324
16516TIP3    H271040   5.062   1.474  17.035 -0.1811 -1.3715 -0.7285
16517TIP3   OH271041   1.849   3.671   6.332 -0.2828 -0.0795 -0.1696
16517TIP3    H171042   1.942   3.649   6.321 -0.2734 -0.4867  0.6572
16517TIP3    H271043   1.812   3.596   6.378 -1.0279  0.0805 -0.5020
16518TIP3   OH271044   3.365   4.949  16.038  0.1421  0.3650 -0.4739
16518TIP3    H171045   3.418   4.943  16.118  0.8583  1.8611 -0.8079
16518TIP3    H271046   3.429   4.966  15.969 -0.6204  0.5069 -1.1409
16519TIP3   OH271047   4.001   0.349  12.433 -0.2290 -0.1451  0.6632
16519TIP3    H171048   4.065   0.408  12.393  0.8544 -2.0866 -0.5411
16519TIP3    H271049   3.932   0.340  12.367 -0.6169  0.1006  1.0263
16520TIP3   OH271050   0.511   1.554   1.176 -0.4590 -0.0682 -0.2362
16520TIP3    H171051   0.563   1.611   1.119 -0.2349  0.2848  0.3115
16520TIP3    H271052   0.505   1.471   1.129 -2.5074  1.0110 -2.0047
16521TIP3   OH271053   4.755   5.572   2.307  0.5802  0.1109  0.4841
16521TIP3    H171054   4.722   5.661   2.298  2.8010  1.2136  2.6453
16521TIP3    H271055   4.728   5.545   2.395  0.4319 -1.1197  0.0721
16522TIP3   OH271056   1.226   6.607  14.392 -0.0480 -0.4700  0.5908
16522TIP3    H171057   1.138   6.590  14.357 -0.2117  0.6388  0.4605
16522TIP3    H271058   1.238   6.540  14.459 -2.0855  0.9876  2.5157
16523TIP3   OH271059   4.431   6.308  11.516  0.4374 -0.5236 -0.1445
16523TIP3    H171060   4.376   6.316  11.594  1.3851 -0.8209  0.5585
16523TIP3    H271061   4.374   6.267  11.451 -0.9326  1.3779 -0.2064
16524TIP3   OH271062   3.813   3.474   0.572 -0.1464  0.9376  0.1872
16524TIP3    H171063   3.818   3.407   0.641 -0.0924 -2.5549 -2.9957
16524TIP3    H271064   3.896   3.522   0.579  0.7761 -0.7361  1.2426
16525TIP3   OH271065   4.043   0.875   3.036  0.7375 -0.2192  0.6904
16525TIP3    H171066   4.113   0.939   3.044 -0.1586  0.8671  0.0431
16525TIP3    H271067   4.086   0.790   3.047  1.9283  0.4963  1.5791
16526TIP3   OH271068   5.676   4.033  13.557 -0.0288 -0.2101 -0.3857
16526TIP3    H171069   5.675   4.128  13.549 -1.0371 -0.1030  0.8579
16526TIP3    H271070   5.589   4.011  13.591  0.9291 -1.3580  1.4261
16527TIP3   OH271071   2.796   5.570  10.817 -0.7629 -0.1232  0.1439
16527TIP3    H171072   2.726   5.623  10.856 -1.2818 -0.8155  0.1559
16527TIP3    H271073   2.780   5.481  10.848  0.4342 -0.2017  0.5771
16528TIP3   OH271074   3.096   1.658  15.192 -0.5271 -0.3115  0.7018
16528TIP3    H171075   3.066   1.736  15.144 -0.4912  0.6697  2.2333
16528TIP3    H271076   3.152   1.612  15.130 -0.1596  1.1377 -0.0766
16529TIP3   OH271077   0.734   0.954   5.615 -0.1519 -0.1552  0.0780
16529TIP3    H171078   0.693   0.935   5.700 -0.9771 -1.0382 -0.5161
16529TIP3    H271079   0.828   0.956   5.634 -0.1748 -2.7812  0.5623
16530TIP3   OH271080   0.528   4.840  13.515  0.5008  0.2462 -0.3454
16530TIP3    H171081   0.564   4.759  13.478  0.3891 -0.9299  2.0219
16530TIP3    H271082   0.590   4.908  13.488  1.0743 -0.7520 -1.6358
16531TIP3   OH271083   5.220   1.454  11.936  0.7156 -0.0425  0.7858
16531TIP3    H171084   5.227   1.396  12.012  0.4234  0.0257  0.8654
16531TIP3    H271085   5.142   1.424  11.890 -1.7971  2.7811  2.9573
16532TIP3   OH271086   5.883   1.964  16.361  0.2782  0.0598  0.4182
16532TIP3    H171087   5.963   1.981  16.311 -0.8199  2.9325 -0.5167
16532TIP3    H271088   5.875   2.039  16.420 -1.9297  0.0687  0.1635
16533TIP3   OH271089   3.049   1.134   2.150 -0.2077 -0.4118  0.2546
16533TIP3    H171090   3.045   1.048   2.107  0.7362 -0.4227  0.1762
16533TIP3    H271091   3.011   1.194   2.086 -0.4518 -0.7018  0.1232
16534TIP3   OH271092   5.117   6.570  11.919 -0.4022 -0.0552  0.7740
16534TIP3    H171093   5.143   6.509  11.988 -2.1387  1.4597  2.8766
16534TIP3    H271094   5.032   6.604  11.948  0.8083  3.8833  0.0995
16535TIP3   OH271095   0.491   1.977   5.818 -0.3322 -0.0482 -0.0804
16535TIP3    H171096   0.476   2.009   5.907  0.0354 -2.1423  0.7727
16535TIP3    H271097   0.586   1.974   5.809 -0.3438  2.5983 -1.4900
16536TIP3   OH271098   1.175   1.348  10.820 -0.7991 -0.5691 -0.4710
16536TIP3    H171099   1.136   1.273  10.776 -1.2864  0.4864 -1.8670
16536TIP3    H271100   1.223   1.310  10.894 -1.9950 -2.1381 -0.4751
16537TIP3   OH271101   4.035   4.494  12.611  0.1189 -0.2454 -0.9512
16537TIP3    H171102   4.006   4.405  12.588  2.2852 -1.7758  1.8921
16537TIP3    H271103   4.130   4.492  12.598  0.8922  0.0490  3.7698
16538TIP3   OH271104   3.823   5.852   0.108  0.4557  0.2137 -0.4188
16538TIP3    H171105   3.731   5.865   0.131  0.1420 -0.3439 -1.2941
16538TIP3    H271106   3.823   5.854   0.012  1.0881 -1.5031 -0.4692
16539TIP3   OH271107   5.663   1.887   5.415 -0.0520  0.2704  0.0260
16539TIP3    H171108   5.579   1.884   5.370  0.4563  0.0184 -0.9045
16539TIP3    H271109   5.687   1.980   5.415  0.2003  0.2053 -0.6876
16540TIP3   OH271110   3.192   5.642   0.455 -0.2160  0.0942  0.3617
16540TIP3    H171111   3.272   5.606   0.415 -0.3716  1.6271 -1.3759
16540TIP3    H271112   3.124   5.578   0.432  0.4968 -1.2617  1.9225
16541TIP3   OH271113   6.675   4.820  13.888 -0.7595 -0.8317 -0.6171
16541TIP3    H171114   6.669   4.826  13.793  0.8531 -0.2788 -0.7014
16541TIP3    H271115   6.769   4.826  13.907 -1.2026  1.3256  1.1448
16542TIP3   OH271116   5.275   0.217   4.178  0.3572  0.0214  0.3984
16542TIP3    H171117   5.332   0.174   4.242 -0.6793 -0.5163  0.9726
16542TIP3    H271118   5.186   0.191   4.204 -0.0945  0.0781 -1.0389
16543TIP3   OH271119   5.713   6.704   3.013 -0.4689  0.0582  0.1309
16543TIP3    H171120   5.677   6.639   2.952 -2.7386  1.0347  0.3630
16543TIP3    H271121   5.652   6.778   3.007  1.4890  1.7588  0.6445
16544TIP3   OH271122   4.571   0.956  10.685 -0.8003  0.0739  0.4171
16544TIP3    H171123   4.510   0.979  10.756  0.0469  0.2169  1.1045
16544TIP3    H271124   4.618   1.037  10.667 -1.1673  0.0956 -0.4780
16545TIP3   OH271125   2.546   5.766   6.611  0.7430 -0.1495 -0.1186
16545TIP3    H171126   2.460   5.730   6.587 -0.5223  2.6153  0.0044
16545TIP3    H271127   2.565   5.726   6.696 -1.3440  0.6226  0.7620
16546TIP3   OH271128   6.566   1.204  15.452 -0.2363 -0.0734  0.8083
16546TIP3    H171129   6.548   1.125  15.504 -0.5587  0.1382  1.0206
16546TIP3    H271130   6.492   1.210  15.392  0.3045 -0.5038  0.0928
16547TIP3   OH271131   1.041   2.367  15.815 -0.2353  0.3295  0.0849
16547TIP3    H171132   0.979   2.296  15.833  0.4458 -0.3172 -0.0564
16547TIP3    H271133   1.093   2.375  15.894  0.9405 -0.6375 -0.5659
16548TIP3   OH271134   3.299   5.263  14.891 -0.3011 -0.6789  0.0534
16548TIP3    H171135   3.283   5.177  14.851  2.1647 -1.1601  0.0057
16548TIP3    H271136   3.373   5.248  14.950  1.1112  1.7292 -1.0562
16549TIP3   OH271137   0.140   2.171  12.134  0.0403  0.6272 -0.5806
16549TIP3    H171138   0.211   2.229  12.161  1.4808 -0.3428 -2.1960
16549TIP3    H271139   0.184   2.092  12.102 -1.8510 -0.9003  0.4914
16550TIP3   OH271140   5.193   2.507  16.076  0.4171  0.5971  0.1047
16550TIP3    H171141   5.199   2.430  16.133 -0.5508  0.6511  0.3048
16550TIP3    H271142   5.225   2.477  15.991  2.5317  0.7025  0.8340
16551TIP3   OH271143   0.302   2.028  12.910  0.1389 -0.2248 -0.1811
16551TIP3    H171144   0.359   2.004  12.837 -0.1259 -1.6774  0.0668
16551TIP3    H271145   0.315   1.957  12.974 -0.3238  0.5510  0.7835
16552TIP3   OH271146   1.578   2.889  15.393  0.9711 -0.2025  0.2445
16552TIP3    H171147   1.642   2.822  15.367  3.2819  1.7822  0.6440
16552TIP3    H271148   1.629   2.970  15.398 -2.0672  1.9163 -1.7190
16553TIP3   OH271149   0.560   5.635   1.636  0.3750 -0.0351 -0.1117
16553TIP3    H171150   0.635   5.694   1.627  0.2601  0.2631  0.8279
16553TIP3    H271151   0.538   5.609   1.547  0.3841  1.4007 -0.5317
16554TIP3   OH271152   5.285   0.562  16.436 -0.0140 -0.0932  0.3033
16554TIP3    H171153   5.329   0.632  16.387 -1.6639  0.9391  0.2583
16554TIP3    H271154   5.198   0.596  16.454 -0.9457 -2.2696  0.0572
16555TIP3   OH271155   0.815   3.379   3.645 -0.0777 -0.0957  0.1712
16555TIP3    H171156   0.861   3.317   3.588 -1.4849 -0.8280 -0.1921
16555TIP3    H271157   0.883   3.438   3.676  1.0100 -0.8060 -0.8226
16556TIP3   OH271158   2.611   6.425   1.437 -0.3775 -0.3472  0.2404
16556TIP3    H171159   2.670   6.386   1.373 -0.5098 -0.5082  0.2153
16556TIP3    H271160   2.529   6.378   1.426 -0.7359  0.3795 -0.2430
16557TIP3   OH271161   3.747   3.227  11.451  0.6053  0.1232 -0.3499
16557TIP3    H171162   3.654   3.226  11.474  0.2336  0.1766 -1.7913
16557TIP3    H271163   3.773   3.135  11.450  0.5036  0.0927 -0.2108
16558TIP3   OH271164   2.104   6.193  16.173 -0.5982  0.0904  0.0652
16558TIP3    H171165   2.188   6.212  16.133 -0.4514 -1.9456 -0.6164
16558TIP3    H271166   2.125   6.147  16.254 -1.0576 -0.8921 -0.3653
16559TIP3   OH271167   1.429   5.625  17.074  0.0306 -0.2170  0.0379
16559TIP3    H171168   1.415   5.588  16.986 -1.6717 -0.4901  0.4069
16559TIP3    H271169   1.356   5.686  17.086  0.9275  0.7092  0.7969
16560TIP3   OH271170   3.527   0.625   6.101  0.4437 -0.6902  0.2565
16560TIP3    H171171   3.554   0.702   6.050 -0.0458 -1.2828 -0.9294
16560TIP3    H271172   3.444   0.652   6.141 -0.6633 -1.1996 -1.6311
16561TIP3   OH271173   2.056   0.232   5.832  0.0447 -0.4680  0.0739
16561TIP3    H171174   2.084   0.165   5.895 -0.0724 -1.1323 -0.5760
16561TIP3    H271175   2.096   0.313   5.864 -0.2584 -0.7517  1.1646
16562TIP3   OH271176   0.238   3.423   4.050  0.3477  0.2158  0.3727
16562TIP3    H171177   0.201   3.461   3.970 -0.9811 -1.0588  0.3605
16562TIP3    H271178   0.259   3.333   4.027  2.3266  0.5697  0.7496
16563TIP3   OH271179   5.559   4.132   3.571  0.2256 -0.6157  0.0149
16563TIP3    H171180   5.627   4.200   3.578 -3.2208  2.8610  2.1688
16563TIP3    H271181   5.528   4.139   3.481 -0.6946  1.4110  0.4416
16564TIP3   OH271182   4.057   0.799  11.575 -0.1308 -0.0576  0.3830
16564TIP3    H171183   3.992   0.869  11.589  0.8160  0.7884  0.5880
16564TIP3    H271184   4.009   0.718  11.595 -1.6873  0.4037 -1.3508
16565TIP3   OH271185   4.593   0.678   3.890 -0.2416  0.3918  0.3898
16565TIP3    H171186   4.575   0.679   3.795 -0.8006  0.2644  0.4903
16565TIP3    H271187   4.583   0.586   3.915 -1.2374  0.6069  0.7843
16566TIP3   OH271188   4.117   0.597  13.576 -0.3538 -0.1007  0.0862
16566TIP3    H171189   4.050   0.655  13.612  1.2217  1.9752 -0.2589
16566TIP3    H271190   4.198   0.622  13.621  0.3409 -2.0749 -0.0331
16567TIP3   OH271191   6.355   1.819  14.932  0.7094  0.3834 -0.8053
16567TIP3    H171192   6.352   1.897  14.989 -2.0821  0.2252 -0.6591
16567TIP3    H271193   6.347   1.745  14.992  0.2543  0.1064 -1.2059
16568TIP3   OH271194   2.157   5.991   2.723  0.0062  0.0552 -0.4963
16568TIP3    H171195   2.145   5.912   2.776  0.3270  0.2744 -0.0903
16568TIP3    H271196   2.141   5.963   2.633 -1.8021 -0.0419 -0.1659
16569TIP3   OH271197   1.838   1.594  13.374  0.1659  0.1380  0.8996
16569TIP3    H171198   1.860   1.668  13.431  2.1017 -0.1897  0.6136
16569TIP3    H271199   1.745   1.606  13.354  0.0831  1.6447  2.0883
16570TIP3   OH271200   3.038   5.930   5.533 -0.5223 -0.2150  0.0852
16570TIP3    H171201   3.019   5.900   5.445 -1.0482 -1.7073  0.6957
16570TIP3    H271202   3.010   5.858   5.590 -1.1686  1.1510  1.5301
16571TIP3   OH271203   1.207   1.538   3.138  0.0973  0.0494  0.0557
16571TIP3    H171204   1.199   1.458   3.189  0.1382  0.3642  0.5515
16571TIP3    H271205   1.201   1.609   3.202 -1.5290  0.4909 -0.5495
16572TIP3   OH271206   1.425   1.275  15.700 -0.8090  0.8423 -0.3103
16572TIP3    H171207   1.403   1.321  15.618 -0.5979 -0.2961 -1.0073
16572TIP3    H271208   1.504   1.226  15.680 -1.1400  0.0164  0.3807
16573TIP3   OH271209   2.831   4.763   5.159  0.9809  0.0826  0.0509
16573TIP3    H171210   2.777   4.693   5.195  2.4536 -0.7511  0.6665
16573TIP3    H271211   2.896   4.781   5.226  0.3285  2.4225  0.1194
16574TIP3   OH271212   3.896   1.636  11.652  0.5898 -0.1877 -0.4027
16574TIP3    H171213   3.849   1.717  11.636  0.7849 -0.4055 -2.1819
16574TIP3    H271214   3.988   1.656  11.633  0.9113 -0.3517  0.9091
16575TIP3   OH271215   1.246   0.771  15.841 -0.1426  0.3584  0.7342
16575TIP3    H171216   1.255   0.848  15.785 -2.1889  0.6956  0.8411
16575TIP3    H271217   1.335   0.736  15.848  0.4801  1.5605 -0.9371
16576TIP3   OH271218   1.097   5.833   1.151 -0.0043  0.1863 -0.3932
16576TIP3    H171219   1.179   5.806   1.109 -0.0658  0.1987 -0.5206
16576TIP3    H271220   1.066   5.754   1.196  0.2127  0.2513 -0.1241
16577TIP3   OH271221   5.385   3.427  11.321 -0.8549  0.0895 -0.1168
16577TIP3    H171222   5.434   3.373  11.259 -0.4190  0.0246  0.2776
16577TIP3    H271223   5.425   3.514  11.313  0.1696 -0.2621  1.1216
16578TIP3   OH271224   2.654   0.757   4.123 -0.3512 -0.6713  0.1519
16578TIP3    H171225   2.676   0.671   4.088 -2.2629 -1.2973  0.4439
16578TIP3    H271226   2.620   0.740   4.210 -0.4600  0.4181  0.3340
16579TIP3   OH271227   4.683   0.606   3.220  0.1194 -0.1747 -0.4345
16579TIP3    H171228   4.638   0.645   3.146  1.6801  0.4180 -1.1024
16579TIP3    H271229   4.776   0.615   3.199  0.5477 -2.8135  0.1403
16580TIP3   OH271230   5.435   5.576   5.928 -0.1420  0.0968  0.1326
16580TIP3    H171231   5.417   5.627   6.007 -0.8810 -0.3242  0.2396
16580TIP3    H271232   5.510   5.522   5.952 -1.9054 -1.8474  1.3918
16581TIP3   OH271233   3.290   3.087  15.164  0.5643  0.7749  0.0712
16581TIP3    H171234   3.266   3.073  15.073 -2.2966 -0.6161  0.9734
16581TIP3    H271235   3.263   3.177  15.183  0.9290  0.9783 -0.3738
16582TIP3   OH271236   6.058   4.899  15.098  0.3889 -0.4594 -0.3417
16582TIP3    H171237   6.042   4.823  15.154  1.1171 -0.7798 -0.5700
16582TIP3    H271238   6.152   4.915  15.106  0.5439 -0.6645 -1.6835
16583TIP3   OH271239   2.603   1.550   2.241 -0.2519 -0.3081  0.0416
16583TIP3    H171240   2.542   1.484   2.274 -1.1770  0.5319  0.0433
16583TIP3    H271241   2.558   1.633   2.255  0.2621  0.2175 -1.3233
16584TIP3   OH271242   0.051   5.651  13.362 -0.4133 -0.5547  0.8027
16584TIP3    H171243   0.093   5.573  13.398  0.5755  0.0596  1.0015
16584TIP3    H271244  -0.030   5.659  13.412 -1.3881 -2.4449 -0.4336
16585TIP3   OH271245   5.085   4.491  11.930 -0.1931 -0.0282 -0.7868
16585TIP3    H171246   5.175   4.460  11.928 -0.1955 -0.0010 -1.3138
16585TIP3    H271247   5.035   4.422  11.886 -0.5581 -0.4630  0.2777
16586TIP3   OH271248   0.152   5.290  13.041 -0.0951  0.1142 -0.5550
16586TIP3    H171249   0.123   5.358  12.981  2.0917 -0.2252 -2.0436
16586TIP3    H271250   0.246   5.304  13.050 -0.0333 -1.1886  1.0868
16587TIP3   OH271251   1.618   0.728   5.490 -0.6177  0.1146 -0.4002
16587TIP3    H171252   1.564   0.653   5.517 -0.2796  0.0578  0.1111
16587TIP3    H271253   1.554   0.792   5.459 -1.2080  1.0122  2.4884
16588TIP3   OH271254   3.375   5.932  14.168  0.2529  0.2435  0.2836
16588TIP3    H171255   3.426   6.013  14.163 -0.6022  0.7162 -1.0033
16588TIP3    H271256   3.415   5.875  14.102  1.9306 -1.0316  2.3313
16589TIP3   OH271257   1.343   0.455  11.248  0.1678 -0.0768  0.1637
16589TIP3    H171258   1.255   0.420  11.234  0.8173 -1.7537  0.1034
16589TIP3    H271259   1.376   0.405  11.323  1.7226 -0.7392 -0.9465
16590TIP3   OH271260   3.882   1.467   5.452 -0.0529 -0.0433 -0.2923
16590TIP3    H171261   3.836   1.407   5.510  0.3770 -0.1267 -0.0357
16590TIP3    H271262   3.958   1.417   5.422  0.6275  0.5725  0.3893
16591TIP3   OH271263   3.339   5.177  12.152 -0.3340 -0.8389 -0.2137
16591TIP3    H171264   3.332   5.175  12.056  1.6027 -0.5996 -0.3820
16591TIP3    H271265   3.291   5.100  12.181 -1.7396 -0.4019 -1.3235
16592TIP3   OH271266   5.271   1.260  16.144  0.5232  0.9253  0.0875
16592TIP3    H171267   5.189   1.265  16.193  1.4734  0.8576  1.6870
16592TIP3    H271268   5.243   1.239  16.054 -1.1788  0.5476  0.6817
16593TIP3   OH271269   5.598   5.895  14.527  0.9623 -0.5386 -0.3684
16593TIP3    H171270   5.534   5.828  14.552  1.0496 -0.8392 -0.9637
16593TIP3    H271271   5.674   5.846  14.498  1.3271 -0.1781 -0.0208
16594TIP3   OH271272   1.824   3.663  15.344 -0.3647  0.1056  0.1104
16594TIP3    H171273   1.847   3.737  15.288 -1.0799  1.9817  2.2092
16594TIP3    H271274   1.783   3.600  15.285  0.0914  1.4579 -1.6901
16595TIP3   OH271275   1.699   5.155   4.056 -0.0490  0.0246 -0.0237
16595TIP3    H171276   1.720   5.202   3.975 -0.2707  1.1621  0.5653
16595TIP3    H271277   1.675   5.224   4.118 -0.5507 -0.8883  0.8089
16596TIP3   OH271278   5.149   5.886  12.826  0.8734  0.0032 -0.6814
16596TIP3    H171279   5.139   5.796  12.793 -0.1147 -1.2997  2.9207
16596TIP3    H271280   5.242   5.893  12.847  1.1854  0.2750 -2.0803
16597TIP3   OH271281   0.738   1.177  15.714  0.0415  0.6932 -0.2037
16597TIP3    H171282   0.711   1.123  15.788  2.4234  1.3935  1.2201
16597TIP3    H271283   0.657   1.219  15.684 -1.4704 -1.8854  0.0684
16598TIP3   OH271284   2.196   0.004  11.508 -0.0731  0.0771  0.0047
16598TIP3    H171285   2.268   0.067  11.503  0.5163 -0.7175 -2.4199
16598TIP3    H271286   2.117   0.058  11.510  0.4911  0.9144  0.5239
16599TIP3   OH271287   5.358   3.669  11.714 -0.3221 -0.2193 -0.0869
16599TIP3    H171288   5.273   3.706  11.695 -0.2849  1.0647  2.0395
16599TIP3    H271289   5.361   3.587  11.665 -3.0345 -0.6033  0.3390
16600TIP3   OH271290   6.412   6.655  13.989 -0.1815  0.6876  0.2359
16600TIP3    H171291   6.460   6.627  14.067  0.3033 -0.3930 -0.4537
16600TIP3    H271292   6.426   6.750  13.985 -0.5933  0.8322  1.7209
16601TIP3   OH271293   0.253   0.132  11.382 -0.3771  0.3745 -0.1448
16601TIP3    H171294   0.216   0.072  11.318 -1.9060 -0.1509  1.1948
16601TIP3    H271295   0.289   0.075  11.451 -1.7442  0.9405  1.0790
16602TIP3   OH271296   6.587   3.647  15.140 -0.2106  0.0473  0.0131
16602TIP3    H171297   6.673   3.623  15.107 -0.4404 -2.7157  1.3130
16602TIP3    H271298   6.598   3.653  15.235 -0.9584  1.9335  0.0125
16603TIP3   OH271299   1.762   5.331  14.243 -0.2467 -0.2807  0.5607
16603TIP3    H171300   1.746   5.301  14.153  1.9889 -1.3518  0.4667
16603TIP3    H271301   1.809   5.258  14.283  1.8025  1.5409  1.5607
16604TIP3   OH271302   3.558   4.422  17.245 -0.6682 -0.2409  0.4292
16604TIP3    H171303   3.560   4.375  17.161 -1.1523  0.3640  0.0680
16604TIP3    H271304   3.531   4.510  17.221  0.5258  0.3040  1.0660
16605TIP3   OH271305   2.420   3.154   4.846 -0.1584 -0.1993 -0.0508
16605TIP3    H171306   2.435   3.227   4.786 -1.3683  0.9255  0.9939
16605TIP3    H271307   2.506   3.137   4.885  0.2544  0.2619 -0.7317
16606TIP3   OH271308   4.091   2.376  14.477  0.1950 -0.4708 -0.6835
16606TIP3    H171309   4.138   2.456  14.455  0.5010 -0.1959  0.8839
16606TIP3    H271310   4.083   2.329  14.394 -0.5844  1.4891 -1.7577
16607TIP3   OH271311   2.503   6.470   1.787  0.7123  0.0197 -0.3788
16607TIP3    H171312   2.468   6.466   1.698  0.5050 -0.2491 -0.2881
16607TIP3    H271313   2.457   6.400   1.834  0.5622  0.3881  0.0302
16608TIP3   OH271314   3.466   3.019   4.201  0.4849 -0.6959  0.0561
16608TIP3    H171315   3.500   2.962   4.133 -0.0490 -0.1991 -0.6264
16608TIP3    H271316   3.371   3.014   4.194  0.4224  0.9436 -0.5949
16609TIP3   OH271317   4.410   0.278   5.316 -0.4014 -0.2067  0.7114
16609TIP3    H171318   4.411   0.250   5.225 -1.0967  0.1626  0.5833
16609TIP3    H271319   4.447   0.367   5.314  1.1574 -0.8240  1.0220
16610TIP3   OH271320   5.219   2.662  10.501 -0.0502 -0.0034 -0.0802
16610TIP3    H171321   5.226   2.627  10.412  1.6284 -1.2229  0.5099
16610TIP3    H271322   5.221   2.584  10.557  1.5412  0.9043  1.1537
16611TIP3   OH271323   2.572   3.421   1.461  0.3476  0.4148  0.1743
16611TIP3    H171324   2.536   3.504   1.430  0.5108 -0.0841 -1.4062
16611TIP3    H271325   2.665   3.439   1.477  0.2358  0.7133  0.4686
16612TIP3   OH271326   0.263   4.874   4.711  0.7099  0.0288  0.3588
16612TIP3    H171327   0.177   4.858   4.748  0.6264  0.5386  0.3945
16612TIP3    H271328   0.258   4.963   4.676  0.2934 -1.0157 -2.2990
16613TIP3   OH271329   1.101   2.950   0.374  0.3282 -0.8711  0.3880
16613TIP3    H171330   1.114   3.010   0.300 -1.6253 -1.5533 -0.5508
16613TIP3    H271331   1.011   2.968   0.403  0.4212 -1.9605  1.3679
16614TIP3   OH271332   0.076   1.172  10.415  0.0870  0.1561  0.0496
16614TIP3    H171333  -0.015   1.144  10.409 -0.0316  0.5225  0.1828
16614TIP3    H271334   0.119   1.128  10.341  0.1304 -1.3049  0.9209
16615TIP3   OH271335   0.359   3.369  16.877 -0.7810 -0.1922  0.3494
16615TIP3    H171336   0.389   3.453  16.913 -0.9520  1.0953 -2.3764
16615TIP3    H271337   0.427   3.344  16.815 -0.4307 -2.4441  1.5630
16616TIP3   OH271338   2.214   6.062  13.134  0.8962  0.3533 -0.1406
16616TIP3    H171339   2.257   6.002  13.075  1.8269  2.1149 -1.3069
16616TIP3    H271340   2.285   6.103  13.184  0.1081 -1.5511  2.6927
16617TIP3   OH271341   4.991   5.645  14.461 -0.2559 -0.2356  0.5065
16617TIP3    H171342   5.064   5.704  14.444 -1.9121  2.0289  0.9862
16617TIP3    H271343   5.005   5.615  14.550  0.1754  0.0941  0.5514
16618TIP3   OH271344   4.933   2.151   2.259 -0.0056  0.3727 -0.1333
16618TIP3    H171345   5.022   2.134   2.228 -0.1472  0.0862 -0.3921
16618TIP3    H271346   4.877   2.105   2.196 -0.2525 -1.1680  1.2008
16619TIP3   OH271347   2.165   5.367  11.259  0.2454 -0.7071  0.7094
16619TIP3    H171348   2.126   5.368  11.346  1.0047  0.4038  1.0518
16619TIP3    H271349   2.172   5.460  11.234 -1.5664 -1.0565 -1.2629
16620TIP3   OH271350   4.098   2.555   1.166 -0.4599 -0.4135  0.1425
16620TIP3    H171351   4.131   2.536   1.254 -1.1188 -1.2174  0.2189
16620TIP3    H271352   4.009   2.586   1.181 -0.4870 -0.3201 -0.2290
16621TIP3   OH271353   1.836   1.961   5.275  0.1497  0.4850  0.3592
16621TIP3    H171354   1.853   2.002   5.359 -1.8198  1.4537  0.3231
16621TIP3    H271355   1.896   1.886   5.271  3.3070  2.9290  0.7340
16622TIP3   OH271356   6.030   6.513  14.191  0.0321  0.0900 -0.6954
16622TIP3    H171357   5.967   6.463  14.244 -0.2173  1.8771  0.7395
16622TIP3    H271358   6.112   6.509  14.241  0.0259  1.0595 -0.5935
16623TIP3   OH271359   5.356   5.150  15.652 -0.0928  0.1562  0.4564
16623TIP3    H171360   5.397   5.196  15.725  1.9969 -0.9695  0.0163
16623TIP3    H271361   5.323   5.069  15.690  0.8839 -0.3721  0.2013
16624TIP3   OH271362   0.226   3.627  12.940 -0.7772 -0.1928 -0.4793
16624TIP3    H171363   0.294   3.559  12.945  0.3333  0.8211 -1.4303
16624TIP3    H271364   0.255   3.695  13.000 -1.6246 -0.3020  0.0722
16625TIP3   OH271365   3.072   1.783   0.333 -0.1712  0.3464  0.2614
16625TIP3    H171366   3.020   1.846   0.384 -1.1057  0.3718 -0.7083
16625TIP3    H271367   3.146   1.834   0.300  0.4472  0.3291  1.5880
16626TIP3   OH271368   4.777   0.598   4.130 -0.4312 -0.5180  0.2473
16626TIP3    H171369   4.822   0.668   4.177 -0.5541 -0.5853  0.4644
16626TIP3    H271370   4.807   0.607   4.039 -2.4370  1.4180 -0.2479
16627TIP3   OH271371   4.244   5.271   6.656  0.1970 -0.3641  0.6163
16627TIP3    H171372   4.318   5.238   6.605  0.6311  0.1573  0.9090
16627TIP3    H271373   4.282   5.295   6.741 -0.1861  0.5014  0.5493
16628TIP3   OH271374   0.606   4.867  13.956  0.5201 -0.2206  0.1411
16628TIP3    H171375   0.621   4.940  13.897  2.9370 -0.6786  0.1584
16628TIP3    H271376   0.512   4.870  13.974  0.0813  1.0582 -2.1977
16629TIP3   OH271377   0.936   3.416  12.957 -0.8593 -0.4160  0.3889
16629TIP3    H171378   0.990   3.494  12.942 -0.8811 -0.3260  0.7742
16629TIP3    H271379   0.922   3.380  12.870  0.6903 -1.0240  0.3692
16630TIP3   OH271380   4.946   2.926   0.720  0.1562  0.2152  0.0551
16630TIP3    H171381   5.006   2.970   0.659  0.5137 -0.9858 -0.4905
16630TIP3    H271382   4.982   2.837   0.728 -1.1926 -0.3307  0.2225
16631TIP3   OH271383   1.775   5.312  16.693 -0.2621  0.1530 -0.6163
16631TIP3    H171384   1.792   5.377  16.625 -0.3499  0.7724 -0.0556
16631TIP3    H271385   1.850   5.319  16.752 -0.9307  0.7154  0.1868
16632TIP3   OH271386   2.769   6.166   2.372 -0.1446  0.1203  0.4006
16632TIP3    H171387   2.690   6.208   2.406 -0.0812 -0.3058  1.0918
16632TIP3    H271388   2.824   6.152   2.450  0.8930  0.9995 -0.1543
16633TIP3   OH271389   1.601   0.612   4.252  0.1192  0.8084  0.4768
16633TIP3    H171390   1.519   0.643   4.290 -1.0920 -1.3354 -0.2984
16633TIP3    H271391   1.576   0.538   4.197  2.4054  0.9975 -0.9203
16634TIP3   OH271392   2.246   5.226  13.757  0.2250 -0.0476 -0.4005
16634TIP3    H171393   2.276   5.135  13.764  1.2590  0.3992  1.1663
16634TIP3    H271394   2.320   5.273  13.719  0.7407  0.6498  1.4169
16635TIP3   OH271395   5.617   6.658   5.055 -0.5500 -0.8795  0.1999
16635TIP3    H171396   5.617   6.714   5.133 -0.4720 -0.0269 -0.4050
16635TIP3    H271397   5.659   6.711   4.987 -1.6508 -1.1785 -0.7323
16636TIP3   OH271398   5.242   1.644   1.441 -0.2365 -0.8769 -0.0709
16636TIP3    H171399   5.208   1.556   1.459  1.0486 -1.6181 -1.1658
16636TIP3    H271400   5.332   1.629   1.411 -0.3160  0.7447 -1.1609
16637TIP3   OH271401   6.241   6.596  14.396 -0.3903 -0.4791  0.2448
16637TIP3    H171402   6.322   6.623  14.352 -0.8109  1.4403  0.5947
16637TIP3    H271403   6.211   6.675  14.441 -0.9002 -1.9239  2.5617
16638TIP3   OH271404   5.302   2.587  12.421  0.8477  0.3293 -0.3153
16638TIP3    H171405   5.283   2.500  12.456  0.9117 -0.3583 -1.9312
16638TIP3    H271406   5.352   2.570  12.341 -0.9092  1.7612 -1.7675
16639TIP3   OH271407   0.019   6.366   3.701  0.1474  0.4082  0.6480
16639TIP3    H171408   0.015   6.273   3.680  2.1673 -0.0126  2.0065
16639TIP3    H271409  -0.062   6.402   3.666 -0.7159 -1.8780  0.2301
16640TIP3   OH271410   4.373   4.818  14.135  0.1429 -0.1809 -0.2226
16640TIP3    H171411   4.401   4.741  14.084 -0.3851 -1.4243  1.3345
16640TIP3    H271412   4.356   4.885  14.069 -2.7129 -2.4482 -1.9176
16641TIP3   OH271413   3.625   6.529  14.094  0.5757 -0.4510 -0.2824
16641TIP3    H171414   3.614   6.622  14.076  0.8496  0.3451  3.3783
16641TIP3    H271415   3.683   6.498  14.025  0.9908  2.2043 -1.1842
16642TIP3   OH271416   1.341   4.211   4.027 -0.4161 -0.3595  0.1176
16642TIP3    H171417   1.293   4.151   4.085 -1.3281  0.3023  0.0534
16642TIP3    H271418   1.316   4.298   4.058  0.3052 -0.0114 -0.2874
16643TIP3   OH271419   5.235   4.724   1.024  0.0703  0.0684 -0.3715
16643TIP3    H171420   5.295   4.799   1.026  1.5912 -1.1053 -0.6488
16643TIP3    H271421   5.206   4.720   0.933 -0.5852  0.7530 -0.1966
16644TIP3   OH271422   0.453   0.826  15.874  0.4804 -1.0280 -0.3866
16644TIP3    H171423   0.502   0.802  15.795 -2.6827  0.3327 -2.8958
16644TIP3    H271424   0.394   0.752  15.890  1.6542 -1.6469  1.2270
16645TIP3   OH271425   4.180   3.716  15.704  0.1549  0.2047 -0.1107
16645TIP3    H171426   4.135   3.658  15.765 -2.1736  1.8426 -0.1639
16645TIP3    H271427   4.258   3.668  15.677 -1.8875 -3.0502 -0.4791
16646TIP3   OH271428   3.035   0.611  16.443  0.3240 -0.0912  0.0662
16646TIP3    H171429   3.034   0.537  16.504 -0.0712 -0.4208 -0.3404
16646TIP3    H271430   3.103   0.669  16.477 -0.2231 -0.0425  1.1142
16647TIP3   OH271431   6.096   5.787   1.176  0.0426  0.3855  0.4846
16647TIP3    H171432   6.190   5.776   1.158 -0.0199 -1.4739  1.1206
16647TIP3    H271433   6.070   5.703   1.215 -1.7940  1.0469  0.7114
16648TIP3   OH271434   2.163   4.474  16.786 -0.0616  0.3453  0.5411
16648TIP3    H171435   2.129   4.550  16.834 -1.4350 -1.8296  3.1705
16648TIP3    H271436   2.201   4.418  16.854  0.8638 -1.3738 -1.3342
16649TIP3   OH271437   3.105   6.506   4.086 -0.5330  0.5997  0.2892
16649TIP3    H171438   3.130   6.494   4.178 -0.6355 -1.8714  0.0253
16649TIP3    H271439   3.020   6.463   4.079 -0.7367  1.1778 -0.8666
16650TIP3   OH271440   1.108   4.214   1.218 -1.0455 -0.1583 -0.1784
16650TIP3    H171441   1.113   4.213   1.122 -1.3843  2.2255 -0.2448
16650TIP3    H271442   1.200   4.217   1.246 -0.9764  0.2988 -0.4508
16651TIP3   OH271443   0.362   5.890  16.779 -0.6225  0.2495  0.2438
16651TIP3    H171444   0.346   5.818  16.840 -0.2278  0.0196  0.0745
16651TIP3    H271445   0.341   5.969  16.829  1.2969  0.1605  1.2293
16652TIP3   OH271446   0.954   3.173   3.475 -0.3516  0.3130 -0.1768
16652TIP3    H171447   0.886   3.106   3.477 -0.9752  0.9489  0.4331
16652TIP3    H271448   1.008   3.151   3.400 -0.1281 -1.2941  0.4341
16653TIP3   OH271449   1.476   4.037   2.375  0.6251  0.1647  0.2208
16653TIP3    H171450   1.531   3.963   2.351  0.5071  0.4385 -0.9125
16653TIP3    H271451   1.434   4.064   2.293 -0.7475  0.3300  0.9473
16654TIP3   OH271452   1.652   2.254   1.860  0.0870 -0.2632 -0.5721
16654TIP3    H171453   1.648   2.339   1.817 -0.1862 -1.0019 -2.0513
16654TIP3    H271454   1.746   2.233   1.863  0.0656 -0.4692 -1.3337
16655TIP3   OH271455   1.218   5.471  11.922  0.3021  0.2575 -0.0076
16655TIP3    H171456   1.140   5.437  11.879  0.9985 -0.4718 -0.7387
16655TIP3    H271457   1.217   5.565  11.904 -1.0739  0.4657  1.1001
16656TIP3   OH271458   3.206   3.793  15.253 -0.5060  0.9034  0.2477
16656TIP3    H171459   3.184   3.835  15.336 -0.2273 -0.4447  1.0180
16656TIP3    H271460   3.281   3.737  15.273  0.1255  1.2346 -1.1154
16657TIP3   OH271461   0.645   4.037   6.289  0.4021  0.8434  0.2388
16657TIP3    H171462   0.624   4.080   6.372  3.2788  0.5394  1.1991
16657TIP3    H271463   0.711   3.971   6.312 -2.2848 -2.6149 -1.5424
16658TIP3   OH271464   4.173   1.104   6.005 -0.4673  0.3488  0.5452
16658TIP3    H171465   4.258   1.062   6.018  0.1839  0.8591 -1.7578
16658TIP3    H271466   4.112   1.032   5.987 -0.6702 -0.0632  2.7454
16659TIP3   OH271467   3.200   4.369  16.329  0.0339  0.5144 -0.1461
16659TIP3    H171468   3.262   4.441  16.323  0.9161  0.0346  2.4668
16659TIP3    H271469   3.127   4.404  16.381 -0.5302  0.1959 -0.7198
16660TIP3   OH271470   2.578   4.842   0.626 -0.3152  0.7857 -0.2090
16660TIP3    H171471   2.573   4.830   0.532 -2.3341 -0.3742  0.0192
16660TIP3    H271472   2.487   4.846   0.655  0.2756  1.2476  1.6791
16661TIP3   OH271473   6.777   2.067  12.307  0.0383 -0.6837  0.1762
16661TIP3    H171474   6.865   2.105  12.306 -1.2800  2.4997  0.3185
16661TIP3    H271475   6.758   2.053  12.399  0.6341 -1.9905  0.1086
16662TIP3   OH271476   1.166   5.787   2.135 -0.3040  0.0883  0.5549
16662TIP3    H171477   1.219   5.707   2.138 -0.4467 -0.0171  0.2863
16662TIP3    H271478   1.219   5.850   2.087 -1.6023 -0.9110 -2.3496
16663TIP3   OH271479   5.175   3.996  15.786  0.0154 -0.2970  0.0158
16663TIP3    H171480   5.214   4.083  15.783  0.5413 -0.5547 -0.6604
16663TIP3    H271481   5.150   3.976  15.696 -1.4861 -0.2343  0.4051
16664TIP3   OH271482   0.884   3.504   1.433 -0.2518  0.0158  0.1531
16664TIP3    H171483   0.949   3.464   1.492 -0.8191 -2.4778 -0.8437
16664TIP3    H271484   0.804   3.508   1.485  0.2584  1.5531  0.8419
16665TIP3   OH271485   6.014   3.436   1.860  0.6588 -0.3148  0.2066
16665TIP3    H171486   5.929   3.400   1.887  1.2352 -0.7177  1.5306
16665TIP3    H271487   6.024   3.515   1.913 -0.0144  1.1376 -1.7652
16666TIP3   OH271488   3.846   4.849  14.895 -0.2011 -0.4462 -0.4984
16666TIP3    H171489   3.810   4.768  14.930  0.1768 -0.6785 -0.6355
16666TIP3    H271490   3.842   4.912  14.967 -1.7480 -0.1979 -0.8019
16667TIP3   OH271491   4.652   5.063   1.881  0.2538  0.6140 -0.1335
16667TIP3    H171492   4.735   5.032   1.916  0.6971  2.3615  0.4465
16667TIP3    H271493   4.674   5.145   1.836 -1.0346  0.7096 -0.6171
16668TIP3   OH271494   6.420   0.539   3.993  0.9393 -0.0105 -0.0733
16668TIP3    H171495   6.382   0.571   4.074  3.5656  2.0448  0.4255
16668TIP3    H271496   6.404   0.444   3.994 -3.1696  0.6281  0.5095
16669TIP3   OH271497   2.471   1.637   3.939  0.3719 -0.9018  0.3440
16669TIP3    H171498   2.479   1.575   3.866  0.8885  1.2938 -1.5018
16669TIP3    H271499   2.560   1.647   3.972  0.3129 -0.9918  0.5332
16670TIP3   OH271500   0.625   2.233   3.290 -0.2706 -0.0606 -0.3486
16670TIP3    H171501   0.605   2.229   3.383 -0.3288 -2.0247 -0.4206
16670TIP3    H271502   0.542   2.259   3.249 -0.2929  0.6283  0.1218
16671TIP3   OH271503   0.393   1.133   2.696  0.0776  0.5782 -0.0592
16671TIP3    H171504   0.461   1.200   2.703 -0.3758  1.0030  0.3175
16671TIP3    H271505   0.330   1.156   2.764  1.2417 -1.8121  1.8911
16672TIP3   OH271506   1.540   1.378  12.287 -0.7628  0.5744 -0.1035
16672TIP3    H171507   1.515   1.427  12.209 -1.1105  1.0447  0.2952
16672TIP3    H271508   1.635   1.389  12.293 -0.6573  0.0393 -0.7888
16673TIP3   OH271509   3.941   6.216  15.374 -0.1834 -0.0026  0.2571
16673TIP3    H171510   3.985   6.282  15.426 -1.2186 -0.9779  2.4174
16673TIP3    H271511   3.986   6.134  15.396  0.1719 -0.2502 -1.3223
16674TIP3   OH271512   0.152   3.400  13.130  0.1723 -0.0077  0.0343
16674TIP3    H171513   0.119   3.313  13.154 -0.8352 -0.3599 -2.4100
16674TIP3    H271514   0.164   3.446  13.213 -1.5563 -1.6954  1.2437
16675TIP3   OH271515   4.170   4.155   4.641  0.0313  0.1187  0.0640
16675TIP3    H171516   4.103   4.155   4.573  0.4032  1.5148 -0.3206
16675TIP3    H271517   4.155   4.235   4.690  2.5609  1.4117 -1.2021
16676TIP3   OH271518   1.276   3.724   4.719  0.4201 -0.1431 -0.1018
16676TIP3    H171519   1.292   3.793   4.654  0.0201 -0.0793 -0.1321
16676TIP3    H271520   1.181   3.723   4.730  0.5211  0.2772  0.9356
16677TIP3   OH271521   3.941   5.476  11.005  0.1792 -0.0398 -0.4510
16677TIP3    H171522   3.918   5.508  10.918  0.1518  1.2976  0.0325
16677TIP3    H271523   3.965   5.384  10.992 -1.0766 -0.2158 -1.6604
16678TIP3   OH271524   3.967   6.274   0.129 -0.3477  0.3229 -0.2018
16678TIP3    H171525   3.882   6.230   0.134 -0.0225 -0.2573  0.2401
16678TIP3    H271526   4.028   6.212   0.168  0.0634  1.3048  0.7130
16679TIP3   OH271527   6.606   6.270   0.425 -0.2496  0.4347 -0.2881
16679TIP3    H171528   6.667   6.233   0.362 -0.1797  1.2380 -0.6944
16679TIP3    H271529   6.519   6.255   0.387 -0.1714  1.5614 -0.9239
16680TIP3   OH271530   0.556   4.404   4.869  0.3067 -0.3926  0.0664
16680TIP3    H171531   0.628   4.424   4.929  0.9575 -0.3060 -0.7420
16680TIP3    H271532   0.568   4.464   4.796  0.9606 -2.1361 -1.3079
16681TIP3   OH271533   2.469   0.880  15.679  0.5253 -0.2282 -0.2455
16681TIP3    H171534   2.561   0.891  15.654  0.1082  1.7604 -0.9591
16681TIP3    H271535   2.451   0.953  15.737 -1.1907  0.6351 -1.8124
16682TIP3   OH271536   6.616   6.694  12.818  0.0898 -0.6604  0.0662
16682TIP3    H171537   6.617   6.704  12.913 -0.2356 -0.9369  0.1019
16682TIP3    H271538   6.697   6.734  12.788  0.0682 -0.3429  0.4390
16683TIP3   OH271539   5.164   0.888  11.543 -0.0656  0.2011 -0.2732
16683TIP3    H171540   5.095   0.891  11.476  0.5520 -1.2304 -0.9964
16683TIP3    H271541   5.203   0.975  11.542  0.4847 -0.0500 -2.3766
16684TIP3   OH271542   6.675   5.312  12.628  0.1004 -0.4499  0.0793
16684TIP3    H171543   6.656   5.246  12.560  0.0282 -1.1584  0.7816
16684TIP3    H271544   6.632   5.392  12.596 -0.7375 -1.0231 -0.2644
16685TIP3   OH271545   6.302   4.397  12.778  0.1563  0.0539 -0.4287
16685TIP3    H171546   6.373   4.333  12.789 -0.0235 -0.3048 -1.3335
16685TIP3    H271547   6.344   4.482  12.792 -0.0117 -0.3368  2.8846
16686TIP3   OH271548   0.178   3.134  13.470 -0.1906 -0.6931 -0.1213
16686TIP3    H171549   0.211   3.224  13.468 -0.0476 -0.7386  0.1644
16686TIP3    H271550   0.254   3.079  13.451  0.4466 -0.9318  2.8006
16687TIP3   OH271551   0.965   5.285   1.093 -0.1118  0.3427  0.0029
16687TIP3    H171552   0.886   5.331   1.122  0.6135  0.8280  1.2421
16687TIP3    H271553   1.026   5.356   1.071  0.1312 -0.0325 -0.5303
16688TIP3   OH271554   6.693   5.998  14.057 -0.2977 -0.3328  0.0396
16688TIP3    H171555   6.750   6.022  14.130  1.0779  0.1023 -1.1615
16688TIP3    H271556   6.635   6.073  14.046  2.5239  1.6624 -2.2529
16689TIP3   OH271557   3.260   4.624   1.746 -0.7465  0.1884 -0.8193
16689TIP3    H171558   3.237   4.599   1.836 -1.8144  1.0228 -0.8471
16689TIP3    H271559   3.332   4.566   1.723  0.0101  0.4534  0.8287
16690TIP3   OH271560   4.863   0.064   1.752  0.2488 -0.1729 -0.4155
16690TIP3    H171561   4.905   0.025   1.829  0.9886 -0.4603 -0.9602
16690TIP3    H271562   4.776   0.025   1.750  0.4813 -0.7131 -0.1320
16691TIP3   OH271563   4.851   6.628   3.232  0.1598 -0.1793 -0.3595
16691TIP3    H171564   4.907   6.552   3.219  1.8414  1.1434 -1.0534
16691TIP3    H271565   4.828   6.657   3.143  0.1013  0.5354 -0.1189
16692TIP3   OH271566   3.613   3.234   4.531 -0.4134 -0.4455  0.1118
16692TIP3    H171567   3.572   3.260   4.614 -0.0178 -1.5564  0.6590
16692TIP3    H271568   3.684   3.297   4.520 -2.0492  1.3048 -0.6897
16693TIP3   OH271569   3.039   1.461   2.888 -0.0522 -0.5659 -0.0321
16693TIP3    H171570   2.969   1.519   2.859  0.2038 -0.2438 -0.0065
16693TIP3    H271571   3.063   1.494   2.975 -2.4423 -2.9610  1.6343
16694TIP3   OH271572   2.844   3.654  17.036  0.2694 -1.0070 -0.4034
16694TIP3    H171573   2.823   3.746  17.051 -1.4175 -1.4852  0.2737
16694TIP3    H271574   2.899   3.629  17.110  1.0205 -0.4515 -0.7736
16695TIP3   OH271575   0.292   3.507   0.201  0.5030 -0.1401  0.0383
16695TIP3    H171576   0.378   3.469   0.218  0.6961  0.1227 -0.3419
16695TIP3    H271577   0.299   3.597   0.235  0.6333  0.1331 -0.7050
16696TIP3   OH271578   0.884   0.336  12.839  0.0468 -0.0465  0.1558
16696TIP3    H171579   0.967   0.297  12.813  0.3543  1.2301 -0.7980
16696TIP3    H271580   0.884   0.331  12.935  0.6577 -1.1859  0.0964
16697TIP3   OH271581   1.646   3.288  12.789 -0.5336  0.5527  0.5776
16697TIP3    H171582   1.692   3.355  12.840  2.3630 -0.2632 -0.8648
16697TIP3    H271583   1.625   3.331  12.706  3.0371 -0.7642 -1.1152
16698TIP3   OH271584   3.734   5.046  11.648 -0.1466 -0.5882 -0.0034
16698TIP3    H171585   3.717   5.031  11.555  2.9312 -1.1367 -0.5169
16698TIP3    H271586   3.791   4.973  11.674  2.1459  1.6169  1.3621
16699TIP3   OH271587   3.084   0.314   2.280  0.4117 -0.3508 -0.3441
16699TIP3    H171588   3.081   0.404   2.247  1.6819 -0.8559 -1.8499
16699TIP3    H271589   3.016   0.268   2.231 -1.1410  0.0489  1.3444
16700TIP3   OH271590   1.890   2.537   6.854  0.2266 -0.6856 -0.0212
16700TIP3    H171591   1.797   2.555   6.870  0.4940  0.3844  0.3459
16700TIP3    H271592   1.897   2.532   6.759  0.2686  1.9161 -0.1838
16701TIP3   OH271593   5.575   3.548  17.276 -0.2825 -0.4135  0.3368
16701TIP3    H171594   5.666   3.546  17.245 -0.3463 -2.1591  0.1947
16701TIP3    H271595   5.546   3.457  17.271 -1.8873  0.0459  0.8632
16702TIP3   OH271596   1.078   3.176   5.511 -0.2125  0.7301  0.0527
16702TIP3    H171597   1.083   3.205   5.420  1.8148  2.0737  0.5527
16702TIP3    H271598   1.079   3.080   5.506  0.4527  0.7999 -1.3034
16703TIP3   OH271599   4.862   3.108   0.421  0.1326 -0.3895 -0.1590
16703TIP3    H171600   4.880   3.172   0.490  0.4153 -0.4654 -0.1622
16703TIP3    H271601   4.767   3.096   0.424 -0.1436  1.2883 -1.2799
16704TIP3   OH271602   3.638   5.392  16.621  0.3642 -0.2058 -0.1969
16704TIP3    H171603   3.731   5.390  16.645  0.5759  0.3561 -0.9652
16704TIP3    H271604   3.598   5.446  16.689  1.1027  2.0892 -1.5166
16705TIP3   OH271605   4.580   5.304  14.862  0.1383 -0.0737 -0.5107
16705TIP3    H171606   4.650   5.358  14.826  0.7886  0.7331  1.8840
16705TIP3    H271607   4.528   5.279  14.786  1.8686  0.9706 -2.0837
16706TIP3   OH271608   3.261   3.454   4.511 -0.3465 -0.2863 -0.0994
16706TIP3    H171609   3.201   3.400   4.564 -0.9478 -0.4343 -0.9191
16706TIP3    H271610   3.306   3.391   4.455 -0.7518  0.0216 -0.7683
16707TIP3   OH271611   3.657   3.093   5.042  0.3379 -0.3876  0.2347
16707TIP3    H171612   3.718   3.166   5.031  0.4105 -0.3751  0.7466
16707TIP3    H271613   3.697   3.022   4.992  0.0193  0.0668 -0.6787
16708TIP3   OH271614   3.372   1.015   5.008 -0.0398 -0.0174  0.3337
16708TIP3    H171615   3.448   1.054   5.051 -1.0664  2.0939  0.2842
16708TIP3    H271616   3.298   1.042   5.062 -0.9093 -0.8252 -0.4367
16709TIP3   OH271617   1.510   5.244  16.757 -0.3956  0.2882 -0.5347
16709TIP3    H171618   1.598   5.279  16.743 -0.6563  0.8055 -0.9076
16709TIP3    H271619   1.456   5.322  16.774 -0.6716 -0.0783  0.2406
16710TIP3   OH271620   4.001   2.931  10.530  0.3055 -0.2009 -0.0839
16710TIP3    H171621   4.001   3.023  10.558 -0.9432  0.1753 -1.2551
16710TIP3    H271622   4.093   2.910  10.517  0.6081  0.8924  0.2058
16711TIP3   OH271623   3.712   5.366  12.543 -0.1690  0.1653 -0.2245
16711TIP3    H171624   3.659   5.310  12.486 -0.7473  1.9133 -1.4300
16711TIP3    H271625   3.664   5.367  12.626 -1.7685  1.3044 -1.1421
16712TIP3   OH271626   2.456   6.779  15.474 -0.7829 -0.0887  0.2481
16712TIP3    H171627   2.474   6.786  15.380 -0.7433 -1.2082  0.1750
16712TIP3    H271628   2.410   6.696  15.484  1.8216 -1.4292  1.6278
16713TIP3   OH271629   2.835   4.552   0.112 -0.1278  0.4668 -0.3753
16713TIP3    H171630   2.899   4.612   0.150  0.8489 -0.3933 -0.6534
16713TIP3    H271631   2.794   4.510   0.189  0.6561 -0.0293 -0.2196
16714TIP3   OH271632   5.276   0.418  10.584  0.2830  0.4260  0.1787
16714TIP3    H171633   5.234   0.503  10.580 -0.1812  0.1963  0.1453
16714TIP3    H271634   5.209   0.359  10.620  0.5335  0.0364  0.0149
16715TIP3   OH271635   2.254   1.599  13.913 -0.0493  0.0568  0.0492
16715TIP3    H171636   2.276   1.573  13.824 -0.6715 -1.9449  0.4671
16715TIP3    H271637   2.211   1.684  13.903 -0.2996 -0.2538 -1.5753
16716TIP3   OH271638   6.689   1.633  16.757 -0.2287  0.6457 -0.2082
16716TIP3    H171639   6.720   1.670  16.674  0.8440 -0.4446 -0.3019
16716TIP3    H271640   6.673   1.541  16.738  1.8179 -0.0499  1.2334
16717TIP3   OH271641   4.899   3.538  14.231 -0.1777 -0.4465 -0.6758
16717TIP3    H171642   4.906   3.625  14.191 -3.8190 -0.0270 -0.5388
16717TIP3    H271643   4.958   3.542  14.306 -0.1001  1.8349 -0.8065
16718TIP3   OH271644   4.260   5.887   5.554 -0.0462 -0.0010  0.5438
16718TIP3    H171645   4.290   5.834   5.628 -0.4704  1.2465  1.6255
16718TIP3    H271646   4.339   5.904   5.503  0.2904 -0.6430  0.8442
16719TIP3   OH271647   2.639   0.927   3.670  0.4191 -0.6735  0.1769
16719TIP3    H171648   2.673   0.847   3.630  1.6142 -0.4836  0.7692
16719TIP3    H271649   2.633   0.906   3.763  4.1815  1.0357  0.8738
16720TIP3   OH271650   0.548   3.181   3.357 -0.1328  0.2536 -0.2660
16720TIP3    H171651   0.597   3.113   3.404 -1.3437  0.9416  2.1080
16720TIP3    H271652   0.458   3.150   3.358 -0.3844  0.9529 -0.9312
16721TIP3   OH271653   4.910   0.327   1.668  0.8025  0.8650  0.4107
16721TIP3    H171654   4.879   0.241   1.696  2.3034  0.3207  0.4308
16721TIP3    H271655   4.945   0.368   1.747  1.5628  0.8488  0.0883
16722TIP3   OH271656   3.341   1.466  12.162 -0.1185 -0.1561 -0.1636
16722TIP3    H171657   3.381   1.496  12.081  0.8665  0.2637  0.4611
16722TIP3    H271658   3.320   1.547  12.210 -3.1126 -0.3107 -1.1127
16723TIP3   OH271659   2.837   5.280   3.288  0.6733 -0.1795 -0.2518
16723TIP3    H171660   2.789   5.341   3.232  1.4351 -0.4551 -1.2302
16723TIP3    H271661   2.926   5.315   3.290  1.6820 -2.3851 -2.6296
16724TIP3   OH271662   0.350   5.134  11.503  0.1883  0.8125  0.6409
16724TIP3    H171663   0.264   5.177  11.508 -0.7202 -0.7252 -1.2364
16724TIP3    H271664   0.354   5.100  11.414  1.7753 -1.1469  1.4395
16725TIP3   OH271665   5.402   2.018   1.902 -0.4733  0.0149 -0.4925
16725TIP3    H171666   5.324   1.996   1.852 -0.7513 -1.6076  0.6271
16725TIP3    H271667   5.411   1.947   1.965  2.0398  0.0720 -0.7552
16726TIP3   OH271668   1.486   0.932   2.759 -0.0240  0.0170  0.6295
16726TIP3    H171669   1.436   0.999   2.712 -0.0135 -0.9623 -0.8165
16726TIP3    H271670   1.576   0.965   2.758  0.1131 -0.3796 -0.7612
16727TIP3   OH271671   5.063   3.182   3.587  0.2155 -0.0737 -0.0074
16727TIP3    H171672   5.104   3.099   3.609 -0.3195 -0.1765  0.6064
16727TIP3    H271673   5.135   3.238   3.557  0.9041 -0.0198  1.7353
16728TIP3   OH271674   4.388   5.892   6.359 -0.1621 -0.0269 -0.0434
16728TIP3    H171675   4.438   5.854   6.432  1.6312 -1.4749 -1.9687
16728TIP3    H271676   4.310   5.837   6.353 -0.0667 -0.2206  0.4505
16729TIP3   OH271677   0.105   2.905   1.340 -0.5678  0.1899  0.7223
16729TIP3    H171678   0.061   2.825   1.368 -0.1172  0.5135  2.4261
16729TIP3    H271679   0.191   2.876   1.310 -0.6546 -0.0486  0.7036
16730TIP3   OH271680   2.267   0.331  13.289 -0.6615  0.6067 -0.4777
16730TIP3    H171681   2.255   0.347  13.382  0.8304 -0.0439 -0.1655
16730TIP3    H271682   2.289   0.417  13.252 -2.0025  1.0081 -0.3748
16731TIP3   OH271683   1.793   3.035   5.176 -0.8661  0.5147  0.0575
16731TIP3    H171684   1.830   3.053   5.089 -0.2581 -0.0703  0.2014
16731TIP3    H271685   1.744   2.954   5.165  0.6562 -0.5062  0.6875
16732TIP3   OH271686   0.877   0.252  16.242 -0.5923 -0.2372  0.1439
16732TIP3    H171687   0.931   0.200  16.302 -0.6510  0.3677  0.7258
16732TIP3    H271688   0.818   0.188  16.202 -0.7574 -0.6019  0.9547
16733TIP3   OH271689   1.631   5.862   4.682 -0.2228 -0.3157  0.0331
16733TIP3    H171690   1.573   5.938   4.675  1.9991  1.4452  0.0857
16733TIP3    H271691   1.619   5.830   4.771  0.5149  1.3972  0.7587
16734TIP3   OH271692   2.842   5.844   3.054 -0.1542 -0.4077  0.3141
16734TIP3    H171693   2.823   5.930   3.092  0.6489 -0.0988  0.0405
16734TIP3    H271694   2.931   5.853   3.019  0.5576 -1.8250  1.6792
16735TIP3   OH271695   0.358   2.613   5.585 -0.5882 -0.1781  0.2153
16735TIP3    H171696   0.294   2.556   5.628 -1.2834  1.4010  1.3143
16735TIP3    H271697   0.442   2.582   5.617 -0.8483 -1.5574 -0.3781
16736TIP3   OH271698   1.142   1.056  14.511 -0.0021 -0.5650 -0.1114
16736TIP3    H171699   1.193   1.094  14.440  1.1640 -0.1945  0.9214
16736TIP3    H271700   1.062   1.109  14.515  0.1970 -0.2179 -0.7463
16737TIP3   OH271701   1.961   0.350  13.104 -0.1993 -0.6469  0.6313
16737TIP3    H171702   1.957   0.390  13.017 -2.8322 -0.6568  0.7184
16737TIP3    H271703   2.055   0.342  13.123  0.3766  0.9575 -1.4581
16738TIP3   OH271704   1.505   3.046   6.448  0.5747 -0.1353 -0.0696
16738TIP3    H171705   1.469   3.135   6.447  1.0811  0.1161  1.5088
16738TIP3    H271706   1.430   2.989   6.433  0.2619  0.5640 -1.1920
16739TIP3   OH271707   3.706   2.030  16.506  0.3370  0.5953  1.0515
16739TIP3    H171708   3.746   2.070  16.583 -0.9981  3.3871  0.3385
16739TIP3    H271709   3.612   2.031  16.525  0.0245  1.0132 -0.4827
16740TIP3   OH271710   0.806   0.193  14.761 -0.1260 -0.3848 -0.2196
16740TIP3    H171711   0.882   0.207  14.703 -0.2260 -1.1007 -0.5301
16740TIP3    H271712   0.733   0.234  14.715 -0.0704 -0.3607 -0.2867
16741TIP3   OH271713   3.465   2.877  12.819 -0.1872 -0.0674 -0.3255
16741TIP3    H171714   3.440   2.858  12.909  0.2592 -1.4633 -0.4824
16741TIP3    H271715   3.391   2.848  12.766 -1.0815  2.1049 -0.3369
16742TIP3   OH271716   4.139   4.841  11.588  0.1235 -0.4402  0.4022
16742TIP3    H171717   4.052   4.807  11.607 -0.0361 -0.5106 -0.4040
16742TIP3    H271718   4.145   4.839  11.492  1.2993 -1.1492  0.4797
16743TIP3   OH271719   4.979   1.552   5.714  0.3476  0.0254  0.4848
16743TIP3    H171720   4.977   1.468   5.669  0.4902 -0.6224  1.6641
16743TIP3    H271721   5.027   1.610   5.655  3.2335 -1.6011  1.1323
16744TIP3   OH271722   0.960   3.946   1.144 -0.0815 -0.5883 -0.5539
16744TIP3    H171723   0.888   3.901   1.188  0.0264 -1.3962 -1.1956
16744TIP3    H271724   1.003   3.996   1.214 -0.4223 -1.1888  0.0989
16745TIP3   OH271725   3.028   1.179   4.660 -0.5839 -0.8761 -0.0272
16745TIP3    H171726   3.107   1.126   4.650 -0.2204 -0.3078 -0.1353
16745TIP3    H271727   3.000   1.197   4.570 -1.8137 -2.5353  0.0000
16746TIP3   OH271728   2.317   3.234  12.542  0.2574  0.0300  0.0196
16746TIP3    H171729   2.278   3.322  12.547  1.9719  0.7344  1.9626
16746TIP3    H271730   2.411   3.251  12.529  0.5177 -1.5272 -0.1891
16747TIP3   OH271731   5.728   6.376   3.222  0.3048  0.2240 -0.1133
16747TIP3    H171732   5.756   6.393   3.133  2.9986 -0.6305  0.5322
16747TIP3    H271733   5.765   6.290   3.243 -2.3222 -0.6942  1.0067
16748TIP3   OH271734   1.396   0.414   3.370 -0.1286 -0.3340  0.0378
16748TIP3    H171735   1.361   0.345   3.426  0.3668 -0.2561  0.4554
16748TIP3    H271736   1.491   0.405   3.377 -0.0466 -1.1819 -1.8649
16749TIP3   OH271737   0.718   5.936  13.015 -0.3951  0.0783 -0.4783
16749TIP3    H171738   0.804   5.919  13.053 -0.1417  2.0694 -0.1190
16749TIP3    H271739   0.660   5.948  13.090 -0.6408  0.4359 -0.7229
16750TIP3   OH271740   0.373   4.471  13.450  0.6786  0.4020 -0.6209
16750TIP3    H171741   0.326   4.540  13.498  0.7584  1.8538 -2.5577
16750TIP3    H271742   0.459   4.510  13.433  1.3236 -0.8536 -0.2595
16751TIP3   OH271743   3.411   4.378  14.047 -0.0449 -0.7429  0.0565
16751TIP3    H171744   3.487   4.392  13.990 -0.0839 -1.1018 -0.0861
16751TIP3    H271745   3.423   4.440  14.119  0.3351 -0.7370 -0.0113
16752TIP3   OH271746   5.695   4.597  16.577 -0.0072  0.4506 -0.1087
16752TIP3    H171747   5.668   4.592  16.669  0.9490 -0.3010  0.1421
16752TIP3    H271748   5.763   4.530  16.569  1.0342  1.5916 -0.9768
16753TIP3   OH271749   5.966   4.769   1.378  0.0044 -0.2485  0.9316
16753TIP3    H171750   5.995   4.818   1.454 -0.2209  1.5469 -0.1200
16753TIP3    H271751   5.917   4.832   1.326  0.1914 -1.4323 -0.7202
16754TIP3   OH271752   5.020   0.664   2.427 -0.6612  0.3693  0.1048
16754TIP3    H171753   5.020   0.646   2.522 -0.9800  0.4401  0.1187
16754TIP3    H271754   4.947   0.612   2.393  0.4158 -0.8877 -0.3366
16755TIP3   OH271755   4.306   0.833  17.196  0.1984 -0.2126  0.0682
16755TIP3    H171756   4.392   0.817  17.158  0.8524  0.1498  1.3868
16755TIP3    H271757   4.245   0.825  17.122  1.3145 -0.8482 -0.7931
16756TIP3   OH271758   4.099   4.237  13.427  0.7821 -0.3448  0.0932
16756TIP3    H171759   4.139   4.204  13.347 -1.0520  0.7386 -1.3166
16756TIP3    H271760   4.172   4.248  13.488  2.5747  1.0483 -2.1980
16757TIP3   OH271761   1.879   4.430   0.715  0.1326  0.3876 -0.1743
16757TIP3    H171762   1.959   4.428   0.768  0.6529  2.2190 -0.8485
16757TIP3    H271763   1.826   4.499   0.755 -0.1278  0.7385 -1.1224
16758TIP3   OH271764   6.255   0.790  14.858 -0.3326  1.0617  0.0910
16758TIP3    H171765   6.291   0.788  14.946 -0.7156  0.6563  0.2434
16758TIP3    H271766   6.189   0.859  14.860 -1.8911 -0.4066  0.7490
16759TIP3   OH271767   3.161   5.365  11.045 -0.1777 -0.4062  0.1249
16759TIP3    H171768   3.253   5.391  11.034  0.2172 -2.0121 -0.7259
16759TIP3    H271769   3.164   5.295  11.110 -0.9874  0.5176  1.1543
16760TIP3   OH271770   5.133   1.420   6.319 -0.0776 -0.0234  0.1425
16760TIP3    H171771   5.047   1.438   6.359 -0.9453 -2.4318 -0.5285
16760TIP3    H271772   5.124   1.449   6.229  0.4259  1.3994  0.5474
16761TIP3   OH271773   6.324   6.205   0.602  0.2936  0.1227  0.4679
16761TIP3    H171774   6.289   6.170   0.683  2.2891 -0.5651  1.0483
16761TIP3    H271775   6.279   6.156   0.533 -0.3102 -0.3255  1.1714
16762TIP3   OH271776   3.312   4.673  13.430  0.2061  0.3440 -0.5023
16762TIP3    H171777   3.334   4.766  13.418  2.2198  0.0785  0.8445
16762TIP3    H271778   3.332   4.633  13.345 -0.1454  1.0430 -0.9216
16763TIP3   OH271779   3.678   0.464   0.759  0.1277 -0.5638 -0.3082
16763TIP3    H171780   3.705   0.377   0.789  3.9372  0.9546  0.9154
16763TIP3    H271781   3.749   0.494   0.703 -1.0991  1.7869 -0.6832
16764TIP3   OH271782   2.719   0.264  12.966 -0.7276 -0.4847  0.1099
16764TIP3    H171783   2.787   0.215  13.011  0.0426 -1.1117 -1.7103
16764TIP3    H271784   2.672   0.199  12.915 -1.1163  0.3263 -0.5815
16765TIP3   OH271785   1.288   0.707  17.169 -0.6981 -0.5821  0.8334
16765TIP3    H171786   1.216   0.678  17.225 -2.0400 -0.1925 -0.6423
16765TIP3    H271787   1.299   0.636  17.105  0.1725 -0.6005  1.0057
16766TIP3   OH271788   3.182   6.340  14.504 -0.4339  0.3356  0.0217
16766TIP3    H171789   3.179   6.429  14.469 -0.6373  0.1896 -0.3283
16766TIP3    H271790   3.132   6.344  14.586  1.7448  1.1601  1.3695
16767TIP3   OH271791   6.479   2.230   5.105  0.1491  0.3435 -0.2194
16767TIP3    H171792   6.403   2.201   5.156 -0.5126  0.7926 -0.9405
16767TIP3    H271793   6.447   2.237   5.015  1.3832 -0.6836 -0.7457
16768TIP3   OH271794   0.943   1.362   3.743  0.0144 -0.0591 -0.9117
16768TIP3    H171795   0.972   1.351   3.833  2.1383  1.8166 -1.3331
16768TIP3    H271796   0.885   1.287   3.728  0.3764 -0.9277  1.6885
16769TIP3   OH271797   6.138   3.071  11.076  0.5330  0.5860  0.3784
16769TIP3    H171798   6.213   3.019  11.106  1.0014  1.3381  0.5288
16769TIP3    H271799   6.094   3.097  11.157  0.0749  0.0926  0.2865
16770TIP3   OH271800   4.455   2.820  11.421 -0.0819  0.4248  0.7121
16770TIP3    H171801   4.425   2.852  11.506 -0.4515 -1.8746  1.4891
16770TIP3    H271802   4.546   2.794  11.436  0.3242  1.4067  0.0042
16771TIP3   OH271803   6.116   2.790  11.805  0.2514  0.6447 -0.1050
16771TIP3    H171804   6.178   2.737  11.754  0.4159  0.9267 -0.1995
16771TIP3    H271805   6.034   2.784  11.757  0.4971  1.2030 -0.6022
16772TIP3   OH271806   6.423   4.130  16.188 -0.1266  0.0814  0.4707
16772TIP3    H171807   6.492   4.140  16.253  0.3836  0.8591 -0.1937
16772TIP3    H271808   6.369   4.208  16.198 -0.3055 -0.0166  0.2680
16773TIP3   OH271809   2.884   6.334   0.912 -0.3350  0.5865 -0.1070
16773TIP3    H171810   2.951   6.392   0.876 -0.6747  0.0336 -1.6880
16773TIP3    H271811   2.875   6.361   1.003 -0.5386  3.0700 -0.8188
16774TIP3   OH271812   1.319   0.522  12.699 -0.7454 -0.2051  0.3563
16774TIP3    H171813   1.398   0.479  12.732 -0.6887 -0.0397  0.4369
16774TIP3    H271814   1.347   0.610  12.675 -0.2372 -1.0828 -2.4724
16775TIP3   OH271815   3.466   5.498   5.386 -0.4365  0.2480 -0.0156
16775TIP3    H171816   3.422   5.547   5.316  0.1306  0.4232 -0.2594
16775TIP3    H271817   3.395   5.463   5.440 -0.8807 -0.0528 -0.7923
16776TIP3   OH271818   4.842   5.453   2.074  0.2308  0.0476  0.4130
16776TIP3    H171819   4.862   5.509   1.999 -0.1666  0.5665  0.6952
16776TIP3    H271820   4.774   5.500   2.122 -0.6235 -1.0045  0.2633
16777TIP3   OH271821   1.497   5.669  15.195 -0.0352  0.3586  0.6119
16777TIP3    H171822   1.516   5.762  15.195  0.0505  0.3632  2.2762
16777TIP3    H271823   1.568   5.630  15.246 -0.5763 -0.4966  0.7243
16778TIP3   OH271824   1.344   2.474  16.305 -0.5028  0.3210 -0.2278
16778TIP3    H171825   1.369   2.383  16.321  1.4673  0.6839 -1.1669
16778TIP3    H271826   1.298   2.472  16.222  0.7543  0.3724 -0.9358
16779TIP3   OH271827   2.769   1.297   5.861  0.1785  0.5188  0.0496
16779TIP3    H171828   2.828   1.365   5.895 -0.1437  2.0245 -2.2880
16779TIP3    H271829   2.765   1.232   5.931  1.0634  2.5586  2.0663
16780TIP3   OH271830   4.412   3.437   1.665 -0.2150 -0.1499  0.0428
16780TIP3    H171831   4.487   3.427   1.605  0.5138  0.4058  0.8485
16780TIP3    H271832   4.452   3.449   1.751 -1.2707 -1.1565  0.6762
16781TIP3   OH271833   1.387   2.117  16.261  0.9368  0.0568  0.0480
16781TIP3    H171834   1.429   2.079  16.184 -0.7624 -1.5491 -0.1202
16781TIP3    H271835   1.301   2.145  16.230 -0.3107 -1.8912  1.6592
16782TIP3   OH271836   6.438   4.232  14.751  0.0393 -0.5298 -0.7423
16782TIP3    H171837   6.419   4.150  14.798  0.6222 -0.0760  0.3188
16782TIP3    H271838   6.379   4.296  14.791  1.5177  0.1760  0.3730
16783TIP3   OH271839   0.556   6.639   2.781 -0.1355 -0.4593  0.0330
16783TIP3    H171840   0.597   6.554   2.795 -0.9720 -1.0113 -0.8189
16783TIP3    H271841   0.621   6.691   2.734  0.0455 -0.9196 -0.2212
16784TIP3   OH271842   1.221   2.075   5.598  0.6595  0.8587 -0.0817
16784TIP3    H171843   1.150   2.123   5.556  0.0050  1.5452  1.7668
16784TIP3    H271844   1.208   2.090   5.692  0.3796 -2.9713  0.5688
16785TIP3   OH271845   0.466   2.988   6.454 -0.1927  0.6272  0.7019
16785TIP3    H171846   0.448   2.991   6.548  0.6406  0.5612  0.8631
16785TIP3    H271847   0.549   2.942   6.447 -0.5397  0.1149 -0.1090
16786TIP3   OH271848   1.092   4.637   6.619  1.1045 -0.3350 -0.3822
16786TIP3    H171849   1.176   4.619   6.661  0.8623 -1.5159 -0.3836
16786TIP3    H271850   1.107   4.621   6.526  1.4844  1.7064 -0.6955
16787TIP3   OH271851   4.588   2.923  15.634 -0.0774  0.5995  0.2777
16787TIP3    H171852   4.547   2.978  15.701 -0.2187  0.7519  0.0645
16787TIP3    H271853   4.519   2.908  15.569  0.1887  0.8054 -0.0489
16788TIP3   OH271854   0.430   2.466   2.610  0.3871 -0.1281  0.4214
16788TIP3    H171855   0.412   2.519   2.688  2.0868  1.2576 -0.0913
16788TIP3    H271856   0.344   2.445   2.575 -0.3612  0.4104  1.9036
16789TIP3   OH271857   2.346   5.824  12.126  0.7371  0.3161 -0.4111
16789TIP3    H171858   2.433   5.848  12.094  0.7948 -1.9882 -2.0389
16789TIP3    H271859   2.295   5.807  12.047 -0.7799  0.1499  0.5800
16790TIP3   OH271860   1.209   3.291   2.210 -0.1241 -0.0384  0.0496
16790TIP3    H171861   1.290   3.317   2.255  0.2005 -0.7444 -0.1208
16790TIP3    H271862   1.142   3.293   2.279 -0.5313  3.1347 -0.3322
16791TIP3   OH271863   2.106   0.627   1.442  0.3098  0.3039 -0.2898
16791TIP3    H171864   2.036   0.563   1.456 -0.2862  0.9728 -0.2274
16791TIP3    H271865   2.094   0.655   1.351  1.9358 -1.3160 -1.0450
16792TIP3   OH271866   1.259   4.981  16.565 -0.3584 -0.2979 -0.1898
16792TIP3    H171867   1.275   5.074  16.585 -0.9288 -0.6019  1.8440
16792TIP3    H271868   1.342   4.938  16.580 -0.7329 -0.4920  1.4529
16793TIP3   OH271869   4.008   3.808  14.381  0.4647  0.4255 -0.8548
16793TIP3    H171870   4.034   3.738  14.322 -1.1735 -0.7225 -0.2556
16793TIP3    H271871   3.967   3.873  14.324  1.6145  0.7252 -1.3554
16794TIP3   OH271872   2.009   5.777   5.887  0.0170  0.1459  0.7364
16794TIP3    H171873   1.917   5.802   5.876  0.1466  0.0142 -0.6847
16794TIP3    H271874   2.013   5.687   5.855  0.7867  0.3891  0.1565
16795TIP3   OH271875   4.307   5.803  13.066 -0.4154  0.0054  0.4146
16795TIP3    H171876   4.237   5.848  13.113  0.2307 -0.1803  1.5812
16795TIP3    H271877   4.386   5.854  13.085  0.0349 -0.6677  0.3730
16796TIP3   OH271878   2.939   2.402   2.550  0.3594  0.0402 -0.0631
16796TIP3    H171879   2.906   2.492   2.556  1.5085  0.4163  0.7759
16796TIP3    H271880   2.913   2.361   2.632  0.0969 -0.3135 -0.3195
16797TIP3   OH271881   6.211   6.244  15.948 -0.4104  0.8410 -0.1607
16797TIP3    H171882   6.158   6.320  15.927 -2.1436 -0.3397 -0.1657
16797TIP3    H271883   6.168   6.171  15.903 -0.4127 -0.6001  2.0828
16798TIP3   OH271884   6.309   4.446  12.336  0.1500  0.3376  0.7299
16798TIP3    H171885   6.371   4.485  12.274 -0.1027  0.0621  0.2999
16798TIP3    H271886   6.280   4.366  12.293  0.0907  0.0641  1.2804
16799TIP3   OH271887   4.824   6.647  16.774  0.6268  0.2366 -0.2600
16799TIP3    H171888   4.811   6.713  16.842 -0.1031 -1.0073  0.8195
16799TIP3    H271889   4.813   6.564  16.819  1.2492 -0.6258 -1.6776
16800TIP3   OH271890   3.873   4.548   3.675 -0.4530 -0.2706  0.0610
16800TIP3    H171891   3.919   4.465   3.684  0.6471  0.3203 -0.0734
16800TIP3    H271892   3.893   4.595   3.757  0.1840  0.4811 -0.5234
16801TIP3   OH271893   2.864   6.675   3.783  0.1601 -0.6689  0.1070
16801TIP3    H171894   2.914   6.706   3.859 -2.6726  0.3173  1.6419
16801TIP3    H271895   2.785   6.636   3.821 -0.8195 -1.0769 -2.3009
16802TIP3   OH271896   6.027   3.024  12.432  0.1431 -0.3187 -0.3391
16802TIP3    H171897   5.962   3.086  12.401  1.2341  0.5347 -0.9552
16802TIP3    H271898   6.074   3.071  12.502 -0.1455 -1.0569  0.3630
16803TIP3   OH271899   6.084   5.496  12.303 -0.9831  0.0230  0.2669
16803TIP3    H171900   6.030   5.499  12.382 -2.7841 -0.2860 -0.9302
16803TIP3    H271901   6.046   5.562  12.246  1.6114  1.7454  0.4224
16804TIP3   OH271902   0.536   4.513   0.540  0.4866  0.5244 -0.1374
16804TIP3    H171903   0.556   4.498   0.448 -0.8519  0.0654 -0.3696
16804TIP3    H271904   0.587   4.591   0.563  0.4779  0.9197 -1.3956
16805TIP3   OH271905   6.378   5.880   2.896  0.4622 -0.3649 -0.1495
16805TIP3    H171906   6.417   5.909   2.978 -0.4694 -0.5894  0.3847
16805TIP3    H271907   6.432   5.805   2.869  2.1046  1.0590 -0.8963
16806TIP3   OH271908   4.455   0.369  12.602  0.4565 -0.0435  0.0823
16806TIP3    H171909   4.545   0.367  12.635 -0.1499 -0.4669  1.7701
16806TIP3    H271910   4.462   0.341  12.511  1.8521 -1.5272  0.6256
16807TIP3   OH271911   0.842   6.595   4.784 -0.6526 -0.2047  0.2538
16807TIP3    H171912   0.808   6.518   4.739 -1.4284 -0.2734  0.9403
16807TIP3    H271913   0.854   6.566   4.874  1.2063 -0.1663  0.0338
16808TIP3   OH271914   0.427   1.285   4.295  0.3139  0.1595  0.3686
16808TIP3    H171915   0.485   1.346   4.341 -0.0602  0.3398  0.6023
16808TIP3    H271916   0.410   1.327   4.211 -0.1837  0.5181  0.6480
16809TIP3   OH271917   5.904   2.290  13.562  0.3286  0.4587 -0.0644
16809TIP3    H171918   5.932   2.334  13.482 -1.1038  1.0012 -0.2991
16809TIP3    H271919   5.826   2.339  13.590  0.9703  0.4712  1.8279
16810TIP3   OH271920   6.117   4.911  13.989 -0.0430  0.2580  0.2520
16810TIP3    H171921   6.025   4.890  13.969 -0.0526  0.3144  0.2357
16810TIP3    H271922   6.123   5.006  13.975 -0.9904  0.9688  4.1844
16811TIP3   OH271923   2.163   3.819  13.344 -0.0854  0.1482 -0.2129
16811TIP3    H171924   2.141   3.853  13.257  1.8702  0.3050 -0.6693
16811TIP3    H271925   2.179   3.898  13.397  0.9402  0.0141 -0.3173
16812TIP3   OH271926   3.707   1.141  17.160 -0.3846  0.2235 -0.7352
16812TIP3    H171927   3.765   1.217  17.156 -1.5600  1.2495  0.8560
16812TIP3    H271928   3.621   1.175  17.134 -1.4165  0.0178  2.1556
16813TIP3   OH271929   6.699   1.797  16.530 -0.0023  0.2427  0.3301
16813TIP3    H171930   6.609   1.818  16.507  0.2923 -0.8392 -1.8987
16813TIP3    H271931   6.738   1.881  16.554 -0.3626  1.4614 -3.1092
16814TIP3   OH271932   0.848   4.727  14.009 -0.4461 -0.0568  0.4045
16814TIP3    H171933   0.879   4.736  14.099  1.0551  1.3906 -0.2335
16814TIP3    H271934   0.771   4.783  14.004  1.2273  2.2958  0.0058
16815TIP3   OH271935   3.794   4.809  16.554 -0.1548  0.6894 -0.3367
16815TIP3    H171936   3.774   4.782  16.644 -0.2394  0.9918 -0.2614
16815TIP3    H271937   3.710   4.805  16.508 -0.3913  1.9092 -0.0312
16816TIP3   OH271938   5.940   4.080  14.437  0.1906 -0.6931  0.3542
16816TIP3    H171939   5.898   4.051  14.518  0.5668 -1.3849  0.3107
16816TIP3    H271940   5.897   4.028  14.369 -2.1092  1.8899 -0.2419
16817TIP3   OH271941   1.757   5.331   4.408  0.7790  0.1597  0.0915
16817TIP3    H171942   1.685   5.334   4.471  0.4200  0.6481 -0.3360
16817TIP3    H271943   1.800   5.247   4.424 -0.5173 -0.5988 -0.3459
16818TIP3   OH271944   4.147   1.677   2.569 -0.2306  0.1332 -0.2978
16818TIP3    H171945   4.159   1.766   2.602  0.0198  0.6932 -1.8450
16818TIP3    H271946   4.109   1.689   2.481  1.7580 -1.2049 -1.3756
16819TIP3   OH271947   0.693   6.219  14.626  0.6035  0.4535 -0.0166
16819TIP3    H171948   0.658   6.163  14.557  1.0758 -1.0114  0.9182
16819TIP3    H271949   0.710   6.160  14.699  2.3540  1.5885  0.5354
16820TIP3   OH271950   5.599   4.461  13.433  0.5185  0.2601 -0.7210
16820TIP3    H171951   5.547   4.541  13.431  0.5407  0.2994  0.1763
16820TIP3    H271952   5.652   4.464  13.353  0.4752  1.1022 -0.7174
16821TIP3   OH271953   0.738   0.535   4.470 -0.6134  0.3173  0.5333
16821TIP3    H171954   0.773   0.581   4.394  0.5063 -1.4459 -0.0452
16821TIP3    H271955   0.653   0.502   4.441 -0.1849 -0.3582  0.0276
16822TIP3   OH271956   1.571   4.011   3.054  0.1764 -0.4947 -0.0633
16822TIP3    H171957   1.590   3.923   3.022  2.8476 -0.5808  1.6755
16822TIP3    H271958   1.646   4.063   3.026 -1.4729  1.3290 -1.2657
16823TIP3   OH271959   4.187   4.169   1.455 -0.7362 -0.1775  0.5680
16823TIP3    H171960   4.230   4.165   1.369 -0.2305  1.2956  0.7395
16823TIP3    H271961   4.117   4.234   1.443 -0.9882 -0.3515  1.1291
16824TIP3   OH271962   4.537   2.137   0.346  0.3500 -0.1370  0.0762
16824TIP3    H171963   4.576   2.152   0.260  1.4996 -1.1613  0.4122
16824TIP3    H271964   4.451   2.100   0.328 -0.0055  1.0241 -0.6508
16825TIP3   OH271965   6.079   4.106   0.274  0.8228 -0.3437 -0.2771
16825TIP3    H171966   6.124   4.155   0.205  0.7725 -2.1501 -1.6431
16825TIP3    H271967   6.108   4.016   0.262 -0.4885 -0.9542  1.0147
16826TIP3   OH271968   1.408   2.172  15.015 -0.2404  0.5856 -0.1308
16826TIP3    H171969   1.478   2.139  15.072 -0.6640  0.8581  0.5560
16826TIP3    H271970   1.404   2.110  14.943 -1.1839 -0.9736  1.2511
16827TIP3   OH271971   1.422   5.535  11.236 -0.5902 -0.2976  0.3424
16827TIP3    H171972   1.448   5.575  11.319  1.1468  0.2229 -0.4430
16827TIP3    H271973   1.491   5.472  11.216  0.3035  1.3440 -1.9386
16828TIP3   OH271974   0.796   3.014  12.403 -0.3102 -0.4267  0.5483
16828TIP3    H171975   0.770   2.923  12.384 -0.0059 -0.4807  0.3982
16828TIP3    H271976   0.885   3.007  12.436 -0.4410 -0.2238  0.9451
16829TIP3   OH271977   1.772   5.771  16.683 -0.1180  0.5974 -0.2169
16829TIP3    H171978   1.791   5.822  16.605 -0.5828 -1.1761 -1.5062
16829TIP3    H271979   1.833   5.698  16.681 -0.9066 -0.1010  0.4567
16830TIP3   OH271980   1.326   2.677   4.364 -0.1661 -0.5043  0.0028
16830TIP3    H171981   1.255   2.657   4.425 -0.6884  1.9392  0.2572
16830TIP3    H271982   1.404   2.684   4.419 -0.4577  0.7038  0.2811
16831TIP3   OH271983   6.668   3.614  11.600  0.1484 -0.2598 -0.0649
16831TIP3    H171984   6.648   3.701  11.634 -1.4841 -0.2850 -0.9309
16831TIP3    H271985   6.608   3.602  11.527  2.0655 -1.1333 -1.5239
16832TIP3   OH271986   6.398   4.002   3.413 -0.4291 -0.3205  0.0692
16832TIP3    H171987   6.380   4.011   3.507  1.3094 -0.1918  0.3991
16832TIP3    H271988   6.312   4.010   3.372 -1.4178 -1.9145  1.7510
16833TIP3   OH271989   6.385   3.714   5.339  0.7687  0.3548  0.3199
16833TIP3    H171990   6.386   3.704   5.434 -1.1493  0.6371  0.3886
16833TIP3    H271991   6.477   3.727   5.315  1.4330 -1.1759  1.9571
16834TIP3   OH271992   2.435   2.334   3.433  0.3087 -0.3398  0.2708
16834TIP3    H171993   2.441   2.319   3.527  0.9191 -0.3520  0.2324
16834TIP3    H271994   2.513   2.293   3.397  0.8707  0.9815 -0.0747
16835TIP3   OH271995   2.544   4.428   3.878 -0.2593  0.5568  0.0036
16835TIP3    H171996   2.572   4.339   3.900  0.5999  0.5815 -0.9500
16835TIP3    H271997   2.602   4.484   3.929 -2.0378  0.5768  2.0713
16836TIP3   OH271998   5.941   0.484  14.121  0.1444  0.2934  0.3653
16836TIP3    H171999   5.867   0.435  14.085 -0.4412  1.1096  0.4504
16836TIP3    H272000   5.902   0.560  14.164  1.1597  1.9415 -1.5191
16837TIP3   OH272001   5.684   2.052   6.364 -0.1888 -0.4499  0.3161
16837TIP3    H172002   5.770   2.051   6.407  0.1542 -0.4603 -0.3608
16837TIP3    H272003   5.632   2.113   6.415  0.5061  0.2521  0.1920
16838TIP3   OH272004   1.196   5.223   5.039  0.2063  0.1960 -0.1135
16838TIP3    H172005   1.104   5.199   5.027  0.6104 -1.3932 -0.2574
16838TIP3    H272006   1.230   5.231   4.949  0.9758 -2.5016 -0.1302
16839TIP3   OH272007   2.905   5.905   4.742  0.3931  0.1517  0.0776
16839TIP3    H172008   2.875   5.831   4.690  0.9195  0.3669 -0.5425
16839TIP3    H272009   2.845   5.909   4.816 -0.3588 -0.1519 -0.5170
16840TIP3   OH272010   0.677   3.839   1.308  0.0089  0.0957  0.3124
16840TIP3    H172011   0.679   3.864   1.401 -3.1846 -1.0311  0.7467
16840TIP3    H272012   0.666   3.744   1.310  0.2108  0.0366 -1.2235
16841TIP3   OH272013   4.567   6.772  14.708  0.3463 -0.0440 -0.0726
16841TIP3    H172014   4.504   6.763  14.779  0.1101 -0.8965 -0.3812
16841TIP3    H272015   4.625   6.696  14.717  1.0611  0.4985 -0.0585
16842TIP3   OH272016   5.902   5.746  16.886  0.7378 -0.0470  0.4608
16842TIP3    H172017   5.862   5.668  16.847  0.5619  0.0510  0.4439
16842TIP3    H272018   5.829   5.793  16.926  0.8829 -0.0237  0.6976
16843TIP3   OH272019   3.103   5.181  15.799  0.3969 -0.0892  0.5735
16843TIP3    H172020   3.181   5.133  15.771 -0.1988 -0.0120 -1.2556
16843TIP3    H272021   3.044   5.113  15.832 -0.6265 -0.7092 -2.4280
16844TIP3   OH272022   2.511   1.975   3.860  0.2319 -0.2969 -0.3771
16844TIP3    H172023   2.434   1.944   3.813  0.2199  0.3862 -0.8147
16844TIP3    H272024   2.493   1.954   3.952 -0.8831  0.6826 -0.3576
16845TIP3   OH272025   1.047   4.620   2.604  0.3569 -0.7417  0.2149
16845TIP3    H172026   1.108   4.547   2.590  0.2893 -0.6923 -0.3629
16845TIP3    H272027   0.970   4.579   2.644  0.3981 -0.9558  0.0779
16846TIP3   OH272028   2.893   0.037   5.944  0.3866 -0.1264 -0.4605
16846TIP3    H172029   2.867   0.080   5.863  1.6302 -0.7735 -1.2132
16846TIP3    H272030   2.821  -0.024   5.963 -0.6757  1.1832 -0.1768
16847TIP3   OH272031   4.680   5.934  14.612 -0.2720  0.2129  0.4387
16847TIP3    H172032   4.596   5.967  14.642 -1.1114 -1.0229 -0.5182
16847TIP3    H272033   4.729   6.012  14.587 -1.9003  0.7947 -0.9700
16848TIP3   OH272034   4.291   6.365  10.589  0.0287  0.1898 -0.4117
16848TIP3    H172035   4.245   6.282  10.573 -0.2851  0.4137 -0.6698
16848TIP3    H272036   4.292   6.373  10.684  0.1866 -0.1858 -0.3807
16849TIP3   OH272037   4.820   3.994  16.906  0.0341  0.5679  0.3751
16849TIP3    H172038   4.795   3.988  16.998 -2.1855  1.4087 -0.1314
16849TIP3    H272039   4.767   3.928  16.862  0.7081  0.5156 -0.3758
16850TIP3   OH272040   6.330   3.088   1.388 -0.0330 -0.0767 -0.3409
16850TIP3    H172041   6.289   3.155   1.442 -1.8797 -1.2472 -0.2521
16850TIP3    H272042   6.329   3.009   1.443  1.2167 -0.4424 -0.8153
16851TIP3   OH272043   0.060   2.671  13.683  0.3435 -0.3667  0.1400
16851TIP3    H172044   0.145   2.715  13.688  1.5268 -2.6166  0.4747
16851TIP3    H272045   0.048   2.654  13.589  0.2349  0.0095  0.0862
16852TIP3   OH272046   5.662   1.386  13.500  0.5239 -0.0725 -0.1227
16852TIP3    H172047   5.627   1.330  13.431  1.6331  0.6330 -1.2737
16852TIP3    H272048   5.619   1.355  13.580 -0.7740 -0.8910 -1.1194
16853TIP3   OH272049   3.517   2.718   6.132  0.4572 -0.4442  0.0722
16853TIP3    H172050   3.584   2.786   6.124  0.2856 -0.3544 -0.7223
16853TIP3    H272051   3.536   2.675   6.215 -0.6930  1.9510  1.6428
16854TIP3   OH272052   1.784   5.723  11.765 -0.0876 -0.0733  0.9541
16854TIP3    H172053   1.731   5.800  11.787 -0.0161 -0.5928  3.0150
16854TIP3    H272054   1.836   5.751  11.690  1.6349  2.7036  3.0674
16855TIP3   OH272055   5.383   6.380  15.601 -0.4034 -0.7766 -0.1764
16855TIP3    H172056   5.324   6.455  15.611  0.3275 -0.4262  1.6199
16855TIP3    H272057   5.471   6.419  15.601  0.0536 -1.7600  2.1809
16856TIP3   OH272058   1.128   0.216   2.567  0.0839  0.0493 -0.1320
16856TIP3    H172059   1.107   0.123   2.557  1.0299 -0.1692 -0.1963
16856TIP3    H272060   1.078   0.244   2.644 -0.7624 -0.3341 -0.5340
16857TIP3   OH272061   6.079   2.538  15.492 -0.3217 -0.2745 -0.2299
16857TIP3    H172062   6.147   2.478  15.463 -0.3816 -0.0044 -0.9347
16857TIP3    H272063   6.126   2.604  15.543  0.0371  0.2717 -1.2572
16858TIP3   OH272064   4.132   1.578   5.736 -0.3341 -0.0524  0.0088
16858TIP3    H172065   4.097   1.537   5.815 -2.5319  0.1034 -0.8487
16858TIP3    H272066   4.200   1.518   5.707 -0.6867 -0.9946  1.0700
16859TIP3   OH272067   4.679   1.225  12.249  0.1853 -0.0225  0.0888
16859TIP3    H172068   4.590   1.190  12.246  0.5063 -0.7680 -0.8938
16859TIP3    H272069   4.694   1.260  12.162  1.2144 -0.8325 -0.0738
16860TIP3   OH272070   1.232   1.133   0.147  0.4298 -0.3150  0.1079
16860TIP3    H172071   1.175   1.066   0.109  0.1266 -0.6421  1.1191
16860TIP3    H272072   1.182   1.168   0.220  0.6072  0.9945 -0.3775
16861TIP3   OH272073   5.411   6.285   5.870 -0.6128  0.3296  0.4333
16861TIP3    H172074   5.483   6.245   5.919 -1.1534  0.1848  1.1278
16861TIP3    H272075   5.333   6.262   5.921 -1.3339 -0.8966 -1.1814
16862TIP3   OH272076   3.585   6.150   3.770 -0.3802 -0.3851 -0.1612
16862TIP3    H172077   3.530   6.204   3.713 -1.3048 -2.2306 -1.0994
16862TIP3    H272078   3.637   6.097   3.709  0.3505 -0.6881  0.7193
16863TIP3   OH272079   0.410   5.959  14.685  0.0552 -0.3033  0.2687
16863TIP3    H172080   0.408   5.941  14.779 -1.6941 -1.5655  0.0092
16863TIP3    H272081   0.383   6.051  14.677 -0.1073 -0.2897  0.9745
16864TIP3   OH272082   1.433   0.169   2.592  0.2728  0.3772  0.0365
16864TIP3    H172083   1.458   0.184   2.683  0.9886 -0.2894 -0.0458
16864TIP3    H272084   1.338   0.179   2.591  0.4101  1.8224  0.5805
16865TIP3   OH272085   2.152   4.298  17.290 -0.4981  0.0387 -0.5367
16865TIP3    H172086   2.161   4.203  17.301 -1.0071  0.2267  1.6521
16865TIP3    H272087   2.201   4.317  17.210  2.0516 -1.6853  0.5375
16866TIP3   OH272088   2.649   5.025  10.590  0.1418  0.5555  0.0676
16866TIP3    H172089   2.657   4.981  10.675  0.4112  0.2132 -0.1368
16866TIP3    H272090   2.579   4.977  10.545 -2.2562  2.7079  1.3287
16867TIP3   OH272091   4.959   3.933  13.416 -0.1758 -0.0654 -0.1826
16867TIP3    H172092   4.919   3.999  13.359 -0.6491 -0.2438 -0.0626
16867TIP3    H272093   4.913   3.852  13.395  1.8735 -0.8268 -1.8585
16868TIP3   OH272094   0.973   3.415  17.061 -0.4526  0.2851 -0.0325
16868TIP3    H172095   1.005   3.495  17.019 -2.4329  0.5469 -1.1199
16868TIP3    H272096   0.990   3.346  16.997 -0.5936  0.1607  0.0646
16869TIP3   OH272097   0.359   5.761   2.485  0.9980 -0.8861  0.6014
16869TIP3    H172098   0.319   5.744   2.400 -1.4586  1.9871  1.0942
16869TIP3    H272099   0.442   5.805   2.464 -0.4154  1.4566 -0.3791
16870TIP3   OH272100   1.730   2.743  17.079  0.3858 -0.4025 -0.3556
16870TIP3    H172101   1.690   2.691  17.149  0.5741 -1.9869 -1.3990
16870TIP3    H272102   1.677   2.723  17.002  1.3873 -0.2255 -1.0929
16871TIP3   OH272103   2.189   2.211  12.322 -0.4459 -0.5004  0.3764
16871TIP3    H172104   2.169   2.256  12.240  1.1469 -0.9202 -0.2517
16871TIP3    H272105   2.165   2.120  12.306 -2.2127 -0.1865  1.1324
16872TIP3   OH272106   6.199   2.170   1.408 -0.2876  1.0422 -0.0374
16872TIP3    H172107   6.155   2.241   1.361  1.0759  1.7710 -0.2365
16872TIP3    H272108   6.251   2.126   1.342 -1.0382 -0.0862  0.1140
16873TIP3   OH272109   2.007   5.493  13.830 -0.1976 -0.3326  0.3725
16873TIP3    H172110   2.012   5.447  13.914  0.3713  0.2147  0.6390
16873TIP3    H272111   1.949   5.567  13.846 -0.4217 -0.4590  0.1655
16874TIP3   OH272112   4.625   2.214   1.545 -0.4283  0.5032 -0.3339
16874TIP3    H172113   4.576   2.295   1.560  0.8959  1.4161 -0.8255
16874TIP3    H272114   4.605   2.191   1.454  1.1251  1.6384 -0.9805
16875TIP3   OH272115   1.469   4.484  13.182 -0.4596 -0.0006 -0.0537
16875TIP3    H172116   1.480   4.448  13.270 -1.1678 -0.3778 -0.1105
16875TIP3    H272117   1.511   4.420  13.124 -1.4106 -0.5893 -0.1233
16876TIP3   OH272118   6.048   2.990   4.256 -0.4000 -0.1652 -0.5272
16876TIP3    H172119   6.059   3.069   4.202  2.1897  0.4517  0.8160
16876TIP3    H272120   5.957   2.993   4.285 -0.5668  1.9020 -1.1678
16877TIP3   OH272121   5.954   4.399  12.568  0.6564 -0.5195  0.3669
16877TIP3    H172122   5.860   4.419  12.562  1.1760  1.5925 -1.2412
16877TIP3    H272123   5.988   4.463  12.630  1.4374  0.2357 -0.8340
16878TIP3   OH272124   3.626   6.301  14.937  0.2122 -0.3211  0.5302
16878TIP3    H172125   3.589   6.213  14.946 -1.0262  0.4471  3.2529
16878TIP3    H272126   3.559   6.351  14.890  0.5468 -0.5760 -0.2341
16879TIP3   OH272127   3.999   1.687  16.406  0.1716  0.2800  0.7528
16879TIP3    H172128   3.926   1.631  16.433  0.2105  0.7792  1.9323
16879TIP3    H272129   3.963   1.776  16.408 -0.2979  0.2098 -2.4892
16880TIP3   OH272130   4.129   6.040   3.302 -0.4926 -0.1241  0.9808
16880TIP3    H172131   4.152   6.124   3.340 -0.7664 -0.7268  2.5398
16880TIP3    H272132   4.045   6.017   3.343  0.6161 -2.1342  2.2456
16881TIP3   OH272133   1.698   2.767  11.779  0.1130  0.2243 -0.1002
16881TIP3    H172134   1.700   2.718  11.861 -0.2835 -0.3501 -0.4311
16881TIP3    H272135   1.699   2.700  11.711 -0.0425  0.6861 -0.5578
16882TIP3   OH272136   0.756   2.417   5.152 -0.0535 -0.1028  0.1288
16882TIP3    H172137   0.843   2.378   5.163 -0.2373  0.0175  2.0243
16882TIP3    H272138   0.738   2.409   5.058  1.9651 -0.2206 -0.2664
16883TIP3   OH272139   6.241   1.179   0.942  0.0794 -0.2350 -0.3082
16883TIP3    H172140   6.212   1.223   1.022 -2.2993  0.3806 -1.4860
16883TIP3    H272141   6.309   1.118   0.972  1.0897  1.8518  1.7953
16884TIP3   OH272142   1.717   3.394   2.314 -0.1769 -0.1596 -0.6624
16884TIP3    H172143   1.802   3.394   2.359 -0.1025 -0.5713 -0.7955
16884TIP3    H272144   1.661   3.449   2.369 -0.0311 -0.4893 -0.1737
16885TIP3   OH272145   4.812   2.434  12.569 -0.4188 -0.3663 -0.3492
16885TIP3    H172146   4.893   2.387  12.587 -1.1779 -1.2361  0.8678
16885TIP3    H272147   4.826   2.521  12.608  0.1780 -0.2841 -0.7413
16886TIP3   OH272148   4.855   5.449  13.215  0.0939  0.2395  0.5198
16886TIP3    H172149   4.859   5.492  13.129 -1.6125 -3.0337 -1.2776
16886TIP3    H272150   4.801   5.507  13.268  0.4438  1.8837 -0.8745
16887TIP3   OH272151   4.162   5.694  15.328  0.4892 -0.1039 -0.0178
16887TIP3    H172152   4.207   5.670  15.247 -0.2612 -2.0146  0.0906
16887TIP3    H272153   4.161   5.613  15.379 -1.4956  0.3428  0.7213
16888TIP3   OH272154   6.602   1.761  12.587 -0.8145  0.5101  0.0581
16888TIP3    H172155   6.533   1.709  12.628 -0.1747  0.1908  0.7231
16888TIP3    H272156   6.683   1.716  12.608 -0.3675  1.0476 -0.4840
16889TIP3   OH272157   4.425   1.334  11.907 -0.7963 -0.0587 -0.2142
16889TIP3    H172158   4.421   1.378  11.992  1.5778 -0.0756 -0.0394
16889TIP3    H272159   4.347   1.278  11.905 -0.7179 -0.3175  2.1246
16890TIP3   OH272160   1.551   0.512   1.607 -0.5545 -0.0275  0.6996
16890TIP3    H172161   1.615   0.542   1.671 -0.5334  1.2880  0.0937
16890TIP3    H272162   1.577   0.556   1.525 -0.5467 -1.7123 -0.2261
16891TIP3   OH272163   2.899   4.225   2.214  0.4254  0.5545 -0.5662
16891TIP3    H172164   2.984   4.254   2.183  0.9916  1.2086  1.5314
16891TIP3    H272165   2.867   4.297   2.269 -1.5614  0.3942 -1.4419
16892TIP3   OH272166   6.327   1.590   5.819 -0.1219 -0.3296  0.9694
16892TIP3    H172167   6.371   1.666   5.780 -1.7842  0.2856  0.2227
16892TIP3    H272168   6.236   1.619   5.832 -0.3343 -1.5792  2.4053
16893TIP3   OH272169   6.384   1.673   0.304  0.5492 -0.2049  0.2786
16893TIP3    H172170   6.473   1.697   0.329  0.0545  1.5979  0.3798
16893TIP3    H272171   6.367   1.591   0.352  2.3662 -0.9173 -0.2640
16894TIP3   OH272172   6.008   0.035  14.800 -0.7648  0.3434  0.6873
16894TIP3    H172173   5.947  -0.037  14.819 -0.9612  0.9758  2.5003
16894TIP3    H272174   5.954   0.114  14.806  0.0207  0.8341  1.3889
16895TIP3   OH272175   5.743   3.400  14.940  0.1909  0.4672 -0.9932
16895TIP3    H172176   5.717   3.337  14.873  1.3762  1.9500 -2.9294
16895TIP3    H272177   5.803   3.352  14.997  0.6901 -0.3031 -2.1515
16896TIP3   OH272178   0.915   2.543  10.935 -0.8067 -0.1345  0.3532
16896TIP3    H172179   0.881   2.631  10.927 -1.3548 -0.3701  0.0663
16896TIP3    H272180   1.001   2.554  10.975 -1.5977  0.3860  1.9560
16897TIP3   OH272181   3.427   0.656   1.059  0.1943 -0.2525 -0.1482
16897TIP3    H172182   3.468   0.703   1.131  0.8765 -0.9278 -0.0946
16897TIP3    H272183   3.412   0.567   1.093 -0.9684 -0.1198 -0.2885
16898TIP3   OH272184   2.970   0.933   6.539 -0.4270  0.2827  0.4209
16898TIP3    H172185   2.947   1.008   6.595 -0.1062  0.6778  0.0221
16898TIP3    H272186   2.891   0.917   6.487 -0.7113 -0.0565  0.9540
16899TIP3   OH272187   5.045   3.521  12.834 -0.2662 -0.2481 -0.5804
16899TIP3    H172188   4.954   3.520  12.804  0.5107  0.5958 -3.1207
16899TIP3    H272189   5.074   3.610  12.818  0.5398 -0.0797  1.7475
16900TIP3   OH272190   5.081   4.859   0.572 -0.4725 -0.6302  0.5245
16900TIP3    H172191   4.991   4.852   0.602 -0.5650 -2.6975 -0.1018
16900TIP3    H272192   5.077   4.913   0.493 -0.9875  0.2543  1.1559
16901TIP3   OH272193   3.868   2.403   4.956 -0.3842 -0.0242 -0.2416
16901TIP3    H172194   3.926   2.326   4.955  0.7548  0.7624  2.1914
16901TIP3    H272195   3.783   2.368   4.984 -0.6307 -0.8447 -1.9110
16902TIP3   OH272196   5.687   2.466   4.012  0.5362  0.1646 -0.0606
16902TIP3    H172197   5.594   2.446   4.000  0.2740  1.1373  0.2940
16902TIP3    H272198   5.701   2.461   4.107  0.7845  0.2388 -0.0921
16903TIP3   OH272199   2.323   5.377   4.859 -0.4656 -0.4546  0.0690
16903TIP3    H172200   2.245   5.414   4.901  0.1983  2.6726 -1.3865
16903TIP3    H272201   2.393   5.393   4.922 -0.4466 -0.6452  0.0972
16904TIP3   OH272202   1.318   6.686   0.492 -0.0519  0.2088  0.3553
16904TIP3    H172203   1.388   6.624   0.512 -0.4219 -0.0835  0.7610
16904TIP3    H272204   1.321   6.697   0.397  1.3382  1.1485  0.4910
16905TIP3   OH272205   0.522   6.135  17.200  0.3350  0.4617 -0.2267
16905TIP3    H172206   0.573   6.216  17.197  0.7860  0.1663 -0.5732
16905TIP3    H272207   0.587   6.065  17.199 -0.0733  0.0783 -0.8655
16906TIP3   OH272208   4.225   4.268  12.547 -0.0718  0.6020  0.0184
16906TIP3    H172209   4.292   4.223  12.597 -0.5084 -0.8957 -0.7177
16906TIP3    H272210   4.273   4.309  12.474 -0.1543 -1.9635 -1.5221
16907TIP3   OH272211   0.884   1.500   5.630 -0.6455 -0.1019  0.2946
16907TIP3    H172212   0.858   1.539   5.546  1.0197 -0.6497 -0.4996
16907TIP3    H272213   0.871   1.406   5.619  2.1823 -0.4481 -0.3388
16908TIP3   OH272214   1.620   3.727   2.080  0.1841  0.4782 -0.9139
16908TIP3    H172215   1.566   3.652   2.053  1.2495 -0.3967 -0.6713
16908TIP3    H272216   1.596   3.797   2.020 -0.3973 -0.2468 -1.5410
16909TIP3   OH272217   6.408   6.306  11.611 -0.2399 -0.0932 -0.1537
16909TIP3    H172218   6.325   6.262  11.628  0.7087 -1.2376  1.6177
16909TIP3    H272219   6.383   6.390  11.571 -2.2184 -0.5851  0.0153
16910TIP3   OH272220   1.591   2.228   2.664 -0.4788 -0.4378 -0.4888
16910TIP3    H172221   1.612   2.153   2.609  0.8217 -0.9384  0.6593
16910TIP3    H272222   1.572   2.190   2.750  0.3592  0.5611  0.1509
16911TIP3   OH272223   0.111   1.347   0.563 -0.5885  0.6260 -0.1460
16911TIP3    H172224   0.134   1.428   0.610 -0.2797  1.1852 -1.2290
16911TIP3    H272225   0.022   1.327   0.592 -0.7833  1.5309 -0.0841
16912TIP3   OH272226   2.782   2.364   0.722 -0.7525  0.6142 -0.2912
16912TIP3    H172227   2.757   2.452   0.748  1.4072  1.4036 -0.7650
16912TIP3    H272228   2.721   2.341   0.651 -1.2332  1.7659 -0.2595
16913TIP3   OH272229   4.028   1.234  14.764  0.1405  0.8446  0.0955
16913TIP3    H172230   4.031   1.318  14.808 -1.8016  1.6228 -1.2096
16913TIP3    H272231   3.935   1.216  14.752  0.5007 -1.7868  0.8960
16914TIP3   OH272232   1.174   4.817   0.451  0.0498  0.4831 -0.2938
16914TIP3    H172233   1.218   4.733   0.466  0.7673  0.6078 -1.5789
16914TIP3    H272234   1.206   4.845   0.365 -1.3358  1.3491 -0.5389
16915TIP3   OH272235   4.052   0.494   3.463  0.4660  0.5110 -0.0976
16915TIP3    H172236   3.958   0.512   3.452  0.1808 -0.9508 -0.2585
16915TIP3    H272237   4.082   0.557   3.528 -1.1973 -0.6650  1.8432
16916TIP3   OH272238   0.848   1.337  15.047  0.1346 -0.3482  0.0191
16916TIP3    H172239   0.904   1.290  15.108  1.4311 -0.4276 -1.2159
16916TIP3    H272240   0.907   1.394  14.999 -0.4404 -2.1625 -2.9710
16917TIP3   OH272241   1.466   1.826   6.460  0.0401 -0.3011  0.1598
16917TIP3    H172242   1.475   1.736   6.491 -0.8640  0.2413  2.0467
16917TIP3    H272243   1.384   1.826   6.410  0.3131 -0.6423 -0.2914
16918TIP3   OH272244   1.738   6.210   4.104  0.0380  0.0541 -0.1818
16918TIP3    H172245   1.798   6.152   4.057  0.0636  0.0958 -0.2012
16918TIP3    H272246   1.766   6.205   4.195 -1.0294 -1.2624  0.0831
16919TIP3   OH272247   5.520   4.668  15.846 -0.3767 -0.1702  0.4381
16919TIP3    H172248   5.429   4.641  15.862 -0.0152 -2.3362 -0.9269
16919TIP3    H272249   5.571   4.588  15.859  1.3524  1.0201  1.1786
16920TIP3   OH272250   3.061   6.567  11.774 -1.0371  0.0779 -0.2259
16920TIP3    H172251   3.138   6.605  11.815 -0.8413 -1.0826  0.4925
16920TIP3    H272252   3.045   6.622  11.697 -0.4117  1.2397  0.4661
16921TIP3   OH272253   1.472   4.215   6.023 -0.9178  0.3127  0.1002
16921TIP3    H172254   1.489   4.124   6.047  0.2878  0.3955 -0.4000
16921TIP3    H272255   1.435   4.254   6.102  0.6085 -0.0553  1.0058
16922TIP3   OH272256   4.669   4.741   0.025 -0.3962  0.4853 -0.3979
16922TIP3    H172257   4.719   4.807   0.075 -0.7533  1.3783 -1.2014
16922TIP3    H272258   4.579   4.754   0.053 -0.4305  0.1443 -0.3553
16923TIP3   OH272259   1.239   1.611  15.636  0.1609 -0.3259 -0.1626
16923TIP3    H172260   1.274   1.590  15.723  2.0230  0.0537 -0.8098
16923TIP3    H272261   1.287   1.554  15.577 -1.8388 -1.3376 -0.8624
16924TIP3   OH272262   3.882   3.113   4.309 -0.2977  0.0929 -0.2083
16924TIP3    H172263   3.978   3.106   4.310 -0.3915 -1.3834  0.3316
16924TIP3    H272264   3.865   3.207   4.320  1.0921  0.4947 -1.2832
16925TIP3   OH272265   1.230   1.095   3.486 -0.5339 -0.2894 -0.3965
16925TIP3    H172266   1.203   1.037   3.557 -1.1364  0.4131 -0.0465
16925TIP3    H272267   1.260   1.036   3.417  0.3944 -0.9728  0.5706
16926TIP3   OH272268   5.950   0.296  15.084  0.2723 -0.1746  0.2846
16926TIP3    H172269   5.886   0.279  15.153 -0.3133 -0.9785 -0.4508
16926TIP3    H272270   5.989   0.210  15.066 -1.4979 -0.4658 -2.2836
16927TIP3   OH272271   2.828   4.857  16.378  0.5272  0.1628  0.2678
16927TIP3    H172272   2.904   4.830  16.428  0.8398 -0.3909 -0.5033
16927TIP3    H272273   2.864   4.901  16.300  0.0738 -0.5379 -0.3441
16928TIP3   OH272274   2.149   0.529   0.473 -0.0390 -0.1789  0.5071
16928TIP3    H172275   2.137   0.506   0.381  1.4368  0.4596  0.1460
16928TIP3    H272276   2.079   0.592   0.491 -0.1009 -0.0238 -0.2793
16929TIP3   OH272277   4.809   6.193  14.614 -0.6052  0.8874  0.8151
16929TIP3    H172278   4.764   6.255  14.672  0.5065  1.5263  0.9998
16929TIP3    H272279   4.902   6.205  14.634 -0.1333  1.7422 -1.7090
16930TIP3   OH272280   6.165   6.131   4.009  0.3563 -0.4389  0.4639
16930TIP3    H172281   6.191   6.191   3.939 -0.6625 -1.4941 -0.8472
16930TIP3    H272282   6.238   6.069   4.015 -0.7695 -2.0171 -1.6180
16931TIP3   OH272283   0.923   6.006   0.282 -1.2017 -0.2672  0.0377
16931TIP3    H172284   0.939   5.978   0.372 -0.2652 -0.4492 -0.1852
16931TIP3    H272285   0.904   5.925   0.235 -0.5516 -0.2934 -0.1732
16932TIP3   OH272286   2.967   2.547  12.941  0.6440  0.1952  0.1807
16932TIP3    H172287   2.968   2.641  12.957  0.8557  0.1033  0.6971
16932TIP3    H272288   2.898   2.513  12.997  0.3109  0.0930 -0.2892
16933TIP3   OH272289   0.082   3.713  11.910 -0.1600 -0.2182 -0.1509
16933TIP3    H172290   0.168   3.701  11.950 -0.0733  1.7194  0.3212
16933TIP3    H272291   0.065   3.807  11.919 -1.7270 -0.3599 -1.4691
16934TIP3   OH272292   4.322   3.865   0.279 -0.4409 -0.3193 -0.1026
16934TIP3    H172293   4.320   3.912   0.196 -0.8670  2.9143  1.6388
16934TIP3    H272294   4.415   3.849   0.296 -0.1127  2.0121  0.3833
16935TIP3   OH272295   2.024   1.377  15.790  0.1243  0.0132 -0.1212
16935TIP3    H172296   2.114   1.352  15.813  0.0088 -1.3105 -1.0258
16935TIP3    H272297   1.972   1.300  15.812 -0.5325  0.1304 -1.2210
16936TIP3   OH272298   0.080   3.565   3.521  0.5165 -0.6281 -0.3981
16936TIP3    H172299   0.089   3.582   3.428  1.4689  0.1876 -0.1659
16936TIP3    H272300   0.072   3.652   3.561  1.0895 -0.9176  0.3646
16937TIP3   OH272301   2.087   2.868  14.945  0.2976  0.0413  0.4722
16937TIP3    H172302   2.085   2.907  15.033  1.2458  0.3509  0.3603
16937TIP3    H272303   2.056   2.938  14.888  0.7121  0.1891  0.4303
16938TIP3   OH272304   0.273   0.454   0.369  0.7882 -0.5306 -0.1631
16938TIP3    H172305   0.346   0.449   0.432  0.1487  0.8698  0.7337
16938TIP3    H272306   0.232   0.539   0.388 -1.1318 -1.3490 -0.5978
16939TIP3   OH272307   4.698   6.796  11.794  0.1856 -0.5622 -0.1133
16939TIP3    H172308   4.662   6.880  11.822  0.0927 -0.6883  0.1448
16939TIP3    H272309   4.714   6.807  11.701 -1.4537 -0.8413 -0.4444
16940TIP3   OH272310   3.380   5.932  14.432 -1.2428  0.8666  0.6291
16940TIP3    H172311   3.369   5.912  14.339 -1.7388  0.9032  0.6802
16940TIP3    H272312   3.406   5.849  14.472 -0.4203  0.9880  0.3566
16941TIP3   OH272313   0.361   2.862   2.890 -0.5992 -0.0420  0.4770
16941TIP3    H172314   0.317   2.827   2.813  0.2859 -2.6992  1.1436
16941TIP3    H272315   0.454   2.859   2.868 -0.3186 -1.1943  1.7838
16942TIP3   OH272316   5.870   3.203  13.855  0.4237  0.3605 -0.3554
16942TIP3    H172317   5.923   3.282  13.840  0.9129 -0.5383 -3.6253
16942TIP3    H272318   5.934   3.132  13.858 -0.3119 -0.3190 -0.7652
16943TIP3   OH272319   2.520   4.208   0.718  0.3935  0.4871  0.2033
16943TIP3    H172320   2.483   4.282   0.669  1.6910 -0.4087 -2.1839
16943TIP3    H272321   2.518   4.135   0.656  1.7116 -0.7699  1.6166
16944TIP3   OH272322   1.332   0.683   2.432 -0.5017 -0.0465  0.7497
16944TIP3    H172323   1.243   0.676   2.396 -0.0035 -1.6968 -0.1778
16944TIP3    H272324   1.334   0.619   2.502  0.4138 -1.0386 -0.1789
16945TIP3   OH272325   2.162   2.163  15.280 -0.2165 -0.5769 -0.0791
16945TIP3    H172326   2.160   2.071  15.305  0.3660 -0.4877  0.2997
16945TIP3    H272327   2.094   2.204  15.334 -1.3225 -0.9923 -1.1252
16946TIP3   OH272328   5.095   3.619  16.035  0.3424  0.1655  0.2359
16946TIP3    H172329   5.032   3.602  16.105 -2.4138  1.8583 -1.7011
16946TIP3    H272330   5.126   3.708  16.051  0.5917  0.1304 -0.0384
16947TIP3   OH272331   2.740   2.853  14.558 -0.3698 -0.0752  0.4634
16947TIP3    H172332   2.663   2.844  14.502  0.6130 -0.7572 -0.8255
16947TIP3    H272333   2.775   2.765  14.566 -0.4655  0.0232  2.1542
16948TIP3   OH272334   6.034   4.787   5.215  0.3089  0.2840 -0.0256
16948TIP3    H172335   5.966   4.732   5.176  0.0370  0.5026  0.1397
16948TIP3    H272336   5.988   4.865   5.245  0.3805 -0.1876  1.3616
16949TIP3   OH272337   6.111   3.212   4.536 -0.1971 -0.3179 -0.2833
16949TIP3    H172338   6.206   3.202   4.526  0.2715  2.3875  1.1678
16949TIP3    H272339   6.092   3.172   4.621  0.0373  1.1962  0.5059
16950TIP3   OH272340   4.292   1.308   4.737  0.2796  0.7633  0.1378
16950TIP3    H172341   4.370   1.360   4.715  1.3218 -0.4944  0.8061
16950TIP3    H272342   4.293   1.236   4.674  0.4963 -0.0746  1.0800
16951TIP3   OH272343   2.158   3.354   5.475 -0.6887  0.3352  0.0075
16951TIP3    H172344   2.246   3.329   5.447 -1.2322 -1.2070 -0.3849
16951TIP3    H272345   2.118   3.391   5.396  0.1779  2.7109  0.6359
16952TIP3   OH272346   6.774   2.609   2.216  0.3578 -0.3262 -0.6588
16952TIP3    H172347   6.698   2.618   2.159  1.5302 -1.6992 -2.5165
16952TIP3    H272348   6.847   2.643   2.164  1.4632 -1.6538 -0.0011
16953TIP3   OH272349   0.318   0.304   0.128  0.5945 -0.1350 -0.5731
16953TIP3    H172350   0.295   0.367   0.196  1.4298  0.8031 -1.1474
16953TIP3    H272351   0.349   0.358   0.055  1.2568 -1.2077 -1.0918
16954TIP3   OH272352   6.785   6.137   0.965 -0.1491  0.4834  0.0741
16954TIP3    H172353   6.696   6.114   0.939 -0.0538 -1.4326  1.3517
16954TIP3    H272354   6.841   6.082   0.911  0.2368  1.0436 -0.1015
16955TIP3   OH272355   2.920   1.054   6.269  0.0727  0.6197  0.2322
16955TIP3    H172356   2.866   1.069   6.190 -0.1059  0.2450  0.2804
16955TIP3    H272357   2.860   1.011   6.330  0.4265  0.1975  0.2850
16956TIP3   OH272358   3.497   0.097  15.369  0.0717  0.1113 -0.4372
16956TIP3    H172359   3.456   0.127  15.288  2.1248  3.8062 -0.1843
16956TIP3    H272360   3.425   0.094  15.432 -0.7183  1.6681 -1.2378
16957TIP3   OH272361   1.102   1.867  14.884  0.4241  0.3306  0.4047
16957TIP3    H172362   1.029   1.826  14.837  0.7897 -0.1715  0.2685
16957TIP3    H272363   1.181   1.835  14.839  0.7020  1.5049  0.0405
16958TIP3   OH272364   6.616   4.145  11.240  0.4355  0.1916  0.4627
16958TIP3    H172365   6.615   4.151  11.144 -0.5477  0.0050  0.4573
16958TIP3    H272366   6.701   4.181  11.265  1.0843 -0.5974 -0.5348
16959TIP3   OH272367   0.781   6.462   1.455  0.7768 -0.0619  0.4055
16959TIP3    H172368   0.765   6.467   1.361  0.3596  1.6583  0.5555
16959TIP3    H272369   0.748   6.544   1.490  0.6908 -0.7909  2.1031
16960TIP3   OH272370   4.562   3.506  16.795  0.0652  0.0660  0.1017
16960TIP3    H172371   4.609   3.531  16.715  0.4886 -0.2237  0.2618
16960TIP3    H272372   4.489   3.452  16.763  1.4464 -1.8368  0.0572
16961TIP3   OH272373   0.815   6.701   0.241  0.2300 -0.0133 -0.2209
16961TIP3    H172374   0.780   6.787   0.260  1.2412 -0.1196  2.2848
16961TIP3    H272375   0.906   6.717   0.216  0.9699 -0.4642  2.0571
16962TIP3   OH272376   1.507   1.161  12.440  0.1029 -0.0462 -0.0513
16962TIP3    H172377   1.596   1.126  12.437  0.0264 -0.1951 -0.6034
16962TIP3    H272378   1.504   1.227  12.371 -0.6928 -1.1887 -1.1312
16963TIP3   OH272379   2.674   5.788   3.688  0.1292  0.3134  0.1687
16963TIP3    H172380   2.583   5.816   3.697 -0.2964 -1.8127  2.8950
16963TIP3    H272381   2.686   5.777   3.593 -1.5186  3.4353 -0.4989
16964TIP3   OH272382   2.698   3.012   0.161 -0.2403 -0.0859  0.2437
16964TIP3    H172383   2.604   3.027   0.159 -0.5967 -2.3006 -0.1284
16964TIP3    H272384   2.708   2.917   0.169  1.9586  0.1261  0.4154
16965TIP3   OH272385   2.646   4.045   4.309 -0.1820 -0.3082  0.7565
16965TIP3    H172386   2.692   4.128   4.313 -1.1298  0.1613  2.2690
16965TIP3    H272387   2.601   4.046   4.224 -0.1565  0.7100  0.7507
16966TIP3   OH272388   3.153   3.520   0.579 -0.0433  0.8491 -0.4070
16966TIP3    H172389   3.197   3.518   0.664  0.3980 -0.7888 -0.6542
16966TIP3    H272390   3.068   3.560   0.597 -0.3238 -0.3282  0.9905
16967TIP3   OH272391   5.829   0.715  13.304  0.8153  0.1941  0.4892
16967TIP3    H172392   5.867   0.788  13.354  2.7354  0.6592 -1.5716
16967TIP3    H272393   5.815   0.751  13.216 -0.5296 -1.2341  0.0973
16968TIP3   OH272394   6.755   4.183  12.493 -0.0427 -0.0447  0.3422
16968TIP3    H172395   6.754   4.279  12.489 -0.6204 -0.1332 -3.3298
16968TIP3    H272396   6.685   4.156  12.433  0.8363 -2.7690  0.4901
16969TIP3   OH272397   3.980   6.657  16.192 -0.1488  0.1151 -0.5876
16969TIP3    H172398   3.892   6.675  16.157 -0.7526 -0.1015  0.7922
16969TIP3    H272399   4.013   6.585  16.139 -0.2714  1.0600 -1.9734
16970TIP3   OH272400   3.216   4.436  15.301 -0.5886  0.0465 -0.9891
16970TIP3    H172401   3.168   4.357  15.276  0.9023 -0.9784 -0.6793
16970TIP3    H272402   3.291   4.438  15.241  0.4746  0.1183  0.3265
16971TIP3   OH272403   0.977   2.150   1.044  0.3328 -0.0053 -0.5472
16971TIP3    H172404   0.979   2.241   1.015  0.2382 -0.3007 -1.4791
16971TIP3    H272405   1.057   2.140   1.096  0.1638  0.7004 -0.1338
16972TIP3   OH272406   2.863   4.627  15.151 -0.3472  0.6638  0.3292
16972TIP3    H172407   2.902   4.655  15.234 -1.9477  2.0377  0.6527
16972TIP3    H272408   2.936   4.592  15.100  1.0900  2.1310  1.3363
16973TIP3   OH272409   5.868   5.394  12.499 -0.4668  0.2600 -0.2232
16973TIP3    H172410   5.943   5.388  12.558  0.8292 -1.7466 -1.9842
16973TIP3    H272411   5.834   5.305  12.494 -2.1328  0.9011 -0.5096
16974TIP3   OH272412   1.197   4.063  16.446  0.0223 -0.2371  0.3945
16974TIP3    H172413   1.150   4.018  16.517 -1.5049  0.1392 -0.3527
16974TIP3    H272414   1.264   4.001  16.419  1.0520 -0.1357  2.6108
16975TIP3   OH272415   4.631   5.386   3.651 -0.0663 -0.6034  0.1565
16975TIP3    H172416   4.699   5.344   3.704  0.4624 -0.1494 -0.1545
16975TIP3    H272417   4.579   5.435   3.714 -1.1138 -2.2859  0.6091
16976TIP3   OH272418   0.138   1.098   1.060  0.7267 -0.3447 -0.3523
16976TIP3    H172419   0.127   1.172   1.001 -1.4867 -1.8634 -1.8995
16976TIP3    H272420   0.212   1.049   1.024 -0.5559 -1.2139 -1.8516
16977TIP3   OH272421   0.728   3.465  11.564  0.3473 -0.0159  0.5044
16977TIP3    H172422   0.735   3.435  11.473  0.6262  2.3323 -0.3063
16977TIP3    H272423   0.635   3.458  11.585 -0.1442  1.7666 -0.8699
16978TIP3   OH272424   3.767   0.891   3.450 -0.1109  0.1003  0.0048
16978TIP3    H172425   3.834   0.955   3.473  0.0738 -0.0486 -0.1179
16978TIP3    H272426   3.693   0.911   3.509 -0.9145  1.8559 -1.5445
16979TIP3   OH272427   3.643   5.977   0.742  0.0172  0.2906  0.0366
16979TIP3    H172428   3.715   5.940   0.690  0.8501  0.4199  1.0874
16979TIP3    H272429   3.599   6.038   0.682 -1.0965 -2.0336 -1.5734
16980TIP3   OH272430   4.261   5.908   5.141  0.0466  0.5245  0.8743
16980TIP3    H172431   4.267   6.002   5.158 -0.3625  0.1038  3.6338
16980TIP3    H272432   4.340   5.872   5.179  1.0415 -0.1138 -1.6849
16981TIP3   OH272433   1.372   6.536  12.599  0.2823 -0.3430  0.0305
16981TIP3    H172434   1.323   6.523  12.680 -0.1002 -0.0228 -0.1453
16981TIP3    H272435   1.356   6.457  12.548  1.4772 -1.0520  0.7549
16982TIP3   OH272436   3.057   6.610   4.417 -0.2322 -0.9964  0.1455
16982TIP3    H172437   3.076   6.516   4.417  0.0409 -0.9529 -1.3518
16982TIP3    H272438   3.097   6.643   4.498  0.1596 -2.0674  0.3972
16983TIP3   OH272439   5.131   6.768  16.773  0.2637 -0.5124  0.0188
16983TIP3    H172440   5.202   6.814  16.727  0.1954  0.4457  0.8506
16983TIP3    H272441   5.152   6.675  16.763  1.6085 -0.2397  0.2043
16984TIP3   OH272442   6.659   3.077  15.629  0.2373 -0.1017 -0.3615
16984TIP3    H172443   6.654   3.171  15.612 -0.5674  0.0504  0.6723
16984TIP3    H272444   6.642   3.037  15.544  2.5493  0.6914 -1.2395
16985TIP3   OH272445   6.449   4.323   5.252 -0.1477  0.6527 -0.4156
16985TIP3    H172446   6.431   4.355   5.340 -0.9644 -0.0698 -0.3219
16985TIP3    H272447   6.545   4.323   5.246 -0.0810  0.2764  0.6235
16986TIP3   OH272448   4.610   3.913  13.455 -0.1429 -0.0054 -0.1413
16986TIP3    H172449   4.558   3.930  13.375  0.8518  1.1185 -0.5656
16986TIP3    H272450   4.668   3.989  13.462  1.9087 -1.5512 -0.0310
16987TIP3   OH272451   3.500   4.340   3.980 -0.1033  0.9430 -0.4104
16987TIP3    H172452   3.427   4.399   3.961 -0.7353  0.3490  0.1389
16987TIP3    H272453   3.459   4.264   4.022  0.7458  0.2969 -0.7305
16988TIP3   OH272454   5.723   2.189  11.087  0.2726 -0.1205  0.1360
16988TIP3    H172455   5.660   2.145  11.144 -0.9696  0.6106 -0.6604
16988TIP3    H272456   5.669   2.241  11.028  1.5324 -0.9462 -1.7756
16989TIP3   OH272457   4.611   2.394  15.644  0.5427  0.5597  0.1450
16989TIP3    H172458   4.698   2.393  15.604 -0.4803 -0.5006 -2.1058
16989TIP3    H272459   4.614   2.467  15.706  2.7916  0.9816 -0.4237
16990TIP3   OH272460   4.735   2.728  11.813 -0.4068  0.0139  0.0738
16990TIP3    H172461   4.704   2.815  11.791 -0.5536 -0.1202 -0.2527
16990TIP3    H272462   4.803   2.742  11.879  0.3110  0.4405 -0.7461
16991TIP3   OH272463   0.160   3.107   0.728  0.0522  0.2149  0.8383
16991TIP3    H172464   0.234   3.151   0.770  0.3225 -0.1986  0.8027
16991TIP3    H272465   0.082   3.146   0.769  0.2732  1.0925  0.4278
16992TIP3   OH272466   1.448   1.685   0.166  0.6112 -0.3018 -0.1820
16992TIP3    H172467   1.397   1.605   0.153  1.1830 -0.5346 -1.0693
16992TIP3    H272468   1.539   1.657   0.153  0.8596  0.3687  0.1109
16993TIP3   OH272469   1.872   6.683  14.101  0.2731  0.5081  0.5661
16993TIP3    H172470   1.958   6.720  14.123  1.2927 -0.6560 -1.3276
16993TIP3    H272471   1.846   6.728  14.021  0.3975 -1.0801 -0.3877
16994TIP3   OH272472   4.113   0.630   1.163 -0.2007  0.1531  0.6094
16994TIP3    H172473   4.092   0.631   1.070  0.9132 -1.5107  0.3081
16994TIP3    H272474   4.088   0.717   1.195 -1.2792  0.4786 -1.0784
16995TIP3   OH272475   0.757   3.730  13.072  0.5965 -0.1046 -0.0432
16995TIP3    H172476   0.763   3.635  13.074  0.5540 -0.0995  0.4897
16995TIP3    H272477   0.842   3.760  13.105  0.8571  0.0503 -0.8421
16996TIP3   OH272478   6.774   0.929   2.514 -0.5420 -0.3861  0.2458
16996TIP3    H172479   6.821   0.847   2.526  1.5608  0.4252 -1.9386
16996TIP3    H272480   6.694   0.905   2.466 -1.2107 -1.4693  1.8872
16997TIP3   OH272481   4.735   3.963  13.010 -0.1941  0.1599  0.2464
16997TIP3    H172482   4.696   3.909  12.942 -3.4574  1.5646  0.8952
16997TIP3    H272483   4.713   3.919  13.092  0.1800  0.6151  0.5965
16998TIP3   OH272484   3.650   3.364   2.416 -0.6106 -0.1162 -0.1227
16998TIP3    H172485   3.584   3.417   2.461 -0.6793 -0.4412  0.1587
16998TIP3    H272486   3.679   3.301   2.482  1.2215  1.1307  0.2942
16999TIP3   OH272487   6.096   6.735   0.218 -0.3647  0.1683 -0.5436
16999TIP3    H172488   6.171   6.755   0.162  0.1117  1.8368  0.6592
16999TIP3    H272489   6.110   6.644   0.245  0.2943 -0.0939 -1.7325
17000TIP3   OH272490   2.878   6.092  12.985  0.4441 -0.2329  0.0426
17000TIP3    H172491   2.932   6.169  13.005 -0.3197  0.5311 -0.7872
17000TIP3    H272492   2.830   6.075  13.066 -0.8206  1.3582 -0.3480
17001TIP3   OH272493   3.512   2.146   3.705 -0.3447  0.9962 -0.3167
17001TIP3    H172494   3.488   2.212   3.641 -0.2081  1.7091  0.3593
17001TIP3    H272495   3.455   2.072   3.686 -1.1310  1.6443 -0.5074
17002TIP3   OH272496   0.932   0.989  11.268  0.7264  0.1020  0.0731
17002TIP3    H172497   0.844   0.992  11.230  0.5785 -0.6422  0.3379
17002TIP3    H272498   0.961   1.080  11.268 -0.6526  0.5830  1.3842
17003TIP3   OH272499   5.766   0.982   1.070 -0.0155  0.5515  0.0007
17003TIP3    H172500   5.843   0.925   1.061  0.4320  0.9145  1.3716
17003TIP3    H272501   5.704   0.929   1.121 -0.0176  0.8960  0.3531
17004TIP3   OH272502   6.244   1.692  13.687  0.4873 -0.5942  0.1614
17004TIP3    H172503   6.249   1.783  13.657  1.4715 -0.8108 -0.3566
17004TIP3    H272504   6.151   1.671  13.683  0.1783  0.5758  0.8498
17005TIP3   OH272505   2.126   0.637   4.982 -0.2832  0.0516 -0.7064
17005TIP3    H172506   2.131   0.564   4.920  1.2169  0.1179 -0.6726
17005TIP3    H272507   2.199   0.694   4.959  0.8193 -0.3596  1.6672
17006TIP3   OH272508   6.340   4.284  11.248 -0.1985  0.2398 -0.4544
17006TIP3    H172509   6.296   4.243  11.174 -1.6750  1.5868 -0.3452
17006TIP3    H272510   6.272   4.335  11.292  0.8874  0.3014  1.2224
17007TIP3   OH272511   0.795   5.408   3.135  0.4112  0.0410  0.3778
17007TIP3    H172512   0.837   5.473   3.079  0.0005 -0.4684 -0.5139
17007TIP3    H272513   0.733   5.458   3.188  2.5527  0.9179  2.1663
17008TIP3   OH272514   0.822   5.376   4.739 -0.2824 -0.3088  0.2508
17008TIP3    H172515   0.849   5.459   4.779 -1.1810  0.8454 -1.4786
17008TIP3    H272516   0.899   5.319   4.747  0.2863  0.6227  1.6107
17009TIP3   OH272517   5.615   0.979   0.797  0.1370 -0.0806 -0.6735
17009TIP3    H172518   5.674   0.940   0.862 -0.5396 -0.1641 -0.0952
17009TIP3    H272519   5.529   0.975   0.839 -0.4289 -0.8113 -1.8750
17010TIP3   OH272520   2.079   1.811  15.904 -0.1456 -0.6039 -0.3865
17010TIP3    H172521   2.171   1.787  15.911  0.0212 -0.5546 -2.1112
17010TIP3    H272522   2.037   1.731  15.870 -0.6574 -0.4713 -0.0674
17011TIP3   OH272523   6.458   3.129  14.912 -0.1742  0.2718  0.1775
17011TIP3    H172524   6.375   3.175  14.926  0.6913  1.4533  1.5948
17011TIP3    H272525   6.519   3.198  14.883  0.3612 -0.5434 -0.6385
17012TIP3   OH272526   2.362   2.286  11.248  0.3271  0.2170 -0.3658
17012TIP3    H172527   2.333   2.244  11.329 -1.2244  1.9859  0.0217
17012TIP3    H272528   2.409   2.217  11.201  0.4013 -1.0987  1.5891
17013TIP3   OH272529   5.126   6.480   0.040  0.2536 -0.0390 -0.0840
17013TIP3    H172530   5.080   6.424  -0.022  1.2891  0.8029 -1.6493
17013TIP3    H272531   5.158   6.420   0.107 -0.8419 -0.9765 -0.3815
17014TIP3   OH272532   4.947   1.792  17.051 -0.1807 -0.4127 -0.0352
17014TIP3    H172533   4.888   1.728  17.091  0.5380 -1.2804 -0.3621
17014TIP3    H272534   4.951   1.863  17.115 -1.8610 -0.1700 -0.1518
17015TIP3   OH272535   4.198   5.094  11.644  0.6679 -0.0438  0.0203
17015TIP3    H172536   4.288   5.109  11.618  0.1460  1.7872 -0.8024
17015TIP3    H272537   4.188   4.999  11.643  2.2237 -0.2107 -1.0896
17016TIP3   OH272538   4.491   4.754  11.499 -0.2612 -0.1100  0.0494
17016TIP3    H172539   4.576   4.763  11.543 -0.7025  0.8074  0.7558
17016TIP3    H272540   4.497   4.673  11.449  1.7999  1.0256 -1.6224
17017TIP3   OH272541   0.574   3.516  14.984  0.5168 -0.0016 -0.2612
17017TIP3    H172542   0.663   3.543  15.007  0.2912  0.6432 -0.1496
17017TIP3    H272543   0.581   3.488  14.892  0.6183  1.0872 -0.5967
17018TIP3   OH272544   1.875   2.337  16.599 -0.4129 -0.3985  0.7000
17018TIP3    H172545   1.873   2.242  16.602 -0.2860 -0.3891  1.1464
17018TIP3    H272546   1.950   2.361  16.655 -1.1679  0.0042  1.5505
17019TIP3   OH272547   6.657   6.457  15.967 -0.3698 -0.1658  0.2385
17019TIP3    H172548   6.597   6.524  15.936 -0.0292  0.2391  0.4381
17019TIP3    H272549   6.692   6.493  16.049  0.7683 -0.0161 -0.3002
17020TIP3   OH272550   3.052   0.540  11.668  0.4856 -0.2628 -0.2437
17020TIP3    H172551   3.020   0.469  11.613  0.5519  0.1961 -0.8726
17020TIP3    H272552   3.048   0.618  11.613 -0.6627  0.4385  0.7845
17021TIP3   OH272553   4.443   1.926  13.762 -0.1227 -0.0151  0.3575
17021TIP3    H172554   4.365   1.962  13.805  0.2974 -0.3600  1.3964
17021TIP3    H272555   4.486   1.874  13.829  1.5337  0.9580  0.0651
17022TIP3   OH272556   1.575   5.721  14.242 -0.5059  0.1126 -0.0271
17022TIP3    H172557   1.543   5.749  14.327  1.5245  0.6665  0.5852
17022TIP3    H272558   1.506   5.665  14.207 -1.9336  0.9494  1.3958
17023TIP3   OH272559   1.494   1.093  10.774 -0.0411  0.0716 -0.6441
17023TIP3    H172560   1.406   1.114  10.807 -0.6637 -0.3009 -2.0586
17023TIP3    H272561   1.503   1.144  10.694  1.0471  0.1074 -0.5132
17024TIP3   OH272562   3.913   4.802   2.242 -0.4858 -0.0404  0.2743
17024TIP3    H172563   3.858   4.779   2.167 -0.3742 -0.6308  0.3722
17024TIP3    H272564   3.877   4.752   2.315  1.7289 -2.4010 -0.2067
17025TIP3   OH272565   1.734   0.602   2.511  0.2583 -0.8531 -0.3495
17025TIP3    H172566   1.726   0.571   2.602  0.2703 -2.3908 -0.8548
17025TIP3    H272567   1.651   0.646   2.493  1.1026  1.4496  1.1146
17026TIP3   OH272568   4.086   2.097  15.472  0.6670 -0.2036  0.1516
17026TIP3    H172569   4.089   2.098  15.568  0.6938  1.7971  0.1519
17026TIP3    H272570   4.172   2.063  15.447  1.0968  0.3305  0.8473
17027TIP3   OH272571   0.745   3.918   5.538 -0.0505 -0.0674  0.2684
17027TIP3    H172572   0.728   3.977   5.465  0.0298  0.4516  0.6624
17027TIP3    H272573   0.659   3.895   5.572 -0.2770 -3.3034 -2.3189
17028TIP3   OH272574   2.720   1.777   0.352 -0.2443  0.2788  0.1921
17028TIP3    H172575   2.661   1.704   0.369 -0.5901  0.3356 -0.7531
17028TIP3    H272576   2.716   1.830   0.431  0.6425 -1.1590  1.2219
17029TIP3   OH272577   5.987   4.050  10.863 -0.9913 -0.6251  0.1837
17029TIP3    H172578   5.906   4.100  10.859 -0.4327  0.2730 -0.2290
17029TIP3    H272579   6.007   4.031  10.771 -0.9267 -1.1559  0.3074
17030TIP3   OH272580   1.695   5.476  16.909  0.0059  0.9302 -0.5653
17030TIP3    H172581   1.770   5.433  16.869  0.5777  1.4058 -0.0219
17030TIP3    H272582   1.733   5.539  16.970 -0.8494  0.2314  0.7126
17031TIP3   OH272583   3.213   3.113  11.398  0.0327 -0.2005 -0.0277
17031TIP3    H172584   3.252   3.027  11.379  1.4166  0.3682  0.1733
17031TIP3    H272585   3.133   3.093  11.447  0.3372 -1.3744  0.0051
17032TIP3   OH272586   5.208   5.776  14.724  0.1826  0.4680 -0.0925
17032TIP3    H172587   5.213   5.777  14.628  1.3328  1.4488 -0.0267
17032TIP3    H272588   5.207   5.683  14.746 -0.8516  0.2332 -1.0881
17033TIP3   OH272589   0.661   3.925   1.558 -0.1610 -0.8499 -0.3727
17033TIP3    H172590   0.708   3.866   1.617 -0.7370 -1.1671 -0.2299
17033TIP3    H272591   0.615   3.985   1.616  1.0370  0.2420 -0.5187
17034TIP3   OH272592   4.242   2.424  12.479 -0.6236  0.3518 -0.5904
17034TIP3    H172593   4.335   2.435  12.455  0.2982 -1.2922  2.0759
17034TIP3    H272594   4.205   2.373  12.407  0.6700  0.4677 -1.3704
17035TIP3   OH272595   3.055   1.813  12.383  0.1309 -0.0591 -0.5764
17035TIP3    H172596   3.015   1.854  12.306  0.3477  0.6771 -0.3033
17035TIP3    H272597   3.058   1.883  12.449 -0.2736 -0.7544  0.1825
17036TIP3   OH272598   6.148   4.258  14.923 -0.1918  0.9560  0.1205
17036TIP3    H172599   6.097   4.282  15.001  0.7361 -1.4436  1.5345
17036TIP3    H272600   6.083   4.243  14.855 -1.2076  0.4183  1.1928
17037TIP3   OH272601   1.386   2.145  12.149 -0.0455  0.5696 -0.7486
17037TIP3    H172602   1.472   2.113  12.121 -0.0453  0.5901 -0.7707
17037TIP3    H272603   1.350   2.074  12.203  0.3626  0.9207 -0.0038
17038TIP3   OH272604   5.302   4.181  13.017 -0.6674  0.2426  0.1107
17038TIP3    H172605   5.231   4.188  13.081 -0.0085  1.1504  0.7412
17038TIP3    H272606   5.333   4.091  13.026 -0.9178  0.2127  0.7005
17039TIP3   OH272607   1.189   1.546   2.653 -0.7704 -0.2110 -0.4232
17039TIP3    H172608   1.158   1.630   2.685  1.1406  0.2422  0.3482
17039TIP3    H272609   1.256   1.568   2.588  0.3080 -1.0902  0.3477
17040TIP3   OH272610   1.447   1.299   4.513  0.8536  0.6256  0.6525
17040TIP3    H172611   1.376   1.280   4.452  1.2124 -1.6036  0.8912
17040TIP3    H272612   1.438   1.234   4.583  1.0991  2.4489  2.4488
17041TIP3   OH272613   6.664   4.945   3.627  0.3297 -0.3622 -0.0363
17041TIP3    H172614   6.729   4.963   3.560  0.7637 -0.3653  0.3810
17041TIP3    H272615   6.693   4.995   3.703 -0.2482 -0.2235  0.1026
17042TIP3   OH272616   0.626   6.678   4.412 -0.4035  0.2848 -0.1057
17042TIP3    H172617   0.653   6.626   4.488 -0.8166  0.7816  0.3918
17042TIP3    H272618   0.602   6.763   4.450 -0.9222  0.4283 -0.7643
17043TIP3   OH272619   1.510   3.633   0.622 -0.3307 -0.1737 -0.0863
17043TIP3    H172620   1.431   3.585   0.597 -0.3845  0.1683 -0.5899
17043TIP3    H272621   1.496   3.656   0.714 -0.8210 -0.1111 -0.1753
17044TIP3   OH272622   4.357   5.911  13.632 -0.1204  0.2170  0.2108
17044TIP3    H172623   4.328   5.945  13.717  2.3497 -1.3279  1.7379
17044TIP3    H272624   4.306   5.831  13.620  0.2698 -0.1157  0.7472
17045TIP3   OH272625   4.407   5.887  11.494  0.1140 -0.1910  0.0273
17045TIP3    H172626   4.383   5.810  11.442  0.8863 -0.5204  0.1499
17045TIP3    H272627   4.348   5.885  11.569  2.6944 -2.9159  2.1284
17046TIP3   OH272628   6.776   2.778   0.587 -0.3492  0.8557  0.2443
17046TIP3    H172629   6.814   2.864   0.572  0.6351  0.4499  0.4040
17046TIP3    H272630   6.792   2.761   0.680  0.1135  0.1791  0.0391
17047TIP3   OH272631   3.399   6.717   2.234 -0.1613  0.8050  0.8068
17047TIP3    H172632   3.385   6.738   2.142  1.0179 -3.0584 -0.3442
17047TIP3    H272633   3.417   6.802   2.275  1.3280  2.3940 -2.8696
17048TIP3   OH272634   0.726   6.012  15.402  0.2207 -0.3331  0.1965
17048TIP3    H172635   0.637   6.028  15.370  0.3719 -0.7543 -0.4621
17048TIP3    H272636   0.732   6.061  15.484 -0.3965  0.2475 -0.0988
17049TIP3   OH272637   3.079   3.197  16.281 -0.0640 -0.7907 -0.4205
17049TIP3    H172638   3.051   3.141  16.353 -1.1463  1.6715  1.1469
17049TIP3    H272639   3.057   3.148  16.202 -1.3024 -2.4069  0.8964
17050TIP3   OH272640   2.066   6.780  13.067 -0.2828  0.8504 -0.6222
17050TIP3    H172641   1.981   6.801  13.028 -0.1948  1.1988 -0.6289
17050TIP3    H272642   2.081   6.688  13.045 -1.5915  0.1973  1.0720
17051TIP3   OH272643   2.267   0.914  14.290 -0.4773 -1.1764  0.2342
17051TIP3    H172644   2.344   0.949  14.334 -0.5260 -2.3425  1.2726
17051TIP3    H272645   2.267   0.820  14.311 -0.7034 -1.6918 -1.9601
17052TIP3   OH272646   6.108   2.307  16.835  0.4963  0.1693 -0.5916
17052TIP3    H172647   6.032   2.365  16.825 -0.3646 -0.7911  0.3533
17052TIP3    H272648   6.117   2.265  16.749 -0.5295 -0.3111 -0.4671
17053TIP3   OH272649   6.400   0.291  13.120 -0.2359  0.5386  0.8048
17053TIP3    H172650   6.362   0.211  13.083  1.5414 -0.1493  0.4285
17053TIP3    H272651   6.482   0.263  13.159 -0.5476  1.8483  2.4438
17054TIP3   OH272652   0.998   0.282  11.456 -0.4062 -0.3146 -0.3082
17054TIP3    H172653   0.967   0.373  11.458 -0.3814 -0.2515 -2.1675
17054TIP3    H272654   1.013   0.260  11.548  0.4113  1.8476  0.1154
17055TIP3   OH272655   4.754   1.490  13.191 -0.5698 -0.0091  0.3852
17055TIP3    H172656   4.679   1.543  13.164 -0.9634 -0.6090  0.2867
17055TIP3    H272657   4.830   1.535  13.153 -1.1208 -0.9349 -1.9255
17056TIP3   OH272658   6.335   3.173  11.363  0.7532  0.6400  0.1411
17056TIP3    H172659   6.329   3.079  11.345 -3.7140  0.4829  1.9384
17056TIP3    H272660   6.420   3.183  11.407  1.0643 -2.6548  0.4421
17057TIP3   OH272661   4.307   5.835  16.148  0.0841 -0.7672  0.1307
17057TIP3    H172662   4.399   5.824  16.122  0.6056  1.8502  0.7278
17057TIP3    H272663   4.312   5.880  16.233 -1.7437  1.2213 -0.7715
17058TIP3   OH272664   5.499   5.789  16.723 -0.5816 -0.0592 -0.5295
17058TIP3    H172665   5.477   5.796  16.816 -0.9004 -0.0321 -0.6055
17058TIP3    H272666   5.452   5.861  16.682  0.2832  0.4811 -0.5859
17059TIP3   OH272667   0.583   5.117   5.648  0.0119  0.0929 -0.3279
17059TIP3    H172668   0.598   5.167   5.728  1.0153 -0.6895 -0.0114
17059TIP3    H272669   0.507   5.158   5.607 -1.0642 -0.0629  1.4832
17060TIP3   OH272670   1.341   6.364  11.617 -0.4299  0.1822  0.1095
17060TIP3    H172671   1.426   6.350  11.658  0.4621  1.1283 -1.3633
17060TIP3    H272672   1.360   6.420  11.541 -2.2868 -0.0162 -0.5291
17061TIP3   OH272673   5.568   5.679   3.940  0.3063  0.1394  0.2142
17061TIP3    H172674   5.585   5.706   3.849 -0.5231  0.7204  0.2200
17061TIP3    H272675   5.649   5.638   3.968  0.5606 -0.0929 -0.8148
17062TIP3   OH272676   0.294   6.732   5.135  0.1457  0.3125 -0.8382
17062TIP3    H172677   0.279   6.682   5.055  0.3761 -1.2979  0.0990
17062TIP3    H272678   0.389   6.749   5.135  0.1431  0.3280 -0.9129
17063TIP3   OH272679   4.279   2.417   2.035  0.1134 -0.0817  0.3132
17063TIP3    H172680   4.333   2.361   2.091  0.3686  0.4992  0.6518
17063TIP3    H272681   4.310   2.505   2.053 -0.8602  0.2412  0.4062
17064TIP3   OH272682   1.247   3.990  14.589  0.4029  0.5078  0.4127
17064TIP3    H172683   1.324   3.943  14.558  0.2384 -0.7035  1.7808
17064TIP3    H272684   1.175   3.928  14.578 -0.3707  1.5997 -0.7758
17065TIP3   OH272685   2.650   0.304  15.960  0.5148 -0.3960  0.4987
17065TIP3    H172686   2.570   0.299  15.907  0.5232 -1.3691  0.5726
17065TIP3    H272687   2.721   0.291  15.898  0.5129 -1.8336  0.7777
17066TIP3   OH272688   3.118   4.703  14.964 -0.0811 -0.5264 -0.3116
17066TIP3    H172689   3.204   4.740  14.984 -0.3479 -0.9136  1.6615
17066TIP3    H272690   3.136   4.612  14.941 -0.0886 -1.0619  1.6912
17067TIP3   OH272691   2.821   1.497   4.659 -0.1150 -1.0228  0.3226
17067TIP3    H172692   2.811   1.558   4.732 -3.3507 -2.4008  1.0961
17067TIP3    H272693   2.842   1.413   4.701 -1.4091 -1.6923 -0.3715
17068TIP3   OH272694   2.591   6.265  13.015 -0.3043 -0.1954 -0.0236
17068TIP3    H172695   2.617   6.176  13.037  1.8990  0.0339 -1.5373
17068TIP3    H272696   2.630   6.319  13.084 -0.9033 -0.3225  0.4132
17069TIP3   OH272697   4.863   5.088   0.833  0.4187  0.5094 -0.1301
17069TIP3    H172698   4.932   5.125   0.778  1.4791 -1.8145 -0.4408
17069TIP3    H272699   4.837   5.008   0.788 -1.4071  0.5575  0.7919
17070TIP3   OH272700   6.795   4.122  12.825  0.3866  0.3123  0.7501
17070TIP3    H172701   6.724   4.058  12.819 -0.8466  1.3860  3.2950
17070TIP3    H272702   6.873   4.069  12.843 -0.2791 -0.6347  0.9109
17071TIP3   OH272703   2.091   3.243   3.797 -0.2879 -0.2087  0.3161
17071TIP3    H172704   2.008   3.232   3.844  1.0042 -0.2097  2.6706
17071TIP3    H272705   2.156   3.205   3.856  1.2607 -1.1679 -1.9778
17072TIP3   OH272706   6.154   1.491   1.328  0.1603 -0.7212 -0.6921
17072TIP3    H172707   6.175   1.428   1.259 -0.3689  0.7156 -2.2207
17072TIP3    H272708   6.085   1.546   1.289  1.5591  1.6330  0.0740
17073TIP3   OH272709   5.648   3.207   2.434  0.6645 -0.4203 -0.0097
17073TIP3    H172710   5.647   3.283   2.493  1.2608  0.2039 -0.8021
17073TIP3    H272711   5.728   3.217   2.384 -0.6758 -0.0399 -2.1324
17074TIP3   OH272712   2.805   1.635  16.641 -0.3958 -0.4531  0.1131
17074TIP3    H172713   2.814   1.540  16.632  0.7608 -0.6704  3.0677
17074TIP3    H272714   2.846   1.655  16.725 -0.8543  2.6454 -0.3515
17075TIP3   OH272715   2.216   2.625   4.394  0.0381  0.2021  0.1407
17075TIP3    H172716   2.151   2.669   4.450 -0.9644  0.0454 -0.8777
17075TIP3    H272717   2.166   2.596   4.318  0.7568 -2.3533  0.5988
17076TIP3   OH272718   4.671   4.186   1.818 -0.2404 -0.9698 -0.0842
17076TIP3    H172719   4.662   4.094   1.794 -1.5453 -1.5910  2.5688
17076TIP3    H272720   4.581   4.220   1.817 -0.1165 -0.5134  1.7856
17077TIP3   OH272721   2.540   4.927  12.723 -0.5520 -0.2565 -0.0509
17077TIP3    H172722   2.484   4.882  12.659  0.2157  0.3782 -1.1804
17077TIP3    H272723   2.570   5.005  12.678  0.7159 -0.2472  0.7929
17078TIP3   OH272724   3.519   0.468   0.067 -0.3006 -0.3580 -0.2105
17078TIP3    H172725   3.552   0.403   0.006 -0.5355  0.3642 -1.1087
17078TIP3    H272726   3.445   0.508   0.022 -0.7571 -0.1399  0.7268
17079TIP3   OH272727   0.304   5.506  13.377  0.4165 -0.9358  0.0257
17079TIP3    H172728   0.385   5.540  13.339 -0.1926  2.5220  1.6594
17079TIP3    H272729   0.330   5.472  13.463  0.5631 -2.2387 -0.5242
17080TIP3   OH272730   0.094   5.488  10.597 -0.1673 -0.0501  0.3003
17080TIP3    H172731   0.036   5.428  10.644 -1.2469 -0.9655 -2.1048
17080TIP3    H272732   0.170   5.435  10.573  1.7842  1.1680  3.5217
17081TIP3   OH272733   3.395   2.097  15.480  0.0628  0.0245  0.3353
17081TIP3    H172734   3.370   2.061  15.395 -1.1830  0.3699  0.5495
17081TIP3    H272735   3.423   2.187  15.461  1.1950 -0.3696  0.0923
17082TIP3   OH272736   6.081   1.327  14.988 -0.1166 -0.1911  0.0322
17082TIP3    H172737   6.151   1.271  15.021 -0.4262 -0.3511  0.4148
17082TIP3    H272738   6.073   1.397  15.054 -0.5738 -0.3816  0.1800
17083TIP3   OH272739   0.638   6.226  12.554 -0.2597  0.2270 -0.0285
17083TIP3    H172740   0.543   6.220  12.540 -0.0289 -2.2680 -0.7533
17083TIP3    H272741   0.649   6.222  12.649 -0.7915 -1.0691 -0.0183
17084TIP3   OH272742   4.840   0.532  12.248  0.7693 -0.4734  0.6442
17084TIP3    H172743   4.808   0.622  12.237  1.4703 -0.6054 -3.1721
17084TIP3    H272744   4.935   0.539  12.245  0.8871 -1.1361  2.4231
17085TIP3   OH272745   3.038   3.832  15.043  0.2701 -0.2337 -0.5459
17085TIP3    H172746   3.096   3.820  15.119  0.9572  0.2469 -0.9895
17085TIP3    H272747   2.953   3.800  15.073  0.6002 -0.3027  0.3452
17086TIP3   OH272748   4.989   1.331  12.100  0.4381 -0.2866 -0.4140
17086TIP3    H172749   4.968   1.292  12.185  3.6474  0.7816  0.9483
17086TIP3    H272750   4.982   1.426  12.115  0.4879 -0.1000 -1.5168
17087TIP3   OH272751   2.039   3.810  12.464  0.3499  0.1893 -0.2717
17087TIP3    H172752   1.975   3.741  12.480 -0.0982  0.2844 -1.6178
17087TIP3    H272753   2.017   3.844  12.378  0.8093  1.7546  0.2100
17088TIP3   OH272754   1.434   5.230  16.064  0.2005  0.0880  0.2011
17088TIP3    H172755   1.515   5.261  16.024 -1.4542  2.9328 -1.1150
17088TIP3    H272756   1.404   5.160  16.007  1.0062 -0.0078 -0.1104
17089TIP3   OH272757   0.097   0.145   2.712  0.0675  0.3859  0.2238
17089TIP3    H172758   0.047   0.068   2.688 -1.0074  1.4398 -0.9556
17089TIP3    H272759   0.182   0.111   2.740  0.5333 -1.0249 -2.8074
17090TIP3   OH272760   3.467   0.681  14.369  0.1097 -0.0344 -0.1172
17090TIP3    H172761   3.418   0.735  14.430  0.3122 -1.2457  1.1333
17090TIP3    H272762   3.543   0.734  14.345 -0.4524  0.8068 -0.0592
17091TIP3   OH272763   2.361   3.404  11.183  0.7726 -0.2361  0.3738
17091TIP3    H172764   2.448   3.373  11.158  0.2342 -1.7507  0.2988
17091TIP3    H272765   2.305   3.382  11.108 -0.1235 -1.4218  1.3612
17092TIP3   OH272766   4.240   3.194  12.274  0.0542  0.2732 -0.6050
17092TIP3    H172767   4.220   3.117  12.327  0.1554  0.9498  0.4256
17092TIP3    H272768   4.230   3.164  12.184  0.7921 -1.1401 -0.2355
17093TIP3   OH272769   2.737   2.182  15.075  0.2634 -0.6885  0.4752
17093TIP3    H172770   2.814   2.131  15.052  0.9145  1.1594 -1.7118
17093TIP3    H272771   2.666   2.144  15.024  0.3903 -0.4826  0.1426
17094TIP3   OH272772   6.711   6.565  16.238  0.6995  0.3022 -0.2224
17094TIP3    H172773   6.759   6.570  16.321 -1.9607  2.1209  1.2938
17094TIP3    H272774   6.630   6.519  16.261 -0.2883  1.2827 -1.6575
17095TIP3   OH272775   5.350   1.797   4.850 -0.1333 -0.6756 -0.4693
17095TIP3    H172776   5.287   1.868   4.864 -0.9633 -1.5974  0.6571
17095TIP3    H272777   5.386   1.814   4.763 -0.0211  1.3313 -0.0617
17096TIP3   OH272778   5.438   1.072  16.830 -0.4464 -0.0217  0.4700
17096TIP3    H172779   5.376   0.999  16.827  0.8537 -1.1296 -0.1105
17096TIP3    H272780   5.406   1.129  16.900 -0.7041 -1.8545  1.8670
17097TIP3   OH272781   2.752   3.290  10.201  0.1290 -0.0214  0.2192
17097TIP3    H172782   2.844   3.308  10.221  0.5450 -0.3769 -1.2963
17097TIP3    H272783   2.705   3.364  10.239  1.3544  1.8033 -1.6451
17098TIP3   OH272784   2.604   1.485  13.446  0.0841 -0.1144  0.2412
17098TIP3    H172785   2.655   1.508  13.368  0.8055  1.4539  1.1589
17098TIP3    H272786   2.515   1.469  13.413  0.8518 -1.5432 -1.1806
17099TIP3   OH272787   0.922   4.062  16.632 -0.0905 -0.1660  0.3235
17099TIP3    H172788   0.905   4.001  16.704 -2.0235  0.4448  0.3920
17099TIP3    H272789   0.909   4.148  16.671 -1.6279  0.1566 -0.8718
17100TIP3   OH272790   6.685   1.306   0.266 -0.3298 -0.7492 -0.1517
17100TIP3    H172791   6.733   1.224   0.278  0.5683 -0.5544 -2.0977
17100TIP3    H272792   6.612   1.301   0.328  1.3658 -1.7060  1.8211
17101TIP3   OH272793   3.044   6.145   4.887 -0.2451  0.5263  0.2211
17101TIP3    H172794   3.082   6.168   4.972  1.0554 -0.7142 -0.0005
17101TIP3    H272795   2.986   6.071   4.906  0.3693 -0.0267 -0.0155
17102TIP3   OH272796   1.746   6.352   4.876  0.4779 -0.1017 -0.1896
17102TIP3    H172797   1.744   6.301   4.957 -0.1885  0.8200  0.3817
17102TIP3    H272798   1.741   6.286   4.806  1.1196 -0.9024  0.5031
17103TIP3   OH272799   3.905   1.706   3.137  0.5843  0.0123  0.0833
17103TIP3    H172800   3.843   1.640   3.104 -1.2394  0.0036  3.3028
17103TIP3    H272801   3.864   1.790   3.116 -0.5314  0.0073  2.1051
17104TIP3   OH272802   6.804   4.758  14.351 -0.6599 -0.2808 -0.3050
17104TIP3    H172803   6.757   4.679  14.379 -0.3668 -0.2726  0.2191
17104TIP3    H272804   6.889   4.753  14.395 -0.2619 -0.1695 -1.0537
17105TIP3   OH272805   4.469   6.018  13.181 -0.1979  0.4180 -0.0994
17105TIP3    H172806   4.480   6.055  13.269  2.6319 -0.4348 -0.0417
17105TIP3    H272807   4.548   6.046  13.134 -0.8691 -0.5706 -1.8520
17106TIP3   OH272808   0.983   3.251  13.640 -0.4018  0.6365 -0.1299
17106TIP3    H172809   1.023   3.338  13.634  1.5827 -0.2506 -0.2057
17106TIP3    H272810   0.951   3.245  13.730 -0.1626  1.2811 -0.0060
17107TIP3   OH272811   2.533   4.552  15.806  0.3909 -0.3990 -0.0926
17107TIP3    H172812   2.459   4.494  15.824  0.6761 -0.6055  0.4487
17107TIP3    H272813   2.531   4.567  15.712 -0.6286 -0.0155 -0.0100
17108TIP3   OH272814   6.160   2.852  16.411  0.4142  0.3777  0.3955
17108TIP3    H172815   6.168   2.931  16.357 -1.9851 -0.2643 -0.9718
17108TIP3    H272816   6.247   2.841  16.450  1.9934  1.3072 -2.7164
17109TIP3   OH272817   2.539   4.069   4.031 -0.0443  0.3539 -0.5357
17109TIP3    H172818   2.443   4.062   4.026 -0.2259  1.9825  0.1114
17109TIP3    H272819   2.561   4.136   3.966  0.5643  0.6073 -0.0736
17110TIP3   OH272820   4.452   2.342  17.154  0.2006 -0.0310  0.3322
17110TIP3    H172821   4.534   2.293  17.165 -0.1199 -0.8213 -0.7125
17110TIP3    H272822   4.427   2.367  17.243  2.4604  1.6720  0.5150
17111TIP3   OH272823   4.288   5.972  12.610 -0.7406  0.1144  0.2793
17111TIP3    H172824   4.315   5.902  12.670 -0.5318  0.3624  0.4764
17111TIP3    H272825   4.232   5.928  12.546  0.5142 -0.5150 -0.4153
17112TIP3   OH272826   0.013   0.595   0.138  0.3793  0.6065 -0.4277
17112TIP3    H172827  -0.031   0.595   0.223  1.1810 -2.6331  0.0465
17112TIP3    H272828   0.096   0.639   0.154  0.4177  0.2337  0.4440
17113TIP3   OH272829   5.177   2.928   3.663  0.0820 -0.5439 -0.0054
17113TIP3    H172830   5.130   2.957   3.741 -1.9432 -1.5502 -0.8162
17113TIP3    H272831   5.136   2.845   3.640  0.6131 -0.2260 -2.1879
17114TIP3   OH272832   3.608   4.584  15.920  0.1345 -0.4409 -0.3362
17114TIP3    H172833   3.583   4.631  15.841 -1.6915 -1.1439 -0.1897
17114TIP3    H272834   3.528   4.540  15.948 -0.1938  2.5337  3.8329
17115TIP3   OH272835   5.941   0.034   6.493  0.0265 -0.8540  1.4471
17115TIP3    H172836   6.003  -0.006   6.554  2.0100  0.2318  0.1863
17115TIP3    H272837   5.943   0.127   6.516 -0.3053 -0.6519  0.6626
17116TIP3   OH272838   4.894   3.467   4.193 -0.0272  0.5783  0.1429
17116TIP3    H172839   4.861   3.475   4.282  2.8327 -1.1846  1.4252
17116TIP3    H272840   4.817   3.445   4.140 -1.0271 -3.2723  2.9781
17117TIP3   OH272841   0.197   1.689  12.167  0.7730  0.4162  0.8960
17117TIP3    H172842   0.105   1.714  12.157  0.7980  1.1014  2.3061
17117TIP3    H272843   0.196   1.594  12.166  0.2396  0.4154 -0.6986
17118TIP3   OH272844   4.856   1.969   2.514  0.4100 -0.0823  0.3690
17118TIP3    H172845   4.910   1.954   2.436 -0.9522  1.1743 -0.8510
17118TIP3    H272846   4.865   1.889   2.565  0.0780 -1.6064 -1.8642
17119TIP3   OH272847   2.758   4.244   3.917 -0.0011  0.5832  0.3517
17119TIP3    H172848   2.786   4.289   3.996 -2.4907  1.0343  1.0254
17119TIP3    H272849   2.830   4.255   3.855  1.7396  0.6706  2.3758
17120TIP3   OH272850   5.263   4.611  15.895 -0.2464  0.2089 -0.2409
17120TIP3    H172851   5.291   4.542  15.955 -1.4235 -0.4833 -0.4837
17120TIP3    H272852   5.168   4.612  15.902 -0.2687  1.5728 -0.5043
17121TIP3   OH272853   0.644   1.785  12.971 -0.1960 -0.1577  0.2731
17121TIP3    H172854   0.587   1.855  13.003 -0.8508 -0.6146  0.1093
17121TIP3    H272855   0.600   1.751  12.894  0.0838 -0.8088  0.3946
17122TIP3   OH272856   0.203   0.839  14.936 -0.3181  0.3471 -0.1753
17122TIP3    H172857   0.260   0.762  14.929 -0.7997 -0.1154  0.9002
17122TIP3    H272858   0.183   0.845  15.030 -5.0612 -1.7293 -0.9293
17123TIP3   OH272859   2.813   3.360  10.572  0.1888  0.3591  0.1978
17123TIP3    H172860   2.857   3.401  10.647 -1.4381  1.9570  0.3096
17123TIP3    H272861   2.857   3.396  10.496 -0.3379  1.3021  0.3290
17124TIP3   OH272862   2.002   2.501   5.839  0.0342  0.5574 -0.0432
17124TIP3    H172863   2.065   2.567   5.868 -0.6054  0.7771  0.8616
17124TIP3    H272864   2.047   2.417   5.851  0.0916  0.7034  0.7518
17125TIP3   OH272865   4.006   3.953   2.002 -0.1599  0.0850  0.2342
17125TIP3    H172866   3.918   3.916   2.006  0.1974 -0.9830 -1.3124
17125TIP3    H272867   4.064   3.878   1.991  0.8887  0.8406  0.4543
17126TIP3   OH272868   3.736   1.411   6.406  0.0664 -0.9603  0.0729
17126TIP3    H172869   3.650   1.433   6.441 -0.1346  0.9315 -1.5393
17126TIP3    H272870   3.798   1.450   6.468 -0.2819  1.7832 -1.2593
17127TIP3   OH272871   2.294   0.234   4.082 -0.3105 -0.0683 -0.0624
17127TIP3    H172872   2.378   0.232   4.127 -1.9891 -1.9730  3.2049
17127TIP3    H272873   2.282   0.145   4.049 -1.3485 -0.0083  0.1343
17128TIP3   OH272874   6.389   6.119  15.700  0.3179  0.3695 -0.2733
17128TIP3    H172875   6.372   6.122  15.794  2.5103  1.0800  0.1400
17128TIP3    H272876   6.302   6.113  15.660 -0.7875  2.2590  1.7148
17129TIP3   OH272877   2.327   5.752   5.051 -0.4174 -0.4760  0.2559
17129TIP3    H172878   2.364   5.707   4.976 -0.8395  1.1806 -0.9791
17129TIP3    H272879   2.392   5.741   5.121  0.6650 -0.7445 -0.7913
17130TIP3   OH272880   3.265   5.457   5.989  0.2000 -0.0976  0.1175
17130TIP3    H172881   3.216   5.443   6.070 -0.0030 -2.0253 -0.3096
17130TIP3    H272882   3.349   5.414   6.005  0.9995  1.4357  0.0985
17131TIP3   OH272883   0.092   2.264   0.863 -0.1209 -0.1218 -0.1635
17131TIP3    H172884   0.154   2.191   0.850  1.5070  1.6072 -2.4274
17131TIP3    H272885   0.007   2.228   0.838  0.3603 -1.7716  0.4811
17132TIP3   OH272886   5.272   5.797  11.366 -0.6856 -0.0009 -0.6613
17132TIP3    H172887   5.275   5.884  11.327 -0.7894 -0.6316 -2.1148
17132TIP3    H272888   5.248   5.812  11.458 -3.0675  1.3520 -1.4534
17133TIP3   OH272889   2.171   4.810  14.883 -0.1641  0.3696  0.5132
17133TIP3    H172890   2.182   4.778  14.793  0.4658 -0.3164  0.8323
17133TIP3    H272891   2.252   4.857  14.901 -0.0826  0.0824  0.8977
17134TIP3   OH272892   5.815   2.199  11.857 -0.3169  0.5592  0.3633
17134TIP3    H172893   5.897   2.182  11.809 -0.2681  1.5503  0.0979
17134TIP3    H272894   5.839   2.261  11.925 -1.4273  3.1565 -1.5481
17135TIP3   OH272895   3.021   1.854   2.639 -0.4540  0.2340  0.1667
17135TIP3    H172896   3.029   1.906   2.559  1.1626  2.4510  1.6819
17135TIP3    H272897   3.086   1.785   2.630  2.5006  2.7567  1.1471
17136TIP3   OH272898   6.038   4.868  11.119  0.4664  0.4153 -0.3754
17136TIP3    H172899   5.977   4.902  11.185  0.8508  1.1608 -0.4001
17136TIP3    H272900   6.065   4.946  11.070  2.2409  0.2265  0.2941
17137TIP3   OH272901   1.151   2.391  13.796 -0.3651 -0.4948  0.2815
17137TIP3    H172902   1.069   2.389  13.845 -0.5202  1.1228  0.1069
17137TIP3    H272903   1.127   2.361  13.708 -0.9293  0.7325  0.0108
17138TIP3   OH272904   0.219   4.377   1.265  0.6752  1.2677  0.3522
17138TIP3    H172905   0.134   4.406   1.297  0.3679 -1.6761  2.3387
17138TIP3    H272906   0.213   4.386   1.170 -1.7199  1.4302  0.4851
17139TIP3   OH272907   2.806   0.235  15.755  0.4403 -0.5903 -0.0006
17139TIP3    H172908   2.811   0.150  15.710  2.8365 -0.2294 -0.4379
17139TIP3    H272909   2.736   0.282  15.709 -0.2229 -1.9364 -0.3998
17140TIP3   OH272910   6.712   3.162   0.786 -0.5071  0.2964  0.2283
17140TIP3    H172911   6.676   3.191   0.702  0.7414 -0.2896 -0.5198
17140TIP3    H272912   6.635   3.147   0.841 -1.2943  1.7758 -0.4368
17141TIP3   OH272913   5.945   3.394   4.930 -0.3276 -0.2511  0.7670
17141TIP3    H172914   5.959   3.457   4.860  1.4154 -1.8945 -0.4208
17141TIP3    H272915   5.924   3.448   5.007 -1.0907  1.6241 -0.7155
17142TIP3   OH272916   6.239   1.019   1.356 -0.1008 -0.2066  0.4136
17142TIP3    H172917   6.190   1.024   1.438 -2.1516 -1.0059 -0.7285
17142TIP3    H272918   6.325   1.056   1.377 -1.2432  1.3930  2.4147
17143TIP3   OH272919   6.202   4.842   1.844 -0.3504  0.0970 -0.3102
17143TIP3    H172920   6.238   4.796   1.768 -0.3395 -1.0387  0.3679
17143TIP3    H272921   6.272   4.901   1.872 -0.3588  0.5244 -1.1825
17144TIP3   OH272922   5.514   2.424   4.924 -0.1574  0.5120  0.2179
17144TIP3    H172923   5.594   2.390   4.883  1.8062  1.8477  2.8009
17144TIP3    H272924   5.467   2.346   4.953  0.7466 -0.2588 -0.3583
17145TIP3   OH272925   2.736   2.963  11.090  0.2692  0.3167 -0.2485
17145TIP3    H172926   2.708   2.983  11.180  0.6122  0.6584 -0.2130
17145TIP3    H272927   2.669   3.003  11.035 -1.0011 -1.6078 -0.1166
17146TIP3   OH272928   1.121   3.139  11.135  0.1341 -0.2717 -0.1042
17146TIP3    H172929   1.171   3.155  11.055  0.6500  2.6949  0.7374
17146TIP3    H272930   1.030   3.136  11.106  0.4466 -1.0046 -1.0255
17147TIP3   OH272931   0.068   6.732  16.079 -0.1823  0.1243 -0.3494
17147TIP3    H172932  -0.027   6.718  16.076 -0.1266 -0.5917  1.0707
17147TIP3    H272933   0.105   6.650  16.045 -0.0333 -0.3046  0.8332
17148TIP3   OH272934   5.884   4.943  14.601  0.3376 -0.2133 -0.1959
17148TIP3    H172935   5.916   4.924  14.689 -1.4312 -0.6973  0.3496
17148TIP3    H272936   5.939   4.889  14.544 -0.7606 -2.5236  0.8901
17149TIP3   OH272937   1.027   4.004  11.986  0.3701  0.0818 -0.4883
17149TIP3    H172938   1.119   3.990  12.011  0.0585 -0.6099  0.2493
17149TIP3    H272939   1.026   4.093  11.950  1.3035  0.1480 -0.3645
17150TIP3   OH272940   4.001   6.407  15.564  0.3890  0.1794 -0.4263
17150TIP3    H172941   3.934   6.456  15.613  0.7571 -0.7550  1.0197
17150TIP3    H272942   4.084   6.440  15.598  0.6497 -2.6835  1.8471
17151TIP3   OH272943   2.038   2.745  16.555  0.0315 -0.2133 -0.6598
17151TIP3    H172944   1.962   2.792  16.589  0.2332  0.1686 -0.7272
17151TIP3    H272945   2.003   2.688  16.486 -0.1696  0.0823 -0.8023
17152TIP3   OH272946   2.304   4.382  11.886 -0.1150  0.3317 -0.0234
17152TIP3    H172947   2.276   4.423  11.805 -0.8777 -0.7802 -0.3305
17152TIP3    H272948   2.245   4.308  11.898 -0.9225  1.2906  2.2766
17153TIP3   OH272949   4.640   5.303  16.269  0.3404 -0.5273 -0.4988
17153TIP3    H172950   4.624   5.294  16.363 -0.7623  2.2175 -0.3688
17153TIP3    H272951   4.730   5.333  16.262  0.6314 -1.3567 -0.3678
17154TIP3   OH272952   0.080   6.591   2.455 -0.3839  0.0702  0.0220
17154TIP3    H172953   0.163   6.580   2.500 -0.1150 -0.5431 -0.6041
17154TIP3    H272954   0.087   6.535   2.377 -1.0181  0.7255 -0.5212
17155TIP3   OH272955   4.888   1.690  14.533  0.4200  0.2064  0.1389
17155TIP3    H172956   4.907   1.781  14.556  0.3975  0.4762 -0.9013
17155TIP3    H272957   4.806   1.694  14.483  0.4497 -0.3741  0.0360
17156TIP3   OH272958   6.759   2.777  13.016 -0.5660  0.7295  0.0552
17156TIP3    H172959   6.680   2.743  12.975 -0.4324  2.5064 -1.7699
17156TIP3    H272960   6.806   2.699  13.046 -0.5040 -0.7072 -3.5645
17157TIP3   OH272961   5.180   1.641   4.413  0.3696 -0.6055  0.0521
17157TIP3    H172962   5.214   1.727   4.437  0.6172 -0.3228 -1.2763
17157TIP3    H272963   5.092   1.658   4.381  0.4622 -0.8308 -0.3247
17158TIP3   OH272964   5.307   0.613  12.024 -0.1487  0.3279 -0.1792
17158TIP3    H172965   5.389   0.598  12.071 -0.0069  0.3966 -0.4063
17158TIP3    H272966   5.330   0.606  11.932 -0.3013  0.8383 -0.2565
17159TIP3   OH272967   2.684   5.477   3.743 -0.0186 -0.2852  0.0789
17159TIP3    H172968   2.674   5.420   3.819 -0.4621 -0.6095 -0.2220
17159TIP3    H272969   2.778   5.492   3.737  0.1700 -1.5767 -0.2795
17160TIP3   OH272970   6.227   3.650  14.532  0.1330 -0.2233  0.1526
17160TIP3    H172971   6.320   3.650  14.553  0.0092 -0.2516  0.7251
17160TIP3    H272972   6.187   3.703  14.601 -0.1627  0.5578 -0.6099
17161TIP3   OH272973   0.271   3.182   3.304 -0.3879  0.1547 -0.0859
17161TIP3    H172974   0.247   3.184   3.211  0.2436  0.0163 -0.2618
17161TIP3    H272975   0.191   3.160   3.350 -0.8881  1.0142 -0.5334
17162TIP3   OH272976   2.034   6.104  13.992  0.1841  0.8454  0.6237
17162TIP3    H172977   1.994   6.185  13.962  0.0568  1.1323  1.5645
17162TIP3    H272978   2.070   6.064  13.912 -0.7343  1.2686 -0.0108
17163TIP3   OH272979   0.022   3.751  16.681  0.2008 -0.2656 -0.8550
17163TIP3    H172980  -0.063   3.766  16.723  0.6605  0.8152 -0.3189
17163TIP3    H272981   0.080   3.723  16.752  0.6426  0.3103 -0.9868
17164TIP3   OH272982   6.238   1.666   5.529  0.1327  0.0838 -0.1573
17164TIP3    H172983   6.172   1.628   5.472  0.8842 -1.9952  0.3182
17164TIP3    H272984   6.188   1.709   5.599 -0.7108 -0.8068 -0.2138
17165TIP3   OH272985   4.159   2.096  12.287  0.2688  0.6146  0.2447
17165TIP3    H172986   4.126   2.049  12.211 -2.7105  1.3522  1.0332
17165TIP3    H272987   4.160   2.031  12.357  2.5868  0.0530 -0.2541
17166TIP3   OH272988   3.345   1.773  14.538 -0.3671 -0.5390 -0.2893
17166TIP3    H172989   3.365   1.680  14.533 -2.6091 -1.0650 -0.0422
17166TIP3    H272990   3.350   1.795  14.631  3.5547  0.4195 -0.6578
17167TIP3   OH272991   4.891   4.273  11.905  0.3022  0.2003  0.5722
17167TIP3    H172992   4.903   4.252  11.997  2.6505  1.2509  0.5508
17167TIP3    H272993   4.831   4.207  11.872  2.3567 -2.4703  2.0234
17168TIP3   OH272994   0.127   2.216  13.830  0.0521  0.6225  0.2596
17168TIP3    H172995   0.085   2.220  13.744 -1.3472 -0.1091  0.8998
17168TIP3    H272996   0.054   2.211  13.892  1.0724 -1.8127  1.3291
17169TIP3   OH272997   3.048   0.152   0.994 -0.8583 -0.3555  0.0257
17169TIP3    H172998   2.969   0.156   1.048 -2.2009  0.4707 -1.9306
17169TIP3    H272999   3.080   0.062   1.004 -1.9866 -0.6645  0.9137
17170TIP3   OH273000   5.526   6.353   3.602 -0.3020 -0.5004 -0.6116
17170TIP3    H173001   5.581   6.275   3.605 -0.4576 -0.6244 -1.0302
17170TIP3    H273002   5.472   6.347   3.681 -0.7294 -1.1218 -0.9495
17171TIP3   OH273003   6.027   3.223   1.009 -0.0355  0.2986 -0.2413
17171TIP3    H173004   6.064   3.187   1.090  1.1905 -0.8863 -1.2928
17171TIP3    H273005   6.049   3.316   1.012 -0.0009  0.2712  0.7809
17172TIP3   OH273006   0.319   6.216   5.059 -0.1073 -0.1247  0.7965
17172TIP3    H173007   0.299   6.277   5.131 -2.6486 -0.7180  0.6445
17172TIP3    H273008   0.296   6.130   5.094  0.7896 -0.6857  0.0335
17173TIP3   OH273009   2.055   1.672  17.087 -0.0261  0.1674  0.0507
17173TIP3    H173010   2.110   1.723  17.146  1.1644  0.4878 -1.3072
17173TIP3    H273011   1.968   1.711  17.095  0.6254  1.6790 -0.1249
17174TIP3   OH273012   2.062   0.791   3.523 -0.4249  1.0556 -0.2694
17174TIP3    H173013   2.080   0.756   3.611 -1.4797  2.9435  0.7146
17174TIP3    H273014   1.972   0.821   3.527  0.4156  3.8674 -1.0837
17175TIP3   OH273015   1.946   1.909  12.576  0.0893 -0.0058 -0.1118
17175TIP3    H173016   1.960   1.886  12.484  0.1874  1.6294 -0.5161
17175TIP3    H273017   1.857   1.880  12.595  0.3177 -0.9848 -0.5247
17176TIP3   OH273018   2.707   1.323   1.301  0.3327  0.2477 -0.0402
17176TIP3    H173019   2.631   1.296   1.353  0.5586 -0.9555 -0.3238
17176TIP3    H273020   2.669   1.366   1.224 -0.0891 -1.3125 -0.7092
17177TIP3   OH273021   5.204   3.453   3.735 -0.4854  0.7212  0.3889
17177TIP3    H173022   5.262   3.393   3.688 -0.8941 -0.5463  1.4583
17177TIP3    H273023   5.260   3.525   3.762  0.1173  0.6099 -0.5422
17178TIP3   OH273024   4.465   2.020  17.007 -0.2378 -0.6173 -0.8036
17178TIP3    H173025   4.474   2.099  17.060 -0.9231 -0.7801 -0.4504
17178TIP3    H273026   4.552   1.979  17.011  0.3823  0.5766 -1.7218
17179TIP3   OH273027   1.695   4.760   5.623 -0.4569  0.0310 -0.6721
17179TIP3    H173028   1.746   4.840   5.634 -0.5103  0.2690 -1.9964
17179TIP3    H273029   1.683   4.726   5.711  1.9337  0.0173 -0.3252
17180TIP3   OH273030   0.289   1.057   3.568  0.4144 -0.3809  0.0409
17180TIP3    H173031   0.300   1.083   3.660 -1.0221  1.3064 -0.2410
17180TIP3    H273032   0.303   1.137   3.518 -0.1007 -0.9985 -1.1335
17181TIP3   OH273033   3.091   2.205  12.192 -0.3910  0.0753 -1.3074
17181TIP3    H173034   3.063   2.203  12.284  1.4819 -1.3098 -0.7365
17181TIP3    H273035   3.185   2.225  12.197  0.3115 -2.7231 -2.7695
17182TIP3   OH273036   1.490   4.396  16.314 -0.0872  0.8231 -0.6308
17182TIP3    H173037   1.502   4.305  16.288 -2.2244  0.4466 -0.3805
17182TIP3    H273038   1.527   4.447  16.242  0.8944 -0.2453 -0.8769
17183TIP3   OH273039   0.375   1.423   5.566 -0.1905  0.0389 -0.1123
17183TIP3    H173040   0.291   1.377   5.562 -0.2814  0.1780  0.1971
17183TIP3    H273041   0.358   1.508   5.525 -0.2301  0.1104  0.0517
17184TIP3   OH273042   2.789   0.457   3.252  0.2232  0.0876 -0.1021
17184TIP3    H173043   2.709   0.501   3.281 -0.4185 -1.9830  1.3851
17184TIP3    H273044   2.860   0.516   3.277 -0.6260  0.2651  1.9364
17185TIP3   OH273045   6.630   1.452   3.828 -0.4222  0.2381 -0.5245
17185TIP3    H173046   6.659   1.377   3.776 -0.9804  0.7375 -1.5726
17185TIP3    H273047   6.711   1.496   3.854 -0.0801 -0.8175  0.2643
17186TIP3   OH273048   1.754   6.757  14.538 -0.5020  0.9153 -0.1369
17186TIP3    H173049   1.754   6.718  14.450  1.8788  2.5590 -0.9133
17186TIP3    H273050   1.826   6.714  14.583 -0.8393  1.0826  0.5624
17187TIP3   OH273051   5.331   5.404  15.456 -0.3817  0.0821  0.3734
17187TIP3    H173052   5.306   5.465  15.526  1.7176  0.7204  0.5840
17187TIP3    H273053   5.380   5.335  15.501  3.2961  1.8529 -0.7310
17188TIP3   OH273054   3.535   6.170   6.094  0.1096  0.0046 -0.0318
17188TIP3    H173055   3.579   6.154   6.177 -0.6290 -2.9549 -0.1502
17188TIP3    H273056   3.559   6.094   6.040 -1.6628  0.4990 -1.5428
17189TIP3   OH273057   3.631   1.764   2.094  0.0665 -0.2365  0.1411
17189TIP3    H173058   3.697   1.700   2.068  1.6400  0.5518  2.0832
17189TIP3    H273059   3.589   1.725   2.171 -0.8743 -0.1600 -0.3223
17190TIP3   OH273060   2.175   4.432   4.874  0.2622  0.5331 -0.3905
17190TIP3    H173061   2.119   4.367   4.916  1.9102 -1.2458 -0.8445
17190TIP3    H273062   2.205   4.389   4.794  1.6691  1.7286 -0.5229
17191TIP3   OH273063   4.792   4.348  13.194  0.2129  0.4535  0.2278
17191TIP3    H173064   4.830   4.435  13.188  2.7718 -0.6692 -0.3301
17191TIP3    H273065   4.795   4.313  13.105 -0.6112 -0.2881  0.4722
17192TIP3   OH273066   5.041   6.056   1.070 -0.3932 -0.1017 -0.2308
17192TIP3    H173067   5.041   6.019   1.158 -1.4929  2.4240  0.8665
17192TIP3    H273068   5.100   6.131   1.076 -0.1109 -0.1856 -1.7849
17193TIP3   OH273069   3.689   6.624  12.842 -0.0061  0.0292  0.6695
17193TIP3    H173070   3.689   6.632  12.937  1.8570 -0.0164  0.6931
17193TIP3    H273071   3.663   6.534  12.825  1.4077 -0.5032  1.2210
17194TIP3   OH273072   2.063   2.987  16.789  0.1558  0.0976 -0.1857
17194TIP3    H173073   2.055   2.940  16.706 -1.4022  1.0908 -0.6172
17194TIP3    H273074   2.132   3.052  16.773  0.4968 -0.3198 -0.4146
17195TIP3   OH273075   3.173   2.614  13.225 -0.7058  0.6372 -0.5156
17195TIP3    H173076   3.163   2.545  13.160  2.3218 -0.8475  0.5170
17195TIP3    H273077   3.268   2.628  13.230 -0.7862  0.0162  4.2529
17196TIP3   OH273078   4.601   0.610  16.195  0.2711 -0.0127  0.1643
17196TIP3    H173079   4.533   0.630  16.259  0.9840  3.3690 -0.0293
17196TIP3    H273080   4.557   0.618  16.110  0.2619 -0.6021  0.1104
17197TIP3   OH273081   0.809   5.396   3.895 -0.0567 -0.0031  0.8080
17197TIP3    H173082   0.845   5.384   3.807  1.7061 -0.7534  1.6166
17197TIP3    H273083   0.777   5.309   3.920 -0.7742  0.2604  0.8345
17198TIP3   OH273084   2.581   2.767  14.339  0.1052 -0.2786 -0.0735
17198TIP3    H173085   2.627   2.755  14.256 -1.0276  0.9448 -0.8971
17198TIP3    H273086   2.489   2.749  14.318 -0.2194  0.2423  0.8598
17199TIP3   OH273087   4.050   2.467  11.463 -0.0728  0.1818 -0.0423
17199TIP3    H173088   4.042   2.403  11.534 -1.4836 -0.2907 -0.5965
17199TIP3    H273089   4.126   2.520  11.486 -0.7895  0.3352  2.0778
17200TIP3   OH273090   3.544   3.732   2.748 -0.2238  0.2393 -0.0108
17200TIP3    H173091   3.516   3.655   2.700  0.1603  0.2541 -0.2642
17200TIP3    H273092   3.489   3.734   2.826 -0.0973 -0.4090  0.0979
17201TIP3   OH273093   4.120   1.673  15.604 -0.0815 -0.7120 -0.1719
17201TIP3    H173094   4.173   1.667  15.525 -1.8443  1.2468 -1.5597
17201TIP3    H273095   4.161   1.612  15.665  1.4350 -2.1127 -2.5071
17202TIP3   OH273096   6.079   6.748  11.386 -0.3585 -0.3741  0.0219
17202TIP3    H173097   6.072   6.828  11.334  0.5278 -0.2542  0.0765
17202TIP3    H273098   5.989   6.717  11.394 -0.9386  1.6010  1.5467
17203TIP3   OH273099   2.894   0.169  15.157 -0.2397  0.7356 -0.4562
17203TIP3    H173100   2.985   0.169  15.126  0.6161 -1.3367  1.9619
17203TIP3    H273101   2.846   0.120  15.090  0.9605 -0.6792 -0.2993
17204TIP3   OH273102   5.228   1.228   0.633  0.0844  0.4436 -0.0891
17204TIP3    H173103   5.320   1.252   0.635  0.0642  0.8705 -2.3934
17204TIP3    H273104   5.186   1.289   0.693  1.1815  0.8588  0.2707
17205TIP3   OH273105   1.827   3.849   1.853  0.1920  0.2960 -0.2951
17205TIP3    H173106   1.746   3.891   1.822 -0.6621 -2.1928 -1.5595
17205TIP3    H273107   1.800   3.761   1.878  2.4485 -0.4584 -0.4313
17206TIP3   OH273108   3.982   2.997   2.382  0.4031 -0.1712 -1.1310
17206TIP3    H173109   3.909   2.953   2.338 -0.4938 -0.4954  0.6533
17206TIP3    H273110   3.955   3.088   2.391 -0.3062 -0.5315  0.5820
17207TIP3   OH273111   1.545   2.576   4.526 -0.5385 -0.1998  0.3682
17207TIP3    H173112   1.634   2.611   4.527 -0.3954 -0.2764 -3.6580
17207TIP3    H273113   1.555   2.484   4.502 -1.7032 -0.1646 -0.3170
17208TIP3   OH273114   1.033   6.548   1.764 -0.2035 -0.4902  0.1924
17208TIP3    H173115   1.093   6.597   1.821  0.3495 -1.1660  0.1883
17208TIP3    H273116   0.946   6.577   1.791  0.1109  0.3207  0.3574
17209TIP3   OH273117   1.406   0.342  17.069 -0.0961 -0.3357  0.2785
17209TIP3    H173118   1.367   0.273  17.124  0.1172  0.2368  1.1532
17209TIP3    H273119   1.366   0.423  17.101 -0.1556 -0.0224 -0.5829
17210TIP3   OH273120   6.468   1.262   2.069 -0.5110 -0.1171  0.6232
17210TIP3    H173121   6.559   1.276   2.098  0.0373  0.8439 -1.5008
17210TIP3    H273122   6.416   1.315   2.129  0.4441  0.4602  0.9620
17211TIP3   OH273123   4.242   1.896  13.564  0.4422  0.0840 -0.4654
17211TIP3    H173124   4.319   1.842  13.585  0.5105  0.3386 -0.0564
17211TIP3    H273125   4.275   1.985  13.563  0.4390  0.0757 -1.6865
17212TIP3   OH273126   0.450   0.379   0.557  0.1002  0.0502 -0.1937
17212TIP3    H173127   0.458   0.420   0.643  1.2326  0.3954 -0.4542
17212TIP3    H273128   0.507   0.303   0.560 -1.5413 -1.1969  0.0828
17213TIP3   OH273129   1.034   4.449   3.650 -0.4848 -0.3317 -0.3538
17213TIP3    H173130   1.129   4.447   3.639 -0.5625 -0.5804 -0.9934
17213TIP3    H273131   1.006   4.359   3.635 -0.7318 -0.4331  0.7055
17214TIP3   OH273132   6.216   5.194   3.534 -0.2398 -0.0260 -0.1532
17214TIP3    H173133   6.305   5.199   3.499 -0.0817 -0.0755  0.2432
17214TIP3    H273134   6.209   5.269   3.594 -1.0703  1.0669 -1.5688
17215TIP3   OH273135   0.179   0.407   5.237 -0.0352 -0.1475  0.0636
17215TIP3    H173136   0.222   0.491   5.223 -2.9389  1.5037  0.6401
17215TIP3    H273137   0.156   0.376   5.150  1.0430 -0.3433 -0.1507
17216TIP3   OH273138   3.515   5.898  15.939  0.2169 -0.0460 -0.0591
17216TIP3    H173139   3.569   5.881  15.862 -0.0221  1.8646 -0.6889
17216TIP3    H273140   3.434   5.850  15.923  1.1023 -1.6276  0.1463
17217TIP3   OH273141   1.454   1.577   6.565  0.6745  0.1221  0.4052
17217TIP3    H173142   1.484   1.530   6.642 -0.0626 -1.5433 -0.2897
17217TIP3    H273143   1.370   1.535   6.543  0.1475  1.5708 -0.4124
17218TIP3   OH273144   4.578   0.101  13.387  0.0620  0.2019  0.1172
17218TIP3    H173145   4.639   0.174  13.373 -0.3285  0.8626  1.7697
17218TIP3    H273146   4.575   0.090  13.482 -1.0373 -1.0033 -0.0420
17219TIP3   OH273147   3.470   4.521  14.276 -0.4216  0.2041 -0.2496
17219TIP3    H173148   3.463   4.610  14.309 -0.1329 -0.2166  0.9723
17219TIP3    H273149   3.560   4.514  14.244  0.7863 -0.7810  3.1301
17220TIP3   OH273150   6.424   6.364   6.602 -0.4372 -0.1700 -0.1551
17220TIP3    H173151   6.474   6.322   6.672  1.0629 -0.9931 -1.6638
17220TIP3    H273152   6.348   6.402   6.645  1.5010  1.1364  2.2157
17221TIP3   OH273153   2.039   6.136   1.040 -0.2784  0.4678 -0.5355
17221TIP3    H173154   2.107   6.084   0.997  0.1362  0.5597  0.0009
17221TIP3    H273155   2.087   6.190   1.103 -0.9923 -0.4113  0.7628
17222TIP3   OH273156   1.590   3.063  16.147  0.1765  0.1139 -0.3266
17222TIP3    H173157   1.529   3.044  16.076  0.1480 -0.9903 -0.0129
17222TIP3    H273158   1.632   2.979  16.165  2.8781  1.1644 -1.5437
17223TIP3   OH273159   0.141   6.017  15.281 -0.0762  0.2035 -0.1090
17223TIP3    H173160   0.235   6.020  15.300  0.4607 -0.3179 -2.5562
17223TIP3    H273161   0.119   6.107  15.254 -0.2564  0.2830  0.2939
17224TIP3   OH273162   1.419   4.319  12.162 -0.1190  0.6231 -0.9008
17224TIP3    H173163   1.435   4.371  12.241 -0.0992  0.7211 -0.9691
17224TIP3    H273164   1.441   4.229  12.188  0.0004  0.6729 -0.8286
17225TIP3   OH273165   6.547   1.085   1.863  0.3781 -0.2386 -0.0593
17225TIP3    H173166   6.507   1.147   1.924 -3.1220 -1.1660 -1.2556
17225TIP3    H273167   6.567   1.138   1.786 -1.7070 -0.3275 -0.7064
17226TIP3   OH273168   6.754   5.277  16.552  0.2643  0.6080 -0.3899
17226TIP3    H173169   6.703   5.215  16.499  0.4396 -0.4762  0.6819
17226TIP3    H273170   6.692   5.309  16.618  0.2577  1.3382 -0.7553
17227TIP3   OH273171   5.685   5.158  12.362 -0.4901 -0.2401 -0.0438
17227TIP3    H173172   5.746   5.221  12.323 -0.1096  0.5263  1.7496
17227TIP3    H273173   5.697   5.078  12.311  4.2956 -1.0958  2.2106
17228TIP3   OH273174   1.714   5.883   5.426 -0.3312 -0.2018 -0.0665
17228TIP3    H173175   1.800   5.880   5.383 -0.3595  1.2116 -0.2492
17228TIP3    H273176   1.669   5.805   5.395  0.2435 -0.0404 -1.3575
17229TIP3   OH273177   3.120   3.072  15.393 -0.4668 -0.1068 -0.4079
17229TIP3    H173178   3.181   3.076  15.319 -1.8269  1.1258 -1.4909
17229TIP3    H273179   3.149   2.996  15.443 -0.0409 -1.4886 -2.6713
17230TIP3   OH273180   6.264   6.423  13.265 -0.6642  0.1422 -0.5698
17230TIP3    H173181   6.345   6.464  13.234  0.0623 -0.3261  0.6531
17230TIP3    H273182   6.195   6.481  13.234  0.0610  0.0295 -2.4663
17231TIP3   OH273183   3.539   6.130   4.745  0.1834  0.0942 -0.0393
17231TIP3    H173184   3.547   6.139   4.840  0.2078 -1.7726  0.1537
17231TIP3    H273185   3.596   6.057   4.723 -1.2616 -0.6860 -1.2370
17232TIP3   OH273186   5.791   0.068   4.960 -0.1267 -0.6474 -0.0211
17232TIP3    H173187   5.805   0.115   5.042 -1.6164  0.3375 -0.3147
17232TIP3    H273188   5.870   0.084   4.909 -0.7090  1.7909 -0.2240
17233TIP3   OH273189   1.862   5.456   3.533 -0.5304 -0.3405  0.1778
17233TIP3    H173190   1.801   5.393   3.494 -0.8906 -0.2160  0.5520
17233TIP3    H273191   1.808   5.517   3.582 -0.0840 -0.4314  0.7983
17234TIP3   OH273192   6.818   4.515   6.038 -0.4150 -0.4778  0.5711
17234TIP3    H173193   6.863   4.584   5.990 -1.3357  0.0695  0.4803
17234TIP3    H273194   6.879   4.441   6.038 -0.9884 -1.0117 -2.7280
17235TIP3   OH273195   3.065   5.734   1.361 -0.7934 -0.3048  0.1240
17235TIP3    H173196   3.133   5.710   1.298 -1.0487  1.1695 -0.7295
17235TIP3    H273197   2.992   5.675   1.341 -1.3831  1.0854 -1.8917
17236TIP3   OH273198   5.611   6.497   2.830 -0.1815  0.4018 -0.0450
17236TIP3    H173199   5.529   6.447   2.825  0.2380 -0.3814  0.6464
17236TIP3    H273200   5.615   6.546   2.748 -1.1178  0.0971 -0.2807
17237TIP3   OH273201   2.702   1.515  16.207 -0.4529 -0.1418  0.0271
17237TIP3    H173202   2.767   1.515  16.137 -0.3054 -1.4022  0.1528
17237TIP3    H273203   2.745   1.560  16.280 -0.5067  0.9287 -0.5876
17238TIP3   OH273204   5.270   2.732  13.324 -0.4932 -0.4382 -0.0119
17238TIP3    H173205   5.271   2.821  13.289  0.6811 -0.6748 -0.6098
17238TIP3    H273206   5.249   2.677  13.248 -2.8805 -0.5534  0.6841
17239TIP3   OH273207   0.709   2.022  14.968  0.4915 -0.1269 -0.3165
17239TIP3    H173208   0.774   2.092  14.982 -0.8402  1.0801 -0.0642
17239TIP3    H273209   0.647   2.032  15.040 -0.0356 -1.2179 -0.6078
17240TIP3   OH273210   5.614   5.323   1.764  0.2800  0.0450  0.0052
17240TIP3    H173211   5.640   5.411   1.737  1.8722 -0.9092 -1.6291
17240TIP3    H273212   5.696   5.278   1.783 -0.5213 -1.1165  0.7794
17241TIP3   OH273213   2.858   5.613  13.849 -0.2882  0.4518 -0.4474
17241TIP3    H173214   2.880   5.651  13.934 -1.6862 -0.7308  0.4662
17241TIP3    H273215   2.904   5.529  13.848 -0.8775  0.1306 -0.5438
17242TIP3   OH273216   6.443   3.796   2.070  0.2623 -0.5714 -0.0273
17242TIP3    H173217   6.387   3.764   2.141  0.1605  0.5659  0.4130
17242TIP3    H273218   6.487   3.717   2.037 -0.2067 -1.2078  0.8460
17243TIP3   OH273219   5.789   0.513   4.202  0.1004 -0.1003  0.0020
17243TIP3    H173220   5.699   0.508   4.170  0.4295 -0.4736 -0.8910
17243TIP3    H273221   5.834   0.439   4.161  1.3749  1.4277 -1.4419
17244TIP3   OH273222   4.441   1.726   2.268 -0.0665 -0.4948  0.4708
17244TIP3    H173223   4.390   1.790   2.317  0.3247 -1.0724  1.6393
17244TIP3    H273224   4.532   1.753   2.281  0.0405 -0.6748  0.0960
17245TIP3   OH273225   3.267   5.756  16.953  0.6206 -0.5214  0.1836
17245TIP3    H173226   3.321   5.802  16.888  0.2926  0.0185  0.2940
17245TIP3    H273227   3.225   5.825  17.003 -1.8281 -0.8896 -1.2532
17246TIP3   OH273228   5.205   2.608  10.229  0.0381  0.0502  0.3112
17246TIP3    H173229   5.266   2.538  10.205  3.6688  2.9277  0.7739
17246TIP3    H273230   5.184   2.651  10.147 -0.6675 -0.3786  0.2657
17247TIP3   OH273231   5.306   0.867  10.406  0.2461  0.0250  0.0938
17247TIP3    H173232   5.282   0.777  10.426 -0.8841  0.3558  0.2067
17247TIP3    H273233   5.257   0.889  10.327  0.6290  0.4994 -0.0222
17248TIP3   OH273234   5.057   5.401  14.336  0.0136 -0.6085 -0.0895
17248TIP3    H173235   5.034   5.482  14.381 -0.4005 -1.3725  1.1048
17248TIP3    H273236   5.116   5.356  14.396 -1.8501 -2.4050  0.4552
17249TIP3   OH273237   3.172   2.203   2.005 -0.0601  0.3558 -0.4479
17249TIP3    H173238   3.173   2.275   2.068  0.4618  1.1981 -1.4047
17249TIP3    H273239   3.261   2.199   1.971 -1.1274  2.3628 -3.8180
17250TIP3   OH273240   1.040   5.995   6.834 -1.0417  0.0296  1.0255
17250TIP3    H173241   1.035   6.079   6.790 -0.9925 -0.1303  0.7173
17250TIP3    H273242   1.059   5.932   6.765  0.7276  0.0030  1.5219
17251TIP3   OH273243   3.511   1.735  15.367 -0.3261  0.2985 -0.8156
17251TIP3    H173244   3.562   1.668  15.322  0.4888 -1.4482  2.5378
17251TIP3    H273245   3.437   1.687  15.406 -0.5664  1.5827  0.3544
17252TIP3   OH273246   1.556   4.302  15.934  0.1632 -0.5440 -0.2280
17252TIP3    H173247   1.580   4.261  15.851 -0.7550 -3.4189  0.8661
17252TIP3    H273248   1.619   4.268  15.997 -0.2716  0.1805  0.6145
17253TIP3   OH273249   2.732   1.323   3.361  0.0968 -0.3006  0.0491
17253TIP3    H173250   2.640   1.309   3.338 -0.2689 -1.4326  2.0859
17253TIP3    H273251   2.734   1.409   3.403 -0.2561 -0.7973  1.1006
17254TIP3   OH273252   0.815   6.802   0.604  0.0304  0.2877  0.1246
17254TIP3    H173253   0.886   6.832   0.546  0.6640  2.6489  2.0857
17254TIP3    H273254   0.856   6.732   0.655  0.3745  0.3185 -0.0988
17255TIP3   OH273255   3.815   0.801   3.184  0.2757  0.1760  0.2972
17255TIP3    H173256   3.812   0.858   3.261 -1.0617 -0.2802  0.5955
17255TIP3    H273257   3.893   0.830   3.136  0.4020  1.3155  1.1600
17256TIP3   OH273258   5.263   5.439   0.419  0.0409 -0.3284  0.3299
17256TIP3    H173259   5.355   5.426   0.444  0.6797  2.0604 -0.6696
17256TIP3    H273260   5.217   5.445   0.502  1.4317  2.6468  0.9465
17257TIP3   OH273261   0.718   5.278   0.798 -0.2641  0.1093 -0.5217
17257TIP3    H173262   0.704   5.255   0.890 -1.1283  1.3930 -0.3119
17257TIP3    H273263   0.633   5.313   0.769  0.0349 -0.1685 -1.7747
17258TIP3   OH273264   3.117   6.193   0.098 -0.2093 -0.4695 -0.9414
17258TIP3    H173265   3.104   6.180   0.005  1.7279  1.0988 -1.4583
17258TIP3    H273266   3.064   6.269   0.120  0.2329 -0.1384 -1.0094
17259TIP3   OH273267   1.890   6.058  12.028 -0.3802  0.3518 -0.1115
17259TIP3    H173268   1.856   5.971  12.008 -0.4190  0.2712  0.2857
17259TIP3    H273269   1.813   6.109  12.054 -0.0956 -0.1224  1.7922
17260TIP3   OH273270   6.308   1.996   4.830 -0.2280  0.4460 -0.1506
17260TIP3    H173271   6.291   1.916   4.780  1.2769  0.3926 -0.6254
17260TIP3    H273272   6.377   2.040   4.781  2.3725 -0.3300  2.6280
17261TIP3   OH273273   3.228   1.882  13.793 -0.0819  0.3720  0.2575
17261TIP3    H173274   3.172   1.953  13.761 -1.5781 -1.0466 -0.3298
17261TIP3    H273275   3.233   1.821  13.720  1.1390 -0.1821  0.7892
17262TIP3   OH273276   2.461   1.888   5.444  0.3435 -0.1853 -0.4373
17262TIP3    H173277   2.444   1.794   5.434 -0.1293 -0.0162 -1.2870
17262TIP3    H273278   2.379   1.930   5.421 -0.4755  0.3384  3.1713
17263TIP3   OH273279   3.103   5.052  16.674  0.3233  0.0995  0.4805
17263TIP3    H173280   3.028   4.993  16.667 -1.4372  2.2701  0.3847
17263TIP3    H273281   3.155   5.035  16.595 -0.8946 -0.3047 -0.2472
17264TIP3   OH273282   1.597   1.926   2.474  0.3737 -0.1210 -0.3117
17264TIP3    H173283   1.637   1.955   2.391  1.0242 -0.8186 -0.2463
17264TIP3    H273284   1.529   1.864   2.447 -0.0278  0.3478 -0.3736
17265TIP3   OH273285   4.800   0.977   6.029 -0.0115 -0.1857  0.8928
17265TIP3    H173286   4.829   0.886   6.017 -1.3151 -0.4281 -0.4552
17265TIP3    H273287   4.717   0.970   6.076 -1.3501  0.1729 -1.3512
17266TIP3   OH273288   2.805   1.222  12.029 -0.0647 -0.0738 -0.6569
17266TIP3    H173289   2.725   1.210  12.081 -0.3181  4.3445  0.1744
17266TIP3    H273290   2.876   1.223  12.094  0.3336 -0.9051 -1.0727
17267TIP3   OH273291   3.191   4.767  11.925  0.1595 -0.2050  1.0295
17267TIP3    H173292   3.150   4.722  11.999  1.0797  1.3230  2.5064
17267TIP3    H273293   3.158   4.857  11.931  0.2865 -0.0622 -0.3935
17268TIP3   OH273294   2.234   0.728  16.708  0.3839  0.4518 -0.4770
17268TIP3    H173295   2.167   0.760  16.648 -0.8604 -1.5847 -0.2376
17268TIP3    H273296   2.297   0.681  16.653  0.3482  0.3479 -0.4317
17269TIP3   OH273297   6.606   1.143  10.579 -0.2253  0.3485 -0.2397
17269TIP3    H173298   6.627   1.229  10.616 -0.0519 -0.9672  2.9132
17269TIP3    H273299   6.514   1.149  10.555 -0.5206  1.0687  1.0219
17270TIP3   OH273300   1.106   4.383  15.334 -0.5254  0.0375 -0.3805
17270TIP3    H173301   1.014   4.407  15.332 -0.0466  1.8675 -1.7547
17270TIP3    H273302   1.134   4.385  15.242  1.0524  0.2252  0.0812
17271TIP3   OH273303   3.587   0.295   3.655 -0.1410  0.2144 -0.1137
17271TIP3    H173304   3.595   0.380   3.610  1.2549 -0.6867 -1.5935
17271TIP3    H273305   3.676   0.272   3.680 -0.3749 -1.2982 -0.6148
17272TIP3   OH273306   1.417   3.030  16.496  0.2124  0.1240 -0.0962
17272TIP3    H173307   1.481   3.057  16.430  2.9247 -1.0128  1.9900
17272TIP3    H273308   1.366   2.961  16.453  0.3785  1.0168 -1.7718
17273TIP3   OH273309   4.408   1.542  13.702 -0.1160  0.6075 -0.3245
17273TIP3    H173310   4.335   1.491  13.667  0.6378 -0.0993 -0.9095
17273TIP3    H273311   4.440   1.490  13.776 -0.7192  1.3221  0.4436
17274TIP3   OH273312   4.093   4.316   3.949  0.2744  0.0410 -0.1703
17274TIP3    H173313   4.052   4.249   4.003  0.1103  0.4589  0.2300
17274TIP3    H273314   4.123   4.382   4.011  2.1494 -0.5576 -0.3987
17275TIP3   OH273315   6.732   2.135  15.458 -0.0727  0.4848  0.2323
17275TIP3    H173316   6.784   2.212  15.432  0.3727  0.3701  0.7829
17275TIP3    H273317   6.708   2.152  15.549  2.7131 -1.4882  1.4030
17276TIP3   OH273318   3.985   1.053   3.477 -0.3817  0.2456 -0.2438
17276TIP3    H173319   4.057   1.115   3.493 -1.2482  0.6603  2.3938
17276TIP3    H273320   4.000   0.982   3.541 -0.8714 -0.9644 -1.4409
17277TIP3   OH273321   4.484   2.935   3.224  0.5334  0.0744 -0.0056
17277TIP3    H173322   4.437   2.971   3.149  0.8396 -0.6293 -0.5326
17277TIP3    H273323   4.419   2.934   3.294 -0.8393 -2.7075 -1.2369
17278TIP3   OH273324   0.953   2.194   3.732  0.6029  0.0133  0.6702
17278TIP3    H173325   0.928   2.105   3.708 -1.3582  1.3434 -2.5902
17278TIP3    H273326   1.044   2.202   3.703  0.1494 -0.3345 -0.9315
17279TIP3   OH273327   0.124   1.762   0.253  0.1110  0.0084 -0.4307
17279TIP3    H173328   0.219   1.754   0.243 -0.0488 -0.5572 -1.5444
17279TIP3    H273329   0.100   1.687   0.307  0.3378  0.3342  0.1281
17280TIP3   OH273330   5.650   4.896  14.926 -0.2120  0.4125  0.2375
17280TIP3    H173331   5.629   4.885  14.833  0.8314  0.1894  0.0235
17280TIP3    H273332   5.580   4.850  14.972  1.3162 -2.8118 -0.5151
17281TIP3   OH273333   4.730   5.619   0.116 -0.3376  0.1929  0.2911
17281TIP3    H173334   4.728   5.523   0.116  1.6380  0.1096  1.5479
17281TIP3    H273335   4.683   5.645   0.195 -0.6263  0.2463  0.1011
17282TIP3   OH273336   1.407   2.908  14.343 -0.2219  0.0946  0.0309
17282TIP3    H173337   1.355   2.988  14.342  1.1651  1.0247 -0.9434
17282TIP3    H273338   1.456   2.912  14.425  0.3816  0.6068 -0.3535
17283TIP3   OH273339   0.589   1.559  13.716 -0.4148 -0.3652 -0.7263
17283TIP3    H173340   0.562   1.539  13.626 -0.6943  0.5155 -0.8516
17283TIP3    H273341   0.507   1.557  13.766 -0.3671 -0.1089 -0.6396
17284TIP3   OH273342   0.284   4.535   3.153 -0.2618 -0.2934  0.4940
17284TIP3    H173343   0.325   4.611   3.195 -0.1393 -0.6099  0.9541
17284TIP3    H273344   0.211   4.571   3.103  0.0005  0.1669  0.4361
17285TIP3   OH273345   1.512   4.576   3.547  0.0928  0.2343  0.0678
17285TIP3    H173346   1.429   4.530   3.561 -1.5687  3.8497  3.0268
17285TIP3    H273347   1.569   4.544   3.616 -0.3548  1.0356  0.8140
17286TIP3   OH273348   5.387   3.747   0.278 -0.5789  0.6021 -0.0498
17286TIP3    H173349   5.448   3.687   0.322 -2.0407 -1.2644 -0.5285
17286TIP3    H273350   5.301   3.706   0.289 -1.8197  3.3884  0.9409
17287TIP3   OH273351   1.412   2.958   5.124  0.4165  0.0129  0.1132
17287TIP3    H173352   1.385   2.871   5.094  0.4454 -0.1048  0.4295
17287TIP3    H273353   1.345   3.017   5.088 -1.8252 -0.5757  3.1619
17288TIP3   OH273354   6.192   0.992  12.897  0.2344  0.2923 -0.1480
17288TIP3    H173355   6.189   0.925  12.828  1.6063 -0.0353  0.1033
17288TIP3    H273356   6.232   1.068  12.855  1.3631 -0.0125  0.3660
17289TIP3   OH273357   6.286   0.984   3.151  0.4763 -0.0175 -0.3302
17289TIP3    H173358   6.285   0.919   3.221  1.1647  0.7857  0.4316
17289TIP3    H273359   6.277   0.932   3.070 -0.1274 -0.9572  0.3287
17290TIP3   OH273360   0.334   2.647  11.783 -0.4316 -0.0659  0.0906
17290TIP3    H173361   0.269   2.634  11.852 -0.3997  1.3202  0.3921
17290TIP3    H273362   0.302   2.594  11.710 -1.9068  0.5855  0.2497
17291TIP3   OH273363   6.709   1.759   3.634 -0.2787 -0.3359 -0.1279
17291TIP3    H173364   6.735   1.812   3.559  0.9746 -1.6677 -0.6605
17291TIP3    H273365   6.622   1.726   3.611  0.1751 -0.8934 -1.1042
17292TIP3   OH273366   4.062   4.589   6.069 -0.4524  0.3845  0.0603
17292TIP3    H173367   3.999   4.530   6.110  0.0593 -0.6253 -0.6084
17292TIP3    H273368   4.007   4.652   6.021 -0.9638 -0.7152 -0.8325
17293TIP3   OH273369   2.217   2.947  16.536  0.5797  0.1817 -0.3124
17293TIP3    H173370   2.221   2.965  16.442 -0.2761  0.8623 -0.2337
17293TIP3    H273371   2.173   2.862  16.542  0.5391  0.1875 -0.5217
17294TIP3   OH273372   1.223   4.652   4.454  0.2419 -0.3773  0.2477
17294TIP3    H173373   1.190   4.572   4.412 -0.4669  0.2329 -0.3779
17294TIP3    H273374   1.318   4.640   4.455  0.4099  0.2444 -2.9608
17295TIP3   OH273375   6.238   2.965  14.186  0.5269 -0.6304 -0.5084
17295TIP3    H173376   6.233   3.028  14.258  0.5315 -1.2610  0.0541
17295TIP3    H273377   6.322   2.922  14.198  0.1112 -1.4030 -0.3236
17296TIP3   OH273378   3.146   5.001  17.089  0.2249  0.2150 -0.3696
17296TIP3    H173379   3.190   5.036  17.012  3.2876 -0.2587  1.0829
17296TIP3    H273380   3.138   5.076  17.149  0.0231  0.0593 -0.1984
17297TIP3   OH273381   1.760   4.216  16.612  0.3120 -0.2993  0.0772
17297TIP3    H173382   1.730   4.293  16.660  1.4127  0.4189 -0.3677
17297TIP3    H273383   1.855   4.228  16.605  0.1300 -0.2347 -2.5821
17298TIP3   OH273384   1.367   3.287   0.326 -0.0566  0.4538  0.3943
17298TIP3    H173385   1.344   3.362   0.270  3.0056  0.7027 -0.6466
17298TIP3    H273386   1.313   3.215   0.293  0.0006  1.1889 -1.3654
17299TIP3   OH273387   3.943   2.927  12.476  0.0293  0.1000  0.4130
17299TIP3    H173388   3.971   2.965  12.559  1.1533  0.8204 -0.2909
17299TIP3    H273389   4.001   2.852  12.463 -0.6649 -0.4930  0.6514
17300TIP3   OH273390   0.537   2.427   4.656  0.0171  0.3017 -0.2222
17300TIP3    H173391   0.453   2.447   4.614  0.5112  1.9766 -0.4356
17300TIP3    H273392   0.571   2.512   4.685  1.8263 -0.3036 -0.4894
17301TIP3   OH273393   0.289   1.201  12.503 -0.3044 -0.5457 -0.4292
17301TIP3    H173394   0.297   1.273  12.441 -3.1255  0.6387  0.5101
17301TIP3    H273395   0.379   1.186  12.534  0.3885  2.2224 -0.9934
17302TIP3   OH273396   3.877   3.028  14.691 -0.5155 -0.6401  0.2522
17302TIP3    H173397   3.963   2.999  14.718 -0.2508 -1.1373 -1.0802
17302TIP3    H273398   3.817   2.959  14.719 -0.5457 -0.0747  1.5918
17303TIP3   OH273399   0.363   2.695  13.526 -0.5857 -0.0876  0.0307
17303TIP3    H173400   0.386   2.698  13.619 -0.8058 -0.9865  0.1197
17303TIP3    H273401   0.268   2.699  13.524 -0.5602  0.4553 -0.1863
17304TIP3   OH273402   5.964   6.240  12.813  0.6607  0.3697 -0.2288
17304TIP3    H173403   6.036   6.207  12.760 -1.0022 -1.1669 -1.5705
17304TIP3    H273404   5.934   6.165  12.863 -1.9523  0.2156 -1.9272
17305TIP3   OH273405   0.848   5.456  14.929  0.4183  0.3146 -0.8688
17305TIP3    H173406   0.804   5.539  14.912  0.1235  0.4637  0.5819
17305TIP3    H273407   0.780   5.389  14.917 -0.1696  0.5232  1.0595
17306TIP3   OH273408   6.460   6.389   6.336  0.2192  0.1832 -0.4593
17306TIP3    H173409   6.476   6.376   6.429  0.5328 -0.0541 -0.5458
17306TIP3    H273410   6.392   6.456   6.332 -0.0087 -0.0244 -0.0546
17307TIP3   OH273411   6.027   6.598  13.541 -0.1159  0.0645 -0.0926
17307TIP3    H173412   6.078   6.674  13.512  0.3495 -0.4657 -0.6913
17307TIP3    H273413   6.003   6.619  13.631  1.1850  0.3240  0.2052
17308TIP3   OH273414   4.940   0.209  16.204 -0.0445  1.1637  0.7085
17308TIP3    H173415   5.019   0.256  16.177  1.4086 -2.9701 -2.7955
17308TIP3    H273416   4.870   0.247  16.152  0.5613  1.5555  0.1743
17309TIP3   OH273417   0.441   4.620   5.765  0.0261 -0.0106 -0.1960
17309TIP3    H173418   0.509   4.591   5.825  1.2408  2.6912 -0.2199
17309TIP3    H273419   0.485   4.630   5.681 -1.0828 -1.2185 -0.9346
17310TIP3   OH273420   2.045   4.936  11.140 -0.2929 -0.1387  0.1981
17310TIP3    H173421   2.114   4.886  11.096 -0.4070 -0.3596  0.2674
17310TIP3    H273422   1.964   4.905  11.099 -0.6123 -2.1497  2.2483
17311TIP3   OH273423   5.775   6.699  15.384 -0.4814 -0.1124 -0.7769
17311TIP3    H173424   5.761   6.696  15.478 -0.6960 -0.7155 -0.8290
17311TIP3    H273425   5.870   6.687  15.374 -0.6253 -1.3372 -0.7042
17312TIP3   OH273426   4.249   1.543  14.817  0.3719  0.1147  1.0805
17312TIP3    H173427   4.336   1.560  14.780  0.2304  0.5822  0.9539
17312TIP3    H273428   4.188   1.584  14.756 -0.0922 -2.0396  0.0549
17313TIP3   OH273429   2.975   5.902  13.732  1.0062  0.3291 -0.2565
17313TIP3    H173430   3.012   5.861  13.810 -2.1601  0.0829  1.2144
17313TIP3    H273431   2.959   5.993  13.758 -0.7057  0.0740 -0.3335
17314TIP3   OH273432   2.763   1.925   5.458 -0.3822  0.0398  0.1579
17314TIP3    H173433   2.806   1.925   5.373  0.6345 -1.2452  0.6451
17314TIP3    H273434   2.671   1.938   5.438  0.1699  2.5215 -0.9214
17315TIP3   OH273435   4.024   2.153  17.031  0.1211  0.0301  0.4130
17315TIP3    H173436   4.036   2.247  17.017 -0.7702 -0.1402 -1.6471
17315TIP3    H273437   4.054   2.139  17.121  0.9233  2.1560  0.5265
17316TIP3   OH273438   4.818   0.898  15.443 -0.2551  0.3868  0.7914
17316TIP3    H173439   4.831   0.805  15.426 -0.4115  0.4833  0.1243
17316TIP3    H273440   4.898   0.926  15.488  0.1824  0.1250  0.1793
17317TIP3   OH273441   1.140   5.490   2.224  0.2738 -0.4648  0.1402
17317TIP3    H173442   1.048   5.506   2.247  1.0775  1.5751  2.1380
17317TIP3    H273443   1.162   5.409   2.271  0.3374  0.7296  2.2620
17318TIP3   OH273444   1.905   2.917  16.362  0.1491 -0.3780  0.0227
17318TIP3    H173445   1.926   3.007  16.387  0.0531 -0.3954  0.1687
17318TIP3    H273446   1.866   2.879  16.441 -0.1484 -0.4359 -0.1481
17319TIP3   OH273447   4.320   0.386   4.824  0.2545 -0.6148  0.0999
17319TIP3    H173448   4.282   0.468   4.792 -1.6501 -1.7015 -0.4841
17319TIP3    H273449   4.337   0.335   4.744  3.1882 -0.0999  0.3155
17320TIP3   OH273450   6.107   2.308  14.420 -0.2642 -1.0250 -0.4958
17320TIP3    H173451   6.078   2.285  14.509  0.0747  0.5971  0.0445
17320TIP3    H273452   6.178   2.246  14.402  0.4749 -0.6058  0.8470
17321TIP3   OH273453   4.016   6.537   0.081 -0.4056 -0.2687  0.1045
17321TIP3    H173454   4.021   6.443   0.097  0.0881 -0.0650  1.1703
17321TIP3    H273455   3.930   6.550   0.040 -0.3583 -1.2113 -0.3012
17322TIP3   OH273456   5.119   2.676  14.570 -0.0112 -0.1487  0.5748
17322TIP3    H173457   5.077   2.730  14.636  0.1511  0.5244  0.1302
17322TIP3    H273458   5.068   2.692  14.490 -1.0726 -2.0082  0.8359
17323TIP3   OH273459   5.561   4.936  15.744 -0.6104  0.0156  0.3348
17323TIP3    H173460   5.638   4.972  15.788  0.8803 -1.0400 -1.3746
17323TIP3    H273461   5.541   4.856  15.793  1.1017 -1.2077 -0.8961
17324TIP3   OH273462   0.557   2.606  15.129  0.0073 -0.4958  0.0802
17324TIP3    H173463   0.540   2.638  15.040  0.4803 -0.6480 -0.0695
17324TIP3    H273464   0.568   2.685  15.181  0.6226 -0.4081 -0.1784
17325TIP3   OH273465   0.113   0.117   0.198 -0.1722 -0.0044 -0.2908
17325TIP3    H173466   0.174   0.152   0.133 -0.5819  1.9970  0.3492
17325TIP3    H273467   0.136   0.162   0.280 -1.4553 -0.4017  0.3065
17326TIP3   OH273468   2.543   1.770  13.726 -0.0458 -0.1950 -0.1609
17326TIP3    H173469   2.567   1.850  13.773  1.4357  0.0411 -1.2973
17326TIP3    H273470   2.570   1.785  13.636  1.2130 -2.3725 -0.1786
17327TIP3   OH273471   1.729   2.625  12.052 -0.2660 -0.1926 -0.6081
17327TIP3    H173472   1.779   2.703  12.075 -0.1945 -0.9271  1.8545
17327TIP3    H273473   1.642   2.640  12.089 -0.2378 -1.2834 -0.0731
17328TIP3   OH273474   4.030   4.656   3.031  0.1712 -0.3033  0.0182
17328TIP3    H173475   3.944   4.695   3.013  0.9226  0.2975 -2.4348
17328TIP3    H273476   4.080   4.727   3.070 -0.1356 -0.3657  0.5291
17329TIP3   OH273477   1.708   2.475  16.005 -0.0722  0.5550  0.4527
17329TIP3    H173478   1.792   2.522  16.004  0.5931 -0.6380 -1.2830
17329TIP3    H273479   1.681   2.478  16.097  3.1684 -1.3545  1.5550
17330TIP3   OH273480   0.067   6.142  16.642  0.6470 -0.2532  0.6328
17330TIP3    H173481   0.076   6.183  16.556  2.7437 -0.5847  0.6921
17330TIP3    H273482  -0.022   6.106  16.641  0.2271  0.7557 -0.9469
17331TIP3   OH273483   5.773   5.225  15.809 -0.2146 -0.1098 -0.5484
17331TIP3    H173484   5.849   5.169  15.795 -0.3939 -1.2537  2.6013
17331TIP3    H273485   5.751   5.212  15.901 -2.6127  2.2382 -0.7397
17332TIP3   OH273486   5.542   4.981  13.955  0.7459  0.4100 -0.9241
17332TIP3    H173487   5.521   4.998  13.863 -1.4505 -1.2650 -0.7910
17332TIP3    H273488   5.535   5.066  13.998 -0.8145  0.7692 -1.8602
17333TIP3   OH273489   5.699   1.508   1.135 -0.8288 -0.5122 -0.2099
17333TIP3    H173490   5.667   1.435   1.187 -2.3668  0.9293  0.9305
17333TIP3    H273491   5.621   1.544   1.093  0.0016  0.0527 -1.3012
17334TIP3   OH273492   0.758   3.398  14.310 -0.4974 -0.1125  0.0281
17334TIP3    H173493   0.664   3.389  14.324 -0.3317 -0.3674  1.0151
17334TIP3    H273494   0.793   3.426  14.395  0.3923 -0.6064 -0.1660
17335TIP3   OH273495   5.097   0.927   2.662 -0.1118 -0.1396 -0.4468
17335TIP3    H173496   5.030   0.957   2.600  0.2579 -1.7012 -1.6579
17335TIP3    H273497   5.165   0.994   2.658 -0.0925 -0.2118 -1.7745
17336TIP3   OH273498   6.343   4.086  13.722  0.6387  0.4648 -0.7622
17336TIP3    H173499   6.349   4.128  13.636  1.1834  0.2477 -0.8317
17336TIP3    H273500   6.433   4.062  13.743  0.7586  2.0622  0.6503
17337TIP3   OH273501   5.967   6.721   0.523  0.2567  0.1261 -0.0670
17337TIP3    H173502   5.878   6.706   0.491 -0.4089  2.1859  0.7770
17337TIP3    H273503   6.020   6.726   0.443 -0.7035  0.8338 -0.6704
17338TIP3   OH273504   3.187   1.173  11.607  0.4810  0.1319  0.1510
17338TIP3    H173505   3.174   1.078  11.610 -2.6964  0.5094  0.0490
17338TIP3    H273506   3.282   1.184  11.612  0.8338 -2.9768  2.0445
17339TIP3   OH273507   3.780   6.678  17.221 -0.1156 -0.4518 -0.3023
17339TIP3    H173508   3.811   6.680  17.130  1.3806  3.0218  0.2337
17339TIP3    H273509   3.773   6.770  17.246 -1.3337 -1.3577  2.8702
17340TIP3   OH273510   1.288   0.830  14.186  0.1067  0.4920 -0.0877
17340TIP3    H173511   1.260   0.776  14.260 -0.2437 -0.3143 -0.8066
17340TIP3    H273512   1.340   0.771  14.132  0.8094  1.2229 -0.2200
17341TIP3   OH273513   4.306   2.756  15.690  0.3722  0.2217 -0.0741
17341TIP3    H173514   4.292   2.758  15.595  0.7020 -0.3813 -0.1351
17341TIP3    H273515   4.305   2.664  15.713 -1.3253  0.4333  0.7572
17342TIP3   OH273516   2.720   6.591  15.377  0.8313 -0.4755  0.6519
17342TIP3    H173517   2.697   6.657  15.311  1.1268 -0.7059  0.3199
17342TIP3    H273518   2.731   6.510  15.327  2.4642 -0.3478  0.8045
17343TIP3   OH273519   4.700   3.436   5.034 -0.7805  0.6838  0.1966
17343TIP3    H173520   4.747   3.488   4.970  0.8464 -1.3337 -0.3087
17343TIP3    H273521   4.746   3.452   5.117 -0.8052  0.6940  0.2084
17344TIP3   OH273522   1.123   1.097   1.926  0.0809  0.7435  0.6254
17344TIP3    H173523   1.179   1.159   1.879 -0.5191  0.6883 -0.1757
17344TIP3    H273524   1.061   1.066   1.860  0.1589 -0.4482  1.1033
17345TIP3   OH273525   4.829   2.290   3.742 -0.3692 -0.3234  0.1555
17345TIP3    H173526   4.889   2.363   3.757  0.5534 -1.0228 -0.0890
17345TIP3    H273527   4.808   2.295   3.649  1.7110 -1.8705 -0.4335
17346TIP3   OH273528   0.117   0.385  15.602 -0.4141  0.7177  0.1780
17346TIP3    H173529   0.208   0.356  15.606 -0.8237 -1.2606 -2.9516
17346TIP3    H273530   0.070   0.327  15.662  0.1343  0.6744  0.5659
17347TIP3   OH273531   2.029   4.832  17.284 -0.2832  0.4631  0.4507
17347TIP3    H173532   1.960   4.780  17.244  1.1205 -1.8118  0.8976
17347TIP3    H273533   1.992   4.864  17.366 -1.2688  0.4682  0.0098
17348TIP3   OH273534   0.533   6.512  13.818 -0.1517  0.2410 -0.0593
17348TIP3    H173535   0.450   6.469  13.797 -0.8033  1.0737  0.7314
17348TIP3    H273536   0.510   6.604  13.829  1.3796  0.9737 -2.6296
17349TIP3   OH273537   1.321   0.550  12.193 -0.1159 -0.1933  0.1021
17349TIP3    H173538   1.324   0.602  12.112  1.4177 -0.2403  0.1038
17349TIP3    H273539   1.291   0.611  12.260 -2.0728 -0.3274 -0.6123
17350TIP3   OH273540   4.874   3.529  13.638 -0.2733 -0.0776 -0.0134
17350TIP3    H173541   4.793   3.579  13.632 -0.9399 -1.2747 -1.1216
17350TIP3    H273542   4.940   3.594  13.663 -1.5488  0.9111  0.8769
17351TIP3   OH273543   3.802   5.528  13.985  0.0932 -0.5707 -0.5466
17351TIP3    H173544   3.877   5.480  14.020  1.1582  0.5198 -1.3145
17351TIP3    H273545   3.818   5.619  14.010 -1.8958 -0.5721  0.8752
17352TIP3   OH273546   3.137   6.094  14.367  0.4449 -0.5620 -0.1293
17352TIP3    H173547   3.212   6.035  14.361  0.6302 -0.6054  2.0362
17352TIP3    H273548   3.174   6.176  14.401 -0.4035 -0.4682  0.5928
17353TIP3   OH273549   3.745   5.871  16.809  0.1131 -0.1895 -0.0706
17353TIP3    H173550   3.742   5.835  16.898 -0.4853 -0.7399 -0.3063
17353TIP3    H273551   3.833   5.908  16.801  0.4902 -0.9576  0.4363
17354TIP3   OH273552   2.656   2.959   2.248  0.1546 -0.2594  0.3629
17354TIP3    H173553   2.688   2.898   2.181  2.0862 -1.4226  2.2907
17354TIP3    H273554   2.723   3.027   2.253 -0.2478  0.1179  0.7372
17355TIP3   OH273555   5.236   1.480   2.582  0.1052 -0.0573  0.1374
17355TIP3    H173556   5.288   1.450   2.656  0.0355 -1.9607 -0.5451
17355TIP3    H273557   5.274   1.564   2.557  2.1663 -0.9347  0.3041
17356TIP3   OH273558   0.960   3.040   2.840  0.2250 -0.0393  0.1355
17356TIP3    H173559   0.933   3.001   2.923 -0.6241  0.2479  0.0005
17356TIP3    H273560   1.010   3.118   2.865  0.7178 -0.4307  0.3831
17357TIP3   OH273561   3.555   1.945  15.753  0.2502 -0.4317  0.2232
17357TIP3    H173562   3.480   1.886  15.752 -0.1699  0.1138 -1.0349
17357TIP3    H273563   3.607   1.920  15.677  0.3484  0.4592 -0.0126
17358TIP3   OH273564   3.978   3.333  12.319 -0.4252  0.2725 -0.0548
17358TIP3    H173565   4.003   3.416  12.277 -0.7077  0.5692  0.3548
17358TIP3    H273566   4.062   3.291  12.339 -0.2977 -1.0023 -3.0861
17359TIP3   OH273567   5.143   6.799  12.711 -0.2537  0.3153 -0.0860
17359TIP3    H173568   5.095   6.853  12.773 -0.5222  1.6018 -1.3821
17359TIP3    H273569   5.106   6.822  12.625 -1.3025 -2.8866 -0.5654
17360TIP3   OH273570   3.438   0.719   5.677 -0.3377  0.1745 -0.5581
17360TIP3    H173571   3.495   0.795   5.663 -1.4048  0.8215 -1.4703
17360TIP3    H273572   3.350   0.752   5.659 -1.0175 -0.7773  0.9864
17361TIP3   OH273573   3.913   6.759  12.766 -0.1972  0.1569  0.4633
17361TIP3    H173574   3.880   6.849  12.774  0.1291  0.2684  0.5740
17361TIP3    H273575   3.840   6.704  12.797 -0.7754  0.3212 -0.5790
17362TIP3   OH273576   0.848   5.408  11.471  0.6051  0.5315  0.6186
17362TIP3    H173577   0.882   5.347  11.535  1.2623  2.7032  2.4039
17362TIP3    H273578   0.760   5.375  11.450  1.3075 -1.5188  0.8052
17363TIP3   OH273579   6.122   1.850  11.147  0.3976  0.1640  0.5917
17363TIP3    H173580   6.036   1.871  11.110 -0.2765 -1.6999  1.0205
17363TIP3    H273581   6.128   1.902  11.226  0.3830  1.5700 -0.3152
17364TIP3   OH273582   5.067   6.756   4.029  0.0665 -0.4233 -0.0990
17364TIP3    H173583   5.125   6.795   3.964 -1.6829  0.0711 -1.4196
17364TIP3    H273584   4.990   6.728   3.978 -1.3528  0.0035  1.7476
17365TIP3   OH273585   6.555   6.117   0.828  0.0976  0.0207  0.0607
17365TIP3    H173586   6.466   6.146   0.806  0.1657 -0.7462 -1.2678
17365TIP3    H273587   6.584   6.069   0.751  1.6922  0.3075  0.4687
17366TIP3   OH273588   4.889   5.116  14.807 -0.0995  0.9497  0.1023
17366TIP3    H173589   4.834   5.111  14.728 -1.8124  0.0759  1.3158
17366TIP3    H273590   4.847   5.056  14.869  1.5822  1.1544  1.4728
17367TIP3   OH273591   1.789   6.159  15.267 -0.1189  0.1047  0.3018
17367TIP3    H173592   1.812   6.071  15.297  2.2970  0.3528 -0.7390
17367TIP3    H273593   1.711   6.146  15.213  1.2774 -1.6625 -1.3409
17368TIP3   OH273594   3.094   2.984   5.677  0.3669  0.0897 -0.3788
17368TIP3    H173595   3.185   3.009   5.691  0.7306  0.4482 -3.2716
17368TIP3    H273596   3.052   3.061   5.640 -1.2864  0.0915  1.3591
17369TIP3   OH273597   1.838   4.079  16.881  0.1391 -0.1679  0.7340
17369TIP3    H173598   1.803   4.101  16.794 -1.2780 -1.8132  0.8669
17369TIP3    H273599   1.842   4.163  16.927 -0.8795  0.4577 -0.2881
17370TIP3   OH273600   1.297   4.546   6.188  0.1502 -0.3831 -0.1148
17370TIP3    H173601   1.314   4.455   6.214  0.6995 -0.3549 -0.3748
17370TIP3    H273602   1.384   4.583   6.171 -0.0768  0.1694 -0.0923
17371TIP3   OH273603   2.362   3.316  12.980 -0.0211 -0.2152 -0.0698
17371TIP3    H173604   2.307   3.261  12.924  0.2166 -0.5931  0.0648
17371TIP3    H273605   2.441   3.263  12.995  0.3527  0.2969 -0.2175
17372TIP3   OH273606   2.005   1.717   2.732  0.2501  0.3533 -0.1330
17372TIP3    H173607   2.023   1.807   2.705 -0.5856  0.3447 -0.7392
17372TIP3    H273608   2.032   1.663   2.658 -0.7482  0.2269 -0.4118
17373TIP3   OH273609   5.193   2.743  16.386 -0.4415 -0.8451  0.1665
17373TIP3    H173610   5.154   2.770  16.303  0.3040 -0.6894 -0.1421
17373TIP3    H273611   5.126   2.689  16.428 -1.4839  0.4853  0.2487
17374TIP3   OH273612   0.325   3.997  14.534  0.1048  0.3465 -0.0826
17374TIP3    H173613   0.373   4.060  14.589 -0.6730 -0.3303  1.3762
17374TIP3    H273614   0.289   3.934  14.595 -2.6313  0.7949 -1.1697
17375TIP3   OH273615   5.760   4.631  13.659 -0.9286 -0.2052  0.1140
17375TIP3    H173616   5.803   4.682  13.591 -0.0904 -0.2339  0.6242
17375TIP3    H273617   5.703   4.571  13.611  1.1928 -1.6473 -0.6579
17376TIP3   OH273618   5.833   3.734   2.838 -0.5328  0.3330  0.1530
17376TIP3    H173619   5.890   3.795   2.790 -0.2642 -0.4216 -0.4984
17376TIP3    H273620   5.754   3.784   2.855  0.5710  1.6202  1.6389
17377TIP3   OH273621   6.182   3.601   1.349  0.7075 -0.8827 -0.0934
17377TIP3    H173622   6.187   3.562   1.261  2.9474  0.8977 -0.8008
17377TIP3    H273623   6.255   3.562   1.397  0.4056 -0.7083  0.5176
17378TIP3   OH273624   6.311   5.720   5.375  0.0251 -0.2901  0.2726
17378TIP3    H173625   6.286   5.791   5.434 -0.2010 -1.0835  1.1450
17378TIP3    H273626   6.406   5.728   5.367 -0.1444  0.9143 -0.6885
17379TIP3   OH273627   0.948   3.526  11.727  0.2217 -0.3225  0.4690
17379TIP3    H173628   0.870   3.523  11.672  1.7164 -0.5320 -1.7167
17379TIP3    H273629   0.975   3.435  11.736  0.6274 -0.1937  0.5695
17380TIP3   OH273630   2.544   0.254  14.918  0.5896  0.1305  0.0970
17380TIP3    H173631   2.528   0.242  15.012  0.5993 -2.0005 -0.1487
17380TIP3    H273632   2.464   0.295  14.885  1.0127  1.9338  1.2062
17381TIP3   OH273633   0.176   0.290   3.699 -0.3189 -0.1883  0.5516
17381TIP3    H173634   0.162   0.220   3.762  2.2962  0.9244  2.4777
17381TIP3    H273635   0.122   0.363   3.730 -1.1408 -0.5373 -0.0544
17382TIP3   OH273636   3.918   6.310   5.472 -0.5156 -0.4435 -0.2894
17382TIP3    H173637   3.913   6.261   5.554 -0.2711 -0.4082 -0.2518
17382TIP3    H273638   3.967   6.389   5.495 -0.4716 -0.4207 -0.4652
17383TIP3   OH273639   0.601   5.050   3.307 -0.3640  0.0676  0.4577
17383TIP3    H173640   0.638   4.963   3.291 -0.3748 -0.1084  1.3488
17383TIP3    H273641   0.586   5.086   3.220  1.4268 -0.0561  0.0703
17384TIP3   OH273642   2.894   4.143  10.140  1.0491 -0.1196 -0.0846
17384TIP3    H173643   2.852   4.066  10.101 -1.9352  0.5556  1.5881
17384TIP3    H273644   2.987   4.122  10.141  0.6135 -2.3687 -2.5521
17385TIP3   OH273645   3.415   2.712   1.689  0.7365 -0.1616 -0.4484
17385TIP3    H173646   3.395   2.668   1.772 -1.8058  1.6270 -0.0677
17385TIP3    H273647   3.499   2.755   1.704  0.5868 -0.3539  0.9835
17386TIP3   OH273648   6.449   3.644  16.550  0.4167  0.1121  0.0977
17386TIP3    H173649   6.476   3.567  16.599  0.3413 -0.4021 -0.6665
17386TIP3    H273650   6.373   3.615  16.500  1.0570  0.3780 -1.0388
17387TIP3   OH273651   5.426   0.751  11.295 -0.3744 -0.4649  0.4930
17387TIP3    H173652   5.511   0.706  11.298 -0.2097 -0.1621  0.2516
17387TIP3    H273653   5.442   0.835  11.338 -0.1014  0.3639 -1.2029
17388TIP3   OH273654   1.248   2.217   2.125 -0.3163  0.0399  0.3104
17388TIP3    H173655   1.248   2.208   2.220 -0.2989 -2.0536  0.1274
17388TIP3    H273656   1.213   2.134   2.092  0.0860  0.5614 -1.5296
17389TIP3   OH273657   6.471   4.129  16.772 -0.2900  0.3732 -0.1301
17389TIP3    H173658   6.509   4.080  16.699 -2.1861 -0.7750 -0.3863
17389TIP3    H273659   6.532   4.116  16.845  0.8995  0.3664 -1.1110
17390TIP3   OH273660   4.562   1.258   2.060  0.4374 -0.5138  0.1085
17390TIP3    H173661   4.608   1.252   1.977 -0.3328  1.2416 -0.4701
17390TIP3    H273662   4.470   1.246   2.038  0.3426 -1.3369  0.9007
17391TIP3   OH273663   5.516   0.460   4.161 -0.4341 -0.3230 -0.2724
17391TIP3    H173664   5.432   0.460   4.205 -1.3506 -1.1236 -1.9867
17391TIP3    H273665   5.525   0.372   4.125  0.3000  0.2900 -1.6428
17392TIP3   OH273666   2.085   2.309   4.292 -0.3271  0.3725 -0.1188
17392TIP3    H173667   2.057   2.400   4.286 -0.6331  0.2069 -1.3225
17392TIP3    H273668   2.101   2.282   4.201  2.3998  0.0524  0.3872
17393TIP3   OH273669   2.552   0.795   2.161  0.3668  0.4815 -0.4425
17393TIP3    H173670   2.556   0.883   2.199  0.5635  0.5509 -0.6255
17393TIP3    H273671   2.582   0.737   2.231  0.9614  0.6314 -0.5746
17394TIP3   OH273672   2.572   0.045  11.835  0.5803 -0.4180 -0.1595
17394TIP3    H173673   2.495   0.010  11.878  0.2012  1.3795  0.6841
17394TIP3    H273674   2.641   0.043  11.902  0.4848  0.6440 -0.0150
17395TIP3   OH273675   6.067   2.065  10.933 -0.3058  0.1484  0.2945
17395TIP3    H173676   5.991   2.043  10.986  0.0149  0.4387  0.8897
17395TIP3    H273677   6.094   1.982  10.893 -1.0978  0.0998 -0.1397
17396TIP3   OH273678   1.843   3.157  16.813 -0.1107  0.1602  0.4394
17396TIP3    H173679   1.808   3.221  16.752  0.3359  1.2233  1.2805
17396TIP3    H273680   1.915   3.116  16.766  0.4431  1.2103  0.3565
17397TIP3   OH273681   5.703   5.052   4.482  0.6909  0.4358  0.1227
17397TIP3    H173682   5.634   5.026   4.421 -0.1786  0.4009  1.0923
17397TIP3    H273683   5.655   5.078   4.562  1.8640 -1.0784  1.3464
17398TIP3   OH273684   5.166   2.058  16.530  0.4271 -0.4931  0.7105
17398TIP3    H173685   5.262   2.066  16.533  0.5123  0.4191 -2.7146
17398TIP3    H273686   5.135   2.147  16.546  0.1486 -0.6738  1.1846
17399TIP3   OH273687   3.514   6.180   6.780  0.5585 -0.2825  0.0099
17399TIP3    H173688   3.603   6.213   6.775  1.0227 -1.3294  1.0616
17399TIP3    H273689   3.459   6.258   6.785  1.3326  0.3815 -1.5888
17400TIP3   OH273690   2.598   3.075   1.199 -0.0584 -0.1003 -0.0430
17400TIP3    H173691   2.693   3.082   1.204 -0.1165  0.7998 -0.0168
17400TIP3    H273692   2.573   3.020   1.273  0.3608  0.4515  0.5085
17401TIP3   OH273693   4.887   2.133  13.445  0.4027  0.3481 -0.3596
17401TIP3    H173694   4.915   2.142  13.354  0.5720  1.7959 -0.1701
17401TIP3    H273695   4.968   2.129  13.495  0.3064 -0.2634 -0.2418
17402TIP3   OH273696   1.496   0.542  16.548  0.0588 -0.7903  0.3314
17402TIP3    H173697   1.555   0.587  16.608 -0.2257 -0.7377  0.5721
17402TIP3    H273698   1.409   0.553  16.586 -0.4131  1.0748 -1.1944
17403TIP3   OH273699   2.873   3.374   3.453  0.3620 -0.6062  0.2684
17403TIP3    H173700   2.923   3.439   3.503 -1.4591  0.5715  0.6172
17403TIP3    H273701   2.931   3.348   3.382  2.3929 -1.1224  2.0662
17404TIP3   OH273702   5.026   2.911   5.025  0.2116  0.0704  0.5114
17404TIP3    H173703   5.083   2.945   4.956  0.0202 -3.6611 -1.6278
17404TIP3    H273704   4.937   2.928   4.993  0.1337 -0.4304  0.4534
17405TIP3   OH273705   1.986   0.679   4.109 -0.6834 -0.0958 -0.5158
17405TIP3    H173706   1.980   0.772   4.087 -0.3951  0.1061  0.2685
17405TIP3    H273707   2.073   0.653   4.079 -0.0428  0.3329  0.9768
17406TIP3   OH273708   5.680   0.811  13.706  0.4937 -0.0032 -0.5458
17406TIP3    H173709   5.697   0.725  13.745 -0.7560  0.3092  0.7489
17406TIP3    H273710   5.593   0.835  13.739  0.8512  1.7788 -0.8391
17407TIP3   OH273711   0.157   1.885  13.322 -0.0149  0.1027 -0.5634
17407TIP3    H173712   0.156   1.959  13.262 -0.1856 -1.7703 -2.9778
17407TIP3    H273713   0.246   1.851  13.318  0.1081  0.2631  0.6536
17408TIP3   OH273714   6.514   6.685   4.800 -0.0241 -0.0254 -0.3022
17408TIP3    H173715   6.420   6.699   4.807  0.2178  0.6022  2.1362
17408TIP3    H273716   6.537   6.721   4.714 -2.2123 -1.5908 -1.5865
17409TIP3   OH273717   3.884   2.594  11.790 -0.8796 -0.0438  0.3075
17409TIP3    H173718   3.960   2.537  11.801 -1.5519 -1.4918 -2.1481
17409TIP3    H273719   3.906   2.673  11.838  2.3672 -0.2918 -0.6748
17410TIP3   OH273720   2.561   2.849  17.192 -0.6080 -0.3209 -0.4239
17410TIP3    H173721   2.550   2.834  17.098 -0.6411 -1.9219 -0.1819
17410TIP3    H273722   2.473   2.863  17.224 -0.5090  1.1507 -0.7763
17411TIP3   OH273723   1.144   4.733   4.803 -0.2603  0.4836  0.4551
17411TIP3    H173724   1.114   4.824   4.801 -0.3116  0.5207  2.0706
17411TIP3    H273725   1.235   4.739   4.833 -0.0264  0.0503 -0.1564
17412TIP3   OH273726   6.749   0.352   0.470  0.0323  0.4046 -0.4582
17412TIP3    H173727   6.797   0.322   0.547 -0.5150  0.0098 -0.2614
17412TIP3    H273728   6.790   0.435   0.447  1.7145 -0.5891 -1.1348
17413TIP3   OH273729   6.353   6.508   1.030 -0.3787 -0.0962  0.1206
17413TIP3    H173730   6.310   6.568   1.092  0.0343  0.1433  0.1819
17413TIP3    H273731   6.289   6.493   0.962 -0.6666  0.0226  0.3645
17414TIP3   OH273732   6.266   5.334   3.133  0.2190 -0.2487  0.1363
17414TIP3    H173733   6.334   5.367   3.192  0.5843  0.9462 -0.9441
17414TIP3    H273734   6.251   5.405   3.071 -0.8731 -1.1231 -0.6169
17415TIP3   OH273735   2.470   5.219   1.539 -0.3611  0.2634 -0.3704
17415TIP3    H173736   2.449   5.303   1.496 -0.7070  0.1818 -0.3683
17415TIP3    H273737   2.522   5.171   1.475  1.4579  1.2399  0.3498
17416TIP3   OH273738   2.766   6.052   5.258 -0.0479 -0.3743  0.1284
17416TIP3    H173739   2.776   5.990   5.186 -0.0774  1.8634 -1.8688
17416TIP3    H273740   2.696   6.014   5.313 -0.7383 -1.6014 -1.5685
17417TIP3   OH273741   6.160   3.563  14.998  0.3681  0.2386 -0.2496
17417TIP3    H173742   6.115   3.556  15.082  0.9372  1.2328  0.1599
17417TIP3    H273743   6.090   3.579  14.934  0.1817  2.9791  0.5420
17418TIP3   OH273744   1.204   1.060   1.046  0.1793 -0.1776 -0.0082
17418TIP3    H173745   1.245   0.991   0.995 -1.0329  1.1454 -2.8712
17418TIP3    H273746   1.118   1.073   1.005 -1.2799  0.2672  3.0054
17419TIP3   OH273747   2.976   0.246   1.612 -0.0051  0.2171 -0.0037
17419TIP3    H173748   2.900   0.302   1.594  0.1895 -0.0391 -1.7437
17419TIP3    H273749   2.957   0.206   1.697 -0.8096  1.8235  0.5918
17420TIP3   OH273750   6.375   5.483  13.054 -0.6685  0.5575  0.1066
17420TIP3    H173751   6.463   5.496  13.019 -0.7271 -0.9068 -0.6627
17420TIP3    H273752   6.375   5.392  13.085 -1.2377  1.2279  2.1276
17421TIP3   OH273753   5.292   1.701  14.820  0.0800 -0.2748 -0.4729
17421TIP3    H173754   5.236   1.768  14.858 -0.5207  0.0359 -1.8549
17421TIP3    H273755   5.293   1.722  14.726  2.7800 -0.0612 -0.4338
17422TIP3   OH273756   5.438   5.916   4.002  0.0975 -0.1965 -0.2091
17422TIP3    H173757   5.490   5.838   3.984  0.1279 -0.3291  0.4294
17422TIP3    H273758   5.502   5.986   4.011  0.3309 -0.6698  2.2732
17423TIP3   OH273759   4.164   2.877  17.139  0.2384 -0.0146  0.4582
17423TIP3    H173760   4.118   2.819  17.201  2.2920 -0.4210  1.6690
17423TIP3    H273761   4.247   2.897  17.183  1.2448  0.6403 -1.6884
17424TIP3   OH273762   1.207   4.375   2.165  0.1851 -0.0309  0.3051
17424TIP3    H173763   1.288   4.416   2.138 -0.0961  0.5152  0.2773
17424TIP3    H273764   1.160   4.357   2.084 -0.5091  1.3004  0.3912
17425TIP3   OH273765   0.942   3.429   3.302  0.4986 -0.4333 -0.2027
17425TIP3    H173766   0.857   3.395   3.275  0.2916 -1.7477  2.0040
17425TIP3    H273767   0.976   3.363   3.362  2.1558  1.0795  0.5585
17426TIP3   OH273768   0.260   1.290  13.330 -0.4422  0.0847 -0.4283
17426TIP3    H173769   0.225   1.254  13.412  1.9103 -2.8448 -0.6162
17426TIP3    H273770   0.340   1.335  13.356  0.0387 -0.4036 -1.0625
17427TIP3   OH273771   1.110   1.024  11.946  0.3407 -0.3981 -0.4963
17427TIP3    H173772   1.023   1.040  11.912 -0.4355 -0.2203  1.4899
17427TIP3    H273773   1.102   0.942  11.996  0.9899  0.2500  0.7059
17428TIP3   OH273774   6.382   5.053  14.207 -0.8560 -0.3209  0.0169
17428TIP3    H173775   6.398   5.147  14.219 -0.6468 -0.4159  0.4584
17428TIP3    H273776   6.407   5.013  14.290 -1.1469 -0.7448 -0.0993
17429TIP3   OH273777   6.515   6.660  12.008 -0.0468  0.0902 -0.3850
17429TIP3    H173778   6.475   6.573  12.018  1.0420 -0.4148 -0.2847
17429TIP3    H273779   6.491   6.707  12.088 -1.2535  0.1273 -0.7727
17430TIP3   OH273780   5.484   5.566  10.403 -0.0832  0.1058  0.2309
17430TIP3    H173781   5.395   5.573  10.370  0.2879  0.5215 -0.6947
17430TIP3    H273782   5.507   5.474  10.390  0.0530  0.2612 -0.6777
17431TIP3   OH273783   5.995   2.950  16.112  0.2956 -0.3608  0.1069
17431TIP3    H173784   5.968   2.958  16.020  2.4122  0.5347 -0.4776
17431TIP3    H273785   5.991   2.857  16.131 -0.1365 -0.5506 -0.9047
17432TIP3   OH273786   5.014   1.933   0.025 -0.0170 -0.2898  0.2024
17432TIP3    H173787   5.082   1.867   0.012  1.9805  2.1451 -2.5665
17432TIP3    H273788   5.043   1.983   0.101 -0.1419 -0.9826  0.7018
17433TIP3   OH273789   1.321   1.083   3.789  0.2065  0.1541  0.2371
17433TIP3    H173790   1.307   1.173   3.759 -1.6113 -0.3802 -0.6234
17433TIP3    H273791   1.247   1.067   3.848  0.8174 -0.6032  0.7972
17434TIP3   OH273792   1.702   5.789   5.843  0.1847 -0.1254  0.6193
17434TIP3    H173793   1.610   5.764   5.836  0.2572 -0.1369 -0.4317
17434TIP3    H273794   1.713   5.860   5.780  1.4953 -1.9267 -1.2764
17435TIP3   OH273795   0.619   2.513  14.496 -0.1663  0.2534  0.4783
17435TIP3    H173796   0.645   2.496  14.587  1.3493  0.7874  0.1634
17435TIP3    H273797   0.553   2.446  14.478  0.9670 -1.1521  1.3485
17436TIP3   OH273798   3.973   1.582  15.221  0.1722 -0.0258  0.0666
17436TIP3    H173799   3.941   1.615  15.137  0.5982 -0.4366 -0.2624
17436TIP3    H273800   3.961   1.654  15.282  0.2243  0.4093 -0.4371
17437TIP3   OH273801   1.264   1.498  15.909 -0.1154  0.5459 -0.2294
17437TIP3    H173802   1.184   1.447  15.923  0.6814 -0.5271  0.4137
17437TIP3    H273803   1.334   1.446  15.948  0.6740  2.2879  0.7507
17438TIP3   OH273804   6.672   3.940   2.595 -0.0745  0.2783  0.3234
17438TIP3    H173805   6.655   3.937   2.501  0.4430 -0.2522  0.2490
17438TIP3    H273806   6.766   3.960   2.602 -0.2203  0.8527  0.7310
17439TIP3   OH273807   5.441   4.837  12.913  0.1566  0.0655 -0.0317
17439TIP3    H173808   5.422   4.778  12.986  1.2231  0.4550  0.5864
17439TIP3    H273809   5.510   4.895  12.947  0.1533  0.7183 -1.1114
17440TIP3   OH273810   4.036   4.716   5.043 -0.2324 -0.1169 -0.8561
17440TIP3    H173811   4.093   4.772   4.990  2.1877 -1.1352  0.5698
17440TIP3    H273812   3.968   4.775   5.075 -0.1186  1.0909 -2.7897
17441TIP3   OH273813   5.510   0.049   5.262  0.3804  0.1859  0.0686
17441TIP3    H173814   5.593   0.037   5.309  0.6046  1.3097 -0.0233
17441TIP3    H273815   5.443   0.020   5.324  0.8419 -0.7241  0.1487
17442TIP3   OH273816   4.635   4.914  16.193 -0.0029  0.4167  0.0614
17442TIP3    H173817   4.628   4.845  16.260  1.1258  1.2303  1.0315
17442TIP3    H273818   4.719   4.956  16.211  1.3207 -0.6697 -3.1417
17443TIP3   OH273819   0.220   2.809   0.393  0.5743  0.0204 -0.4528
17443TIP3    H173820   0.282   2.742   0.362  1.0909  0.5034 -0.4642
17443TIP3    H273821   0.144   2.759   0.423  1.4203 -0.6488  0.6019
17444TIP3   OH273822   4.765   0.214  15.609 -0.1782  0.4532 -0.4201
17444TIP3    H173823   4.743   0.140  15.553 -2.0788  1.3524 -0.9041
17444TIP3    H273824   4.823   0.178  15.676 -1.8377 -1.6695 -0.1008
17445TIP3   OH273825   3.009   5.732  14.990  0.2355  0.0963 -0.5314
17445TIP3    H173826   2.963   5.656  14.955 -0.2481 -0.2881  0.9071
17445TIP3    H273827   3.102   5.712  14.976  0.0170  0.6308 -2.9426
17446TIP3   OH273828   4.888   3.573   0.319 -0.5251 -0.6008 -0.0313
17446TIP3    H173829   4.822   3.515   0.357 -1.4493  0.9974  0.8789
17446TIP3    H273830   4.848   3.605   0.238 -1.0582  0.6566  0.7054
17447TIP3   OH273831   6.293   2.111   4.550 -0.1153  0.1720  0.1044
17447TIP3    H173832   6.345   2.075   4.478 -1.7832  0.7992 -1.4387
17447TIP3    H273833   6.341   2.189   4.577 -0.2962  0.7854 -1.3503
17448TIP3   OH273834   0.667   4.056   0.486 -0.6935 -0.1512  0.6824
17448TIP3    H173835   0.694   3.965   0.497 -2.7525 -0.6634  1.5881
17448TIP3    H273836   0.750   4.105   0.485  0.4974 -2.0913 -0.7308
17449TIP3   OH273837   6.304   5.715   4.162  0.3567  0.1125  0.4631
17449TIP3    H173838   6.264   5.711   4.075 -0.9286  1.5392  0.9730
17449TIP3    H273839   6.351   5.632   4.171 -0.1748 -0.3883 -1.2647
17450TIP3   OH273840   2.386   1.384   3.368  0.1049  0.2174  0.5990
17450TIP3    H173841   2.446   1.453   3.341 -0.9968  1.2964  0.9013
17450TIP3    H273842   2.311   1.429   3.405 -0.9472 -1.1110  0.1552
17451TIP3   OH273843   1.575   2.855   1.472  0.2585 -0.5043 -0.2455
17451TIP3    H173844   1.519   2.844   1.395 -2.5745  0.9493  1.4972
17451TIP3    H273845   1.644   2.790   1.461  0.5079  0.3502 -4.4565
17452TIP3   OH273846   1.127   3.280  12.515 -0.3343 -0.1210 -0.4029
17452TIP3    H173847   1.138   3.375  12.503 -0.5220 -0.0056  0.3505
17452TIP3    H273848   1.084   3.251  12.434  1.4836  0.1217 -1.4837
17453TIP3   OH273849   1.314   6.188  14.808 -0.3110 -0.2369 -0.0409
17453TIP3    H173850   1.394   6.240  14.812 -0.6612  0.3730 -0.8134
17453TIP3    H273851   1.248   6.248  14.772 -0.8739 -1.0121 -0.3172
17454TIP3   OH273852   6.037   3.272  16.974  0.2531  0.4431  0.2709
17454TIP3    H173853   5.997   3.198  16.928 -1.0967  1.5295 -0.3440
17454TIP3    H273854   6.128   3.272  16.944  0.1539 -0.6960 -0.0681
17455TIP3   OH273855   6.130   1.135  11.149  0.2316 -0.7568 -0.6478
17455TIP3    H173856   6.134   1.148  11.244  0.1120  0.7726 -0.8294
17455TIP3    H273857   6.042   1.099  11.133 -0.1173 -0.1026 -0.2589
17456TIP3   OH273858   2.826   1.821  13.275 -0.1664  0.5700 -0.2891
17456TIP3    H173859   2.789   1.895  13.228  1.6453  0.4327 -1.9777
17456TIP3    H273860   2.916   1.815  13.244  0.4747 -0.7777  1.7164
17457TIP3   OH273861   1.146   5.509   2.552 -0.2248  0.2303 -0.2899
17457TIP3    H173862   1.060   5.524   2.589  0.2046  1.7295  0.1325
17457TIP3    H273863   1.200   5.481   2.626 -0.2807 -0.4329 -0.4992
17458TIP3   OH273864   2.650   6.006   0.555  0.1971  0.0152 -0.3291
17458TIP3    H173865   2.726   6.064   0.549 -1.3753  1.9863 -1.8499
17458TIP3    H273866   2.575   6.065   0.549 -1.4430 -2.1609 -1.6060
17459TIP3   OH273867   5.311   4.995   2.025 -0.0753 -0.2897 -1.3267
17459TIP3    H173868   5.383   5.025   2.080 -0.4276 -0.2260 -0.8964
17459TIP3    H273869   5.322   5.043   1.943 -0.6137  1.0254 -0.6592
17460TIP3   OH273870   2.463   3.353   5.535 -0.0252 -0.1425  0.7051
17460TIP3    H173871   2.516   3.412   5.588 -1.6314  0.1746  1.9931
17460TIP3    H273872   2.479   3.266   5.571  0.8256 -0.2680  0.0600
17461TIP3   OH273873   4.749   4.743   4.805 -0.1228 -0.2823  0.4441
17461TIP3    H173874   4.775   4.830   4.837 -1.1606 -0.1678  0.9733
17461TIP3    H273875   4.706   4.760   4.721  3.7018 -0.6833 -1.7476
17462TIP3   OH273876   4.434   6.378  16.138  0.0494  0.1216 -0.0124
17462TIP3    H173877   4.373   6.402  16.068 -0.9552  0.4200  0.9521
17462TIP3    H273878   4.517   6.361  16.093  0.0214  2.5333 -1.0741
17463TIP3   OH273879   3.769   1.991  11.901 -0.0751 -0.0198 -0.0736
17463TIP3    H173880   3.799   2.080  11.880 -0.5036 -0.2132 -1.5890
17463TIP3    H273881   3.775   1.944  11.817  0.9963 -1.6716  0.9012
17464TIP3   OH273882   6.730   2.000  13.860  0.2680  0.1246  0.2520
17464TIP3    H173883   6.648   2.003  13.811  0.7040  1.0477 -0.4189
17464TIP3    H273884   6.798   1.992  13.794  0.8178  0.7530  0.7281
17465TIP3   OH273885   3.610   2.249   1.539  0.1197  0.2658  0.6709
17465TIP3    H173886   3.624   2.340   1.564 -1.6559  0.3714  1.3845
17465TIP3    H273887   3.525   2.249   1.496  1.1130 -0.6985 -1.3488
17466TIP3   OH273888   5.711   0.391  16.813  0.1123  0.2839 -0.6394
17466TIP3    H173889   5.707   0.362  16.904 -0.2800  1.5958 -0.2338
17466TIP3    H273890   5.712   0.309  16.762  0.8205 -0.4551  0.5466
17467TIP3   OH273891   0.746   2.997  15.372  0.1061  0.0753  0.0362
17467TIP3    H173892   0.786   3.084  15.383  0.6721 -0.3873  1.7019
17467TIP3    H273893   0.793   2.960  15.297 -1.0355  1.6873 -1.5462
17468TIP3   OH273894   4.139   6.785  15.801 -0.3673  0.4681  0.6094
17468TIP3    H173895   4.190   6.865  15.784 -2.1071  1.5490  0.3521
17468TIP3    H273896   4.152   6.768  15.894  0.9991  0.3331  0.4070
17469TIP3   OH273897   6.627   5.582   5.712  0.4179  0.5743 -0.3490
17469TIP3    H173898   6.630   5.490   5.685  1.4695  0.6553 -0.4984
17469TIP3    H273899   6.556   5.585   5.777  0.6066 -0.4124 -0.0813
17470TIP3   OH273900   4.094   2.459  11.144 -0.3939 -0.5698 -0.5131
17470TIP3    H173901   4.067   2.373  11.177  1.3135 -0.5540  1.0018
17470TIP3    H273902   4.039   2.521  11.192 -1.1543 -0.7780 -1.1112
17471TIP3   OH273903   3.292   5.479   0.092 -0.2452 -1.0458 -0.1163
17471TIP3    H173904   3.240   5.559   0.096 -0.8075 -1.4092 -0.1641
17471TIP3    H273905   3.371   5.499   0.141 -1.5423 -1.3220  2.1277
17472TIP3   OH273906   0.350   3.228   1.454 -0.4803  0.1259 -0.3209
17472TIP3    H173907   0.395   3.161   1.506  0.0868 -0.9515 -2.1499
17472TIP3    H273908   0.259   3.225   1.484 -0.1715 -0.5258  0.5638
17473TIP3   OH273909   5.159   2.985   0.552  0.6178 -0.0268 -0.7755
17473TIP3    H173910   5.139   2.939   0.471  1.6186 -1.5668 -0.1658
17473TIP3    H273911   5.237   3.037   0.532 -0.5534  1.4958 -1.4827
17474TIP3   OH273912   3.730   1.661  15.893 -0.3011  0.4042 -0.3312
17474TIP3    H173913   3.688   1.579  15.918  0.4991  0.0174 -0.2664
17474TIP3    H273914   3.721   1.718  15.970  1.1041 -0.3770  0.4247
17475TIP3   OH273915   2.956   3.575  12.966 -0.3945 -0.0399  0.2866
17475TIP3    H173916   2.994   3.513  13.028 -1.9493 -0.1004  1.2102
17475TIP3    H273917   2.919   3.644  13.021 -0.2930  0.7695 -0.6535
17476TIP3   OH273918   6.050   6.271  17.095 -0.5287 -0.0044  0.3003
17476TIP3    H173919   6.121   6.267  17.030 -0.1319  0.2806  0.7187
17476TIP3    H273920   6.022   6.179  17.104 -1.7592  0.1524 -1.5449
17477TIP3   OH273921   3.380   3.017   1.077 -0.2455 -0.0282  0.4901
17477TIP3    H173922   3.378   2.955   1.004 -0.9921 -1.0827  1.4016
17477TIP3    H273923   3.471   3.047   1.081 -0.0264 -0.5792 -0.3515
17478TIP3   OH273924   1.485   5.994   2.263 -0.0649 -0.2795 -0.1156
17478TIP3    H173925   1.485   6.089   2.274  1.8095 -0.0058 -2.2040
17478TIP3    H273926   1.428   5.962   2.333 -1.5923  2.4450 -0.0480
17479TIP3   OH273927   0.899   2.397  13.905  0.0540  0.2577 -0.0613
17479TIP3    H173928   0.842   2.351  13.967 -0.8308 -0.6497 -1.5216
17479TIP3    H273929   0.886   2.490  13.925 -2.5175  0.0970 -0.8204
17480TIP3   OH273930   6.056   4.387  13.350  0.4587  0.1804 -0.2324
17480TIP3    H173931   6.080   4.330  13.422  0.6871  0.4794 -0.0676
17480TIP3    H273932   6.085   4.474  13.378 -2.4591  0.8906  0.7865
17481TIP3   OH273933   6.406   4.605  14.833 -0.0151  0.2549  0.6701
17481TIP3    H173934   6.374   4.688  14.868 -0.0978  1.6050 -2.4324
17481TIP3    H273935   6.358   4.594  14.751 -0.5728 -3.2661  1.3820
17482TIP3   OH273936   1.433   3.239  15.227 -0.1498  0.1189 -0.1102
17482TIP3    H173937   1.424   3.334  15.222  2.1665  0.4370  0.8670
17482TIP3    H273938   1.470   3.223  15.314  0.5558 -1.5539 -0.6970
17483TIP3   OH273939   4.805   2.124  15.689 -0.1810  0.2003  0.5062
17483TIP3    H173940   4.729   2.065  15.683  1.3956 -1.8343 -0.1960
17483TIP3    H273941   4.811   2.147  15.781 -0.8792 -0.6803  0.7774
17484TIP3   OH273942   6.637   6.736   5.054  0.2221  0.3432  0.5254
17484TIP3    H173943   6.606   6.709   4.968  1.7392 -0.4873  0.2221
17484TIP3    H273944   6.588   6.816   5.073  1.2141  1.5692 -1.9072
17485TIP3   OH273945   5.490   0.676   0.932 -0.0614  0.3082 -0.3544
17485TIP3    H173946   5.569   0.663   0.985 -0.1683  0.8810 -0.0522
17485TIP3    H273947   5.425   0.618   0.972  0.0912  0.1257 -0.3671
17486TIP3   OH273948   5.431   5.125  14.410 -0.0977  0.0626  0.9735
17486TIP3    H173949   5.347   5.160  14.439  0.9182  2.1213  1.5202
17486TIP3    H273950   5.415   5.031  14.399 -2.4305  0.4033  1.1500
17487TIP3   OH273951   4.345   2.533  11.086  0.2842 -0.1579 -0.3995
17487TIP3    H173952   4.256   2.505  11.110 -0.2728  2.0818  0.2901
17487TIP3    H273953   4.400   2.499  11.157 -0.4402  0.8523  0.6705
17488TIP3   OH273954   2.169   1.327   2.358 -0.1878  0.0687 -0.3921
17488TIP3    H173955   2.114   1.297   2.285 -0.4216 -0.8094  0.1389
17488TIP3    H273956   2.165   1.255   2.422  0.4016  0.6296  0.2769
17489TIP3   OH273957   6.155   0.557  13.802  0.0613 -0.3048  0.4801
17489TIP3    H173958   6.141   0.476  13.751 -0.5324  0.5001 -0.6590
17489TIP3    H273959   6.151   0.529  13.893 -0.9566 -1.4436  0.1016
17490TIP3   OH273960   4.438   4.229  14.652 -0.0464  0.5619  0.2787
17490TIP3    H173961   4.473   4.267  14.732  1.4863  0.3272 -0.2789
17490TIP3    H273962   4.392   4.301  14.609 -1.6913  0.4652  1.8065
17491TIP3   OH273963   3.057   0.778   4.314  0.0212 -0.1351 -0.3724
17491TIP3    H173964   3.101   0.694   4.300  0.0505 -0.0654 -0.7039
17491TIP3    H273965   3.123   0.832   4.358  0.0192 -0.2675 -0.2053
17492TIP3   OH273966   4.325   3.882   2.520  0.3760 -0.0944 -0.5371
17492TIP3    H173967   4.241   3.913   2.554  0.1219 -2.3497  1.0702
17492TIP3    H273968   4.385   3.892   2.594  0.9816 -0.5479 -0.9685
17493TIP3   OH273969   4.838   5.905  10.520  0.1189  0.1835  0.7920
17493TIP3    H173970   4.778   5.950  10.460  0.4707  0.7075  0.8395
17493TIP3    H273971   4.782   5.874  10.591  0.1091  1.7924  1.4847
17494TIP3   OH273972   0.400   0.155  15.846 -0.3142  0.3961  0.1351
17494TIP3    H173973   0.305   0.145  15.860 -0.2968  0.0966  0.0318
17494TIP3    H273974   0.434   0.066  15.849  0.1354  0.5916  1.3817
17495TIP3   OH273975   0.575   0.149   1.914 -0.3761  0.6582  0.5001
17495TIP3    H173976   0.640   0.153   1.844 -1.4028  3.3769 -0.3571
17495TIP3    H273977   0.615   0.199   1.986  0.1747 -1.1283  1.4603
17496TIP3   OH273978   0.109   3.116   1.788  0.1711 -0.4529  0.1993
17496TIP3    H173979   0.192   3.159   1.772  0.5459 -1.3139 -0.1921
17496TIP3    H273980   0.071   3.163   1.863  1.6814 -0.9956  1.3237
17497TIP3   OH273981   5.489   1.423  16.670 -0.3575  0.1829 -0.9242
17497TIP3    H173982   5.407   1.470  16.684 -0.4724  0.0138 -1.0323
17497TIP3    H273983   5.553   1.470  16.724 -0.2799  1.0039 -1.7157
17498TIP3   OH273984   0.521   0.010   0.668  0.0637 -0.0459 -0.4404
17498TIP3    H173985   0.617   0.017   0.670  0.1315 -0.7736 -0.8035
17498TIP3    H273986   0.497  -0.028   0.752 -0.0195  1.2631  0.1487
17499TIP3   OH273987   3.266   4.022  14.796  0.4554  0.1991  0.2139
17499TIP3    H173988   3.351   4.057  14.770  0.4633 -1.0889 -1.5516
17499TIP3    H273989   3.203   4.076  14.748  0.2629  0.8107  1.1209
17500TIP3   OH273990   6.685   2.097  13.365  0.3889 -0.3500 -0.1227
17500TIP3    H173991   6.655   2.110  13.275 -0.2701  0.6989  0.2390
17500TIP3    H273992   6.780   2.110  13.361  0.3449 -0.1802 -0.6357
17501TIP3   OH273993   5.723   5.894   3.655 -0.3299 -0.3578 -0.1230
17501TIP3    H173994   5.671   5.814   3.655  2.0265 -1.9413  1.2265
17501TIP3    H273995   5.811   5.866   3.629  0.8845  1.5330  1.7598
17502TIP3   OH273996   5.721   1.339   3.782  0.5331  0.4707 -0.4839
17502TIP3    H173997   5.800   1.371   3.739  0.8012 -0.5298 -0.7363
17502TIP3    H273998   5.729   1.244   3.781  0.3471  0.4023  1.4055
17503TIP3   OH273999   2.709   4.766   3.394  0.1757  0.3561  0.3845
17503TIP3    H174000   2.762   4.687   3.384  0.4532  0.4620  0.9532
17503TIP3    H274001   2.625   4.745   3.354  0.3224 -0.1516  0.3430
17504TIP3   OH274002   0.935   1.924  11.770  0.1697  0.2940  0.5546
17504TIP3    H174003   0.950   1.952  11.860  1.0979 -0.2208  0.5600
17504TIP3    H274004   0.920   1.829  11.776  1.9145 -0.0355 -0.0146
17505TIP3   OH274005   4.968   4.307  16.132  0.2340 -0.6604  0.4399
17505TIP3    H174006   4.922   4.357  16.065 -0.0326 -0.1034  1.0231
17505TIP3    H274007   4.898   4.272  16.188  0.4875 -0.2613  1.0179
17506TIP3   OH274008   4.105   4.014  11.076  0.1642 -0.7909 -0.3122
17506TIP3    H174009   4.086   3.942  11.136 -0.2821 -1.4071 -1.1785
17506TIP3    H274010   4.172   3.980  11.017  0.0954 -0.4378 -0.5973
17507TIP3   OH274011   5.771   2.701  14.696 -0.0983  0.2615 -0.5741
17507TIP3    H174012   5.851   2.650  14.684 -1.2427 -1.7086 -0.1009
17507TIP3    H274013   5.711   2.668  14.629 -0.5851  1.5688 -0.7970
17508TIP3   OH274014   3.600   1.512   0.356  0.0404 -0.1891 -0.1431
17508TIP3    H174015   3.599   1.472   0.269  0.5528 -0.2389 -0.1272
17508TIP3    H274016   3.630   1.602   0.341  1.2939 -0.5562  0.1296
17509TIP3   OH274017   5.538   3.434  16.196  0.6368 -0.1366 -0.4652
17509TIP3    H174018   5.562   3.527  16.205  1.6522 -0.5255  1.0508
17509TIP3    H274019   5.443   3.435  16.187  0.4603  0.9699  1.2238
17510TIP3   OH274020   4.563   0.243  11.815  0.3211 -0.3363  0.0839
17510TIP3    H174021   4.481   0.278  11.849 -0.0069  0.8998 -1.8725
17510TIP3    H274022   4.608   0.319  11.777  0.3807 -1.6852 -2.6828
17511TIP3   OH274023   2.988   2.808  14.158 -0.1403  0.2418  0.4387
17511TIP3    H174024   3.044   2.735  14.133 -0.3370  0.0892  0.4423
17511TIP3    H274025   2.971   2.855  14.077  0.3206  0.5228  0.4993
17512TIP3   OH274026   5.623   2.800  16.709 -0.4073 -0.0733 -0.1646
17512TIP3    H174027   5.577   2.872  16.754 -0.5577  0.2991 -0.9140
17512TIP3    H274028   5.673   2.844  16.640 -1.1932 -0.7931 -1.1842
17513TIP3   OH274029   6.517   5.126  13.951  0.3954  0.2512 -0.3341
17513TIP3    H174030   6.479   5.120  13.864 -1.4625  1.6067  0.3565
17513TIP3    H274031   6.582   5.197  13.944  1.1933 -0.5307 -0.9375
17514TIP3   OH274032   4.968   0.591  15.223 -0.2239 -0.1472 -0.5485
17514TIP3    H174033   4.874   0.600  15.236 -0.0264  1.0918  0.0321
17514TIP3    H274034   4.975   0.541  15.141 -1.3818  0.8249 -1.2711
17515TIP3   OH274035   0.426   5.756  15.433  0.4158  0.1504  0.3562
17515TIP3    H174036   0.503   5.727  15.483 -0.4867 -0.3423  1.5027
17515TIP3    H274037   0.417   5.848  15.455  0.2104  0.0124  0.8743
17516TIP3   OH274038   5.816   6.418  12.666 -0.9836 -0.1244 -0.1207
17516TIP3    H174039   5.743   6.437  12.724  0.0504  0.2851  1.0768
17516TIP3    H274040   5.873   6.361  12.718 -0.1102  0.1387 -0.7805
17517TIP3   OH274041   0.204   2.611   6.278  0.3385 -0.0506  0.2651
17517TIP3    H174042   0.186   2.704   6.265  0.1657 -0.2035 -0.6186
17517TIP3    H274043   0.131   2.580   6.332 -0.4814 -0.0213 -0.8092
17518TIP3   OH274044   5.710   6.444   3.906  0.2455 -0.2537 -0.3338
17518TIP3    H174045   5.774   6.374   3.903 -0.5101 -0.9474 -0.4749
17518TIP3    H274046   5.625   6.400   3.904 -0.2421  0.6325  0.2525
17519TIP3   OH274047   6.082   2.669   3.722  0.1958  0.6248 -0.5849
17519TIP3    H174048   6.169   2.629   3.716 -0.5975 -0.8899 -2.2136
17519TIP3    H274049   6.045   2.633   3.803  0.3064 -0.3012 -0.9434
17520TIP3   OH274050   5.855   3.388  13.449 -0.0236 -0.6984  0.8323
17520TIP3    H174051   5.822   3.454  13.387 -0.3231 -0.7996  0.8864
17520TIP3    H274052   5.860   3.307  13.397  1.9429 -0.2663  0.2936
17521TIP3   OH274053   1.690   5.754  12.111 -0.6427 -0.4551 -0.0331
17521TIP3    H174054   1.607   5.707  12.108 -0.4537 -0.9375  1.5655
17521TIP3    H274055   1.668   5.843  12.082 -1.2567 -1.1613 -1.7710
17522TIP3   OH274056   0.926   4.411   1.742  0.1103  0.3368  0.2538
17522TIP3    H174057   0.971   4.487   1.706  0.2863 -0.4652 -1.2674
17522TIP3    H274058   0.879   4.445   1.818  0.3037  1.9311 -0.3173
17523TIP3   OH274059   0.099   6.141   1.783 -0.5566 -0.0200 -0.3703
17523TIP3    H174060   0.100   6.186   1.699  0.6445 -0.5675 -0.6703
17523TIP3    H274061   0.189   6.110   1.794 -0.2694  1.5429  1.9485
17524TIP3   OH274062   0.025   5.931   5.518 -0.0182  0.1125  0.4781
17524TIP3    H174063   0.117   5.940   5.545  0.5229  0.1853 -1.3121
17524TIP3    H274064   0.017   5.988   5.442 -1.4954 -0.0885  0.4780
17525TIP3   OH274065   1.619   1.089  15.716 -0.2176  0.5561  0.1326
17525TIP3    H174066   1.680   1.082  15.789 -0.5602 -0.7490  0.3102
17525TIP3    H274067   1.642   1.016  15.657 -0.8277  0.7624 -0.3751
17526TIP3   OH274068   3.896   5.262   3.319  0.3341  0.6539 -0.4024
17526TIP3    H174069   3.975   5.258   3.372  0.6729  0.2995 -0.9321
17526TIP3    H274070   3.920   5.219   3.237 -0.8140 -0.6512 -0.0568
17527TIP3   OH274071   6.119   2.088  11.960 -0.0337  0.6300 -0.6132
17527TIP3    H174072   6.094   2.110  12.050  1.3513  1.0139 -0.3257
17527TIP3    H274073   6.200   2.136  11.944  1.3847 -1.7997 -1.0104
17528TIP3   OH274074   4.052   5.684   3.077  0.4193  0.5008 -0.5214
17528TIP3    H174075   4.081   5.657   2.990  0.3594  1.1314 -0.7451
17528TIP3    H274076   4.130   5.723   3.117  0.1676  1.1938 -0.7034
17529TIP3   OH274077   4.225   6.169   1.287 -0.0386  0.0387  0.8631
17529TIP3    H174078   4.238   6.198   1.377 -0.2501  0.7917  0.6541
17529TIP3    H274079   4.260   6.080   1.285 -0.4980 -0.1654  1.8163
17530TIP3   OH274080   3.748   4.496   4.572 -0.4154 -0.1304  0.3152
17530TIP3    H174081   3.749   4.431   4.502  2.7456 -1.0420  1.1326
17530TIP3    H274082   3.696   4.455   4.641  0.4723 -1.2692  0.3213
17531TIP3   OH274083   5.306   6.178  13.929  0.1291 -0.0946 -0.1046
17531TIP3    H174084   5.244   6.111  13.900  0.6024 -0.2498 -0.7748
17531TIP3    H274085   5.375   6.177  13.862 -0.9041  2.5065 -1.2781
17532TIP3   OH274086   5.789   4.092   4.680 -0.0752 -0.4919 -0.9372
17532TIP3    H174087   5.720   4.086   4.746 -0.1163 -1.4213 -1.0673
17532TIP3    H274088   5.794   4.186   4.660 -0.9966 -0.3664 -0.6121
17533TIP3   OH274089   2.163   5.659   4.510 -0.0048  0.1704 -0.6165
17533TIP3    H174090   2.095   5.600   4.479 -1.4476  1.7233 -0.4431
17533TIP3    H274091   2.238   5.602   4.527 -1.5855 -1.7066  0.2155
17534TIP3   OH274092   5.687   3.863  15.951  0.1165  0.5209  0.0358
17534TIP3    H174093   5.719   3.853  16.040  1.4541 -0.7796 -0.5644
17534TIP3    H274094   5.596   3.834  15.955  0.5740 -0.8757  0.7134
17535TIP3   OH274095   2.708   3.202  10.790 -0.5218  0.4807  0.2382
17535TIP3    H174096   2.775   3.135  10.773 -0.2511  0.0998  2.6326
17535TIP3    H274097   2.721   3.267  10.720  3.8901  1.5635  1.8972
17536TIP3   OH274098   1.010   5.450   1.500 -0.4668  0.2219 -0.3043
17536TIP3    H174099   0.917   5.439   1.519 -0.3434 -0.5819 -0.1522
17536TIP3    H274100   1.052   5.448   1.587 -0.1918 -0.6032 -0.4493
17537TIP3   OH274101   0.689   6.731   0.889  0.1856 -0.0294 -0.2044
17537TIP3    H174102   0.714   6.650   0.845 -1.4975 -0.3163 -0.6732
17537TIP3    H274103   0.770   6.763   0.929  1.9800  0.6277 -4.1222
17538TIP3   OH274104   3.933   1.553   1.771  0.2641  0.2287  0.6490
17538TIP3    H174105   3.940   1.574   1.678  1.7954  0.9991  0.9228
17538TIP3    H274106   3.891   1.467   1.773  0.5544  0.0380 -0.7739
17539TIP3   OH274107   4.248   1.865  11.209  0.6860  0.2076  0.6939
17539TIP3    H174108   4.261   1.773  11.189 -0.0316  0.6303 -1.9252
17539TIP3    H274109   4.312   1.885  11.277 -0.3251 -2.6132  2.5513
17540TIP3   OH274110   3.579   2.035   4.698  0.0965  0.0348 -0.7856
17540TIP3    H174111   3.662   1.990   4.681  0.0081 -0.2243 -0.5261
17540TIP3    H274112   3.605   2.121   4.733  0.2459 -0.4577  0.3403
17541TIP3   OH274113   2.681   6.421  13.213 -0.0287  0.0648 -0.0195
17541TIP3    H174114   2.655   6.512  13.196 -2.5885 -0.7477 -0.7432
17541TIP3    H274115   2.747   6.427  13.282 -0.1733  2.4688 -0.0512
17542TIP3   OH274116   3.589   6.011   1.899  0.6107 -0.2155 -0.0403
17542TIP3    H174117   3.640   5.938   1.935 -0.5138 -1.0060 -0.0427
17542TIP3    H274118   3.608   6.010   1.806 -0.8442 -1.6741 -0.3345
17543TIP3   OH274119   2.587   5.870  16.253  0.3147  0.2206  0.4202
17543TIP3    H174120   2.595   5.844  16.162 -1.6804  2.3929 -0.4532
17543TIP3    H274121   2.550   5.794  16.297  1.0748 -0.7685 -0.6273
17544TIP3   OH274122   4.727   5.281  11.320 -0.5859  0.3715  0.1008
17544TIP3    H174123   4.783   5.351  11.354 -0.2444  0.5770 -0.8854
17544TIP3    H274124   4.639   5.305  11.349 -0.4183  0.9902  0.1100
17545TIP3   OH274125   5.886   2.782   1.089 -0.6019 -0.1716 -0.2884
17545TIP3    H174126   5.870   2.859   1.033  0.7591  0.8711  0.7281
17545TIP3    H274127   5.827   2.794   1.163  0.1849  0.3225  0.2659
17546TIP3   OH274128   4.289   2.400   3.774  0.6139 -0.0737 -0.6662
17546TIP3    H174129   4.247   2.479   3.809  0.5601 -0.9778  1.3584
17546TIP3    H274130   4.381   2.410   3.795  0.6257 -0.4953 -0.5127
17547TIP3   OH274131   0.301   2.376  16.613  0.9722  0.0839  0.5788
17547TIP3    H174132   0.273   2.428  16.688 -0.6950  1.6603 -1.0792
17547TIP3    H274133   0.374   2.426  16.575 -0.4777  1.1478 -0.8770
17548TIP3   OH274134   2.448   0.113   0.321  0.1203 -0.5545 -0.2476
17548TIP3    H174135   2.446   0.063   0.403  0.6909  0.5880  0.4742
17548TIP3    H274136   2.531   0.162   0.325 -1.9973  3.1650  0.7003
17549TIP3   OH274137   0.811   5.736   3.399  0.8360  0.1605  0.3825
17549TIP3    H174138   0.798   5.792   3.322 -0.3380 -1.4669 -0.6435
17549TIP3    H274139   0.723   5.707   3.422  1.3643 -0.7136  1.3257
17550TIP3   OH274140   5.850   1.828   5.047 -0.0735  0.4112  0.4256
17550TIP3    H174141   5.876   1.739   5.069 -1.0690  0.1362  0.5016
17550TIP3    H274142   5.864   1.835   4.953 -0.1408  0.1284  0.3959
17551TIP3   OH274143   5.352   0.067   0.747  0.6697  0.4819  0.3170
17551TIP3    H174144   5.397   0.151   0.743  0.1188  0.8517  1.4955
17551TIP3    H274145   5.269   0.081   0.703  1.1603  0.1568 -0.7246
17552TIP3   OH274146   4.771   5.169  15.656  0.1789  0.2009 -0.4298
17552TIP3    H174147   4.789   5.183  15.749 -1.3750 -3.3364  0.5084
17552TIP3    H274148   4.849   5.127  15.622 -0.5590 -1.6749  0.1391
17553TIP3   OH274149   1.509   3.748   0.150 -0.1270 -0.1815  0.0365
17553TIP3    H174150   1.578   3.777   0.091 -1.3264 -0.5417 -1.5856
17553TIP3    H274151   1.539   3.664   0.183  0.7564  0.2300  0.3024
17554TIP3   OH274152   3.523   6.818  12.748 -0.5276 -0.2917  0.3684
17554TIP3    H174153   3.586   6.749  12.766 -0.0308 -0.1205 -0.6807
17554TIP3    H274154   3.448   6.773  12.709  0.8884  0.0575 -2.8581
17555TIP3   OH274155   1.861   5.876  15.894  0.4760  0.5527  0.6960
17555TIP3    H174156   1.781   5.826  15.903  0.3248  0.8981  1.3186
17555TIP3    H274157   1.875   5.884  15.799  0.9425 -1.3464  0.5791
17556TIP3   OH274158   1.082   5.240   4.708 -0.1902  0.2620 -0.5121
17556TIP3    H174159   1.176   5.242   4.725 -0.1607  0.2393 -0.6768
17556TIP3    H274160   1.072   5.274   4.619 -0.2345 -0.8679 -0.9475
17557TIP3   OH274161   3.906   2.640  14.232 -0.2310 -0.1582  0.4049
17557TIP3    H174162   3.989   2.598  14.208 -0.4661  0.0115 -0.7162
17557TIP3    H274163   3.904   2.720  14.180 -0.1996  0.8213  1.8951
17558TIP3   OH274164   3.147   5.504  12.374  0.4005 -0.3328 -0.1217
17558TIP3    H174165   3.186   5.475  12.291  0.1159 -1.6658  0.1974
17558TIP3    H274166   3.175   5.596  12.383  2.1431 -0.7856 -0.6688
17559TIP3   OH274167   4.346   0.955  12.066 -0.4364  0.0282  0.1297
17559TIP3    H174168   4.365   0.960  11.972 -0.7714  0.0396  0.0615
17559TIP3    H274169   4.367   0.865  12.090  0.2873  0.2060  0.1875
17560TIP3   OH274170   6.696   6.136  13.491 -0.1681 -0.1881  0.7286
17560TIP3    H174171   6.640   6.210  13.468 -0.5114 -0.8845 -0.7216
17560TIP3    H274172   6.637   6.061  13.493  0.6892 -0.9407 -0.8848
17561TIP3   OH274173   1.909   6.436   4.039  0.2347  0.2456 -0.3743
17561TIP3    H174174   1.883   6.487   3.962 -0.4165  0.0121 -0.3195
17561TIP3    H274175   1.836   6.375   4.052 -0.5524  1.5397  1.5661
17562TIP3   OH274176   2.066   4.870   3.029 -0.7615 -0.0812 -0.5635
17562TIP3    H174177   2.019   4.944   3.070 -1.0396 -1.2397  1.2673
17562TIP3    H274178   2.159   4.892   3.040 -0.8440  0.1254 -0.2629
17563TIP3   OH274179   4.798   6.101  13.509 -0.1352  0.1529  0.2023
17563TIP3    H174180   4.867   6.075  13.448 -0.3537  0.2696 -0.0987
17563TIP3    H274181   4.781   6.193  13.487  0.7489  0.5990  1.3620
17564TIP3   OH274182   6.492   6.201   4.041 -0.1633  0.3172  0.1146
17564TIP3    H174183   6.454   6.115   4.026 -0.5892  0.0963  2.3189
17564TIP3    H274184   6.581   6.195   4.005  0.6649 -1.8166  2.4279
17565TIP3   OH274185   2.060   0.992  13.710 -0.3017 -0.6070  0.2398
17565TIP3    H174186   2.136   0.933  13.706  0.6998  0.6419  0.6502
17565TIP3    H274187   2.097   1.080  13.713 -1.7985  0.1160 -1.2008
17566TIP3   OH274188   0.626   0.986   0.824 -0.7652 -0.4007  0.3210
17566TIP3    H174189   0.626   0.924   0.897 -0.7089 -0.1641  0.5244
17566TIP3    H274190   0.622   1.072   0.866 -0.0426 -0.2395  0.0691
17567TIP3   OH274191   2.207   2.639  15.023  0.1555  0.1653 -0.5768
17567TIP3    H174192   2.281   2.687  15.061 -0.4221 -0.5111  1.4812
17567TIP3    H274193   2.140   2.705  15.007  0.3708  0.4483 -0.2986
17568TIP3   OH274194   1.176   1.824  11.984 -0.5933 -0.0702 -0.2841
17568TIP3    H174195   1.267   1.814  12.012 -0.8569  1.7817  1.3376
17568TIP3    H274196   1.131   1.749  12.022 -0.0480 -0.1256  0.2742
17569TIP3   OH274197   1.325   1.538  11.854 -0.0191  0.0569 -0.0487
17569TIP3    H174198   1.385   1.475  11.814 -0.7078 -1.4380  1.1829
17569TIP3    H274199   1.247   1.535  11.798  0.5549  1.0517 -0.9218
17570TIP3   OH274200   1.996   3.148  17.141 -0.7056 -0.5060  0.2486
17570TIP3    H174201   1.962   3.189  17.221 -1.1703 -1.4807  0.5592
17570TIP3    H274202   1.927   3.162  17.076 -1.9067 -2.8155  0.9784
17571TIP3   OH274203   1.993   1.231   1.849 -0.0432  0.0225  0.2421
17571TIP3    H174204   1.910   1.192   1.876  0.4900 -0.4967  1.1437
17571TIP3    H274205   1.968   1.296   1.782 -1.1759 -0.0639  0.5664
17572TIP3   OH274206   1.869   6.460   5.607 -0.1278 -0.0084 -0.0622
17572TIP3    H174207   1.774   6.468   5.609 -0.1325  0.4144 -1.4137
17572TIP3    H274208   1.900   6.548   5.586  0.5817 -0.0274  0.9089
17573TIP3   OH274209   1.266   1.701  13.948  0.1542  0.2372  0.1831
17573TIP3    H174210   1.238   1.769  14.010  0.7624  0.8679 -0.2157
17573TIP3    H274211   1.217   1.720  13.868  0.5580  0.4132 -0.0293
17574TIP3   OH274212   5.609   0.153   5.688 -0.2466  0.3541 -0.4033
17574TIP3    H174213   5.519   0.141   5.721  0.6042 -2.9965  0.9572
17574TIP3    H274214   5.664   0.128   5.762  1.8313  1.9427 -1.3897
17575TIP3   OH274215   2.184   5.861   2.464 -0.2638  0.4614 -0.0524
17575TIP3    H174216   2.138   5.940   2.435  0.1442  0.4995 -0.6172
17575TIP3    H274217   2.225   5.827   2.384  2.0719  1.3534  0.7052
17576TIP3   OH274218   6.130   4.223   3.842 -0.3551  0.2793 -0.8627
17576TIP3    H174219   6.093   4.305   3.876 -2.4350  0.0421 -2.4081
17576TIP3    H274220   6.120   4.161   3.914  1.6491  1.4581  0.4851
17577TIP3   OH274221   0.074   2.023   0.222  0.2419 -0.2115  0.2997
17577TIP3    H174222   0.088   1.930   0.240  0.5675 -0.2703 -0.2415
17577TIP3    H274223  -0.012   2.042   0.260  1.0240 -0.2596  2.1364
17578TIP3   OH274224   6.387   3.347  15.757 -0.2796 -0.1895  0.2311
17578TIP3    H174225   6.439   3.306  15.688 -0.8274  1.1848 -1.0393
17578TIP3    H274226   6.379   3.438  15.729 -1.3701  0.1565  1.6190
17579TIP3   OH274227   1.504   4.790   5.321 -0.0488  0.5792  0.6117
17579TIP3    H174228   1.525   4.883   5.321  1.4431  0.2719 -0.9461
17579TIP3    H274229   1.430   4.782   5.260  2.0846  0.3275 -2.0480
17580TIP3   OH274230   0.631   5.209   1.745 -0.3460  0.0082  0.1828
17580TIP3    H174231   0.692   5.135   1.745 -2.1124 -1.5037 -2.2471
17580TIP3    H274232   0.545   5.169   1.728 -1.8332  2.2553  2.1263
17581TIP3   OH274233   0.597   5.492  14.476 -0.4948  0.3863 -0.3701
17581TIP3    H174234   0.653   5.522  14.547 -0.7065  3.8049 -1.5884
17581TIP3    H274235   0.658   5.455  14.412  0.1804  1.9402 -0.6466
17582TIP3   OH274236   3.501   0.898  14.974  0.4711  0.3976 -0.1121
17582TIP3    H174237   3.554   0.824  15.001 -0.7854 -0.1206  1.0149
17582TIP3    H274238   3.415   0.861  14.954 -0.4141  1.6244  1.2485
17583TIP3   OH274239   5.598   4.997  14.646  0.7768 -0.3582  0.1745
17583TIP3    H174240   5.561   4.983  14.559  0.9617 -0.0262  0.0405
17583TIP3    H274241   5.692   4.982  14.634  0.8242 -0.1416  0.2781
17584TIP3   OH274242   1.993   1.053  17.047 -0.0505  0.2323  0.2329
17584TIP3    H174243   1.948   1.113  17.107 -1.4667 -0.2083 -0.3682
17584TIP3    H274244   1.931   0.980  17.035  1.0405 -0.6378 -0.1997
17585TIP3   OH274245   5.346   5.421  12.266 -0.5840 -0.1813  0.3719
17585TIP3    H174246   5.344   5.471  12.185  2.8041 -0.3224  0.1180
17585TIP3    H274247   5.262   5.376  12.269 -0.6965 -0.3183 -3.1431
17586TIP3   OH274248   4.046   0.811  15.185 -0.0551  0.3594 -0.5335
17586TIP3    H174249   4.106   0.846  15.120  0.7368  1.8715  0.9918
17586TIP3    H274250   4.099   0.799  15.264 -1.3152 -0.1347  0.2627
17587TIP3   OH274251   4.816   1.289  14.545 -0.2266 -0.1652 -0.1473
17587TIP3    H174252   4.880   1.266  14.477 -0.6484 -1.8565  0.0089
17587TIP3    H274253   4.770   1.207  14.563 -1.1912  0.6307  1.0595
17588TIP3   OH274254   4.652   5.804  16.042 -0.1392  0.0517 -0.5475
17588TIP3    H174255   4.629   5.766  16.126 -1.2323  1.1877 -0.3163
17588TIP3    H274256   4.680   5.730  15.988 -0.4978 -0.8131  0.4624
17589TIP3   OH274257   1.541   3.837   1.213 -0.2779  0.6232 -0.5862
17589TIP3    H174258   1.449   3.819   1.231  0.1797 -1.4739 -0.2237
17589TIP3    H274259   1.557   3.798   1.127  0.5171  0.1539 -0.2224
17590TIP3   OH274260   1.315   2.749  12.637 -0.1972  0.3240  0.4661
17590TIP3    H174261   1.222   2.725  12.638 -0.6013  1.7168 -1.3468
17590TIP3    H274262   1.317   2.835  12.595  1.8362  0.7207  1.3133
17591TIP3   OH274263   2.918   5.684   3.717  0.2797 -0.3831  0.1725
17591TIP3    H174264   2.966   5.717   3.793  0.0365 -0.4766  0.3694
17591TIP3    H274265   2.847   5.748   3.705  0.0595 -0.6077  0.2913
17592TIP3   OH274266   1.502   3.792  15.134 -0.3213  0.8597 -0.0095
17592TIP3    H174267   1.428   3.845  15.103 -0.5749  0.4540 -0.0927
17592TIP3    H274268   1.572   3.856  15.147 -0.6139  1.2151 -0.1524
17593TIP3   OH274269   3.732   3.817  13.469  0.4353  0.3174  0.3623
17593TIP3    H174270   3.697   3.826  13.557 -0.5987 -1.2752  0.1253
17593TIP3    H274271   3.733   3.723  13.452  1.6576  0.5379 -0.9131
17594TIP3   OH274272   5.478   1.569   0.957 -0.4326  0.5000 -0.0728
17594TIP3    H174273   5.454   1.660   0.977 -1.1172 -0.2156  2.5354
17594TIP3    H274274   5.418   1.544   0.886 -1.9628  1.2739  0.9229
17595TIP3   OH274275   5.336   0.090  13.334  0.4817 -0.1012 -1.0511
17595TIP3    H174276   5.341   0.186  13.336  0.4206 -0.0238 -3.0961
17595TIP3    H274277   5.314   0.070  13.243  0.0912 -2.0499 -0.5442
17596TIP3   OH274278   4.410   0.359   1.856  0.2403 -0.1783 -0.2656
17596TIP3    H174279   4.366   0.278   1.878 -0.6970  0.6008  0.7305
17596TIP3    H274280   4.471   0.335   1.785 -0.7132 -1.5360 -0.6272
17597TIP3   OH274281   2.373   6.134   1.657  0.3125 -0.2408  0.6296
17597TIP3    H174282   2.384   6.040   1.642 -1.6713 -0.2548 -0.9009
17597TIP3    H274283   2.388   6.145   1.751 -1.7373 -2.4592  1.2619
17598TIP3   OH274284   5.788   1.486  12.988  0.1363  0.8959  0.4503
17598TIP3    H174285   5.759   1.501  12.898 -0.3428  1.8368  0.7595
17598TIP3    H274286   5.707   1.476  13.038  0.4120 -0.2835  0.6741
17599TIP3   OH274287   6.411   2.658  12.627  0.4958  0.0721 -0.1939
17599TIP3    H174288   6.442   2.576  12.590 -0.7087 -0.1041 -0.8458
17599TIP3    H274289   6.407   2.719  12.553 -1.8969 -0.2784 -0.4109
17600TIP3   OH274290   2.103   5.527   1.325  0.1196  0.3479  0.2546
17600TIP3    H174291   2.038   5.568   1.383 -0.9336  1.0553 -1.3653
17600TIP3    H274292   2.055   5.457   1.281  0.8460 -0.0455  0.0825
17601TIP3   OH274293   3.169   0.873   1.544  0.3652  0.0882  0.1574
17601TIP3    H174294   3.141   0.950   1.593 -2.2792 -0.1930 -0.8224
17601TIP3    H274295   3.243   0.838   1.593 -0.1875  1.6491  2.1508
17602TIP3   OH274296   4.357   2.922  14.682 -0.0975 -0.0525  0.3444
17602TIP3    H174297   4.419   2.952  14.748 -0.3501  1.1960  0.0334
17602TIP3    H274298   4.278   2.899  14.731  0.2343 -0.5998  0.6274
17603TIP3   OH274299   3.546   0.223  11.773  0.0568 -0.0505  0.0004
17603TIP3    H174300   3.490   0.156  11.813  1.7438  0.0923  2.7662
17603TIP3    H274301   3.489   0.299  11.762 -0.5640 -0.1915  1.9397
17604TIP3   OH274302   3.034   0.585   5.746 -0.0546 -0.1138 -0.1523
17604TIP3    H174303   2.963   0.642   5.716 -0.2389  0.1166  0.7042
17604TIP3    H274304   2.992   0.528   5.811 -0.1913 -2.1338 -1.9415
17605TIP3   OH274305   0.020   0.902   5.621 -0.2629 -0.9366  0.4978
17605TIP3    H174306   0.078   0.952   5.564 -1.5681  0.4639  0.3640
17605TIP3    H274307  -0.005   0.964   5.690 -3.7490 -0.6338 -0.9378
17606TIP3   OH274308   4.412   1.052   2.570 -0.2441 -0.4548 -0.1539
17606TIP3    H174309   4.391   0.967   2.532  1.9074 -1.6336  1.2091
17606TIP3    H274310   4.446   1.104   2.497 -2.3890 -0.4557 -1.1666
17607TIP3   OH274311   6.302   2.490  17.074 -0.3649 -0.1439 -0.6375
17607TIP3    H174312   6.211   2.463  17.086  0.3297 -3.3496 -2.0260
17607TIP3    H274313   6.328   2.523  17.160 -3.2275  2.2427 -0.5945
17608TIP3   OH274314   2.435   0.515   4.483 -0.4271 -0.0194 -0.7692
17608TIP3    H174315   2.520   0.539   4.447 -0.4382 -0.1029 -0.8499
17608TIP3    H274316   2.417   0.428   4.447  0.0424 -0.5549  0.2779
17609TIP3   OH274317   2.140   3.525   4.270 -0.1679  0.3267 -0.3224
17609TIP3    H174318   2.123   3.608   4.227  1.2805  1.1618  0.6761
17609TIP3    H274319   2.193   3.476   4.207 -1.0549  0.1236 -0.9246
17610TIP3   OH274320   3.741   1.145  14.603 -0.2392 -0.4774 -0.2933
17610TIP3    H174321   3.661   1.195  14.613 -0.8570 -1.2207 -1.3709
17610TIP3    H274322   3.732   1.072  14.665 -0.3121 -0.4435 -0.2644
17611TIP3   OH274323   4.867   5.698  11.722  0.5619  0.2569  0.0855
17611TIP3    H174324   4.831   5.786  11.719  2.8636  1.1749 -1.9350
17611TIP3    H274325   4.857   5.665  11.632  0.8252 -1.0886  0.5401
17612TIP3   OH274326   5.024   2.182  11.317  0.0942  0.1946 -0.1502
17612TIP3    H174327   5.075   2.206  11.394 -1.8892 -0.9604  1.5832
17612TIP3    H274328   5.018   2.087  11.321  1.1243  0.0128 -2.5065
17613TIP3   OH274329   2.117   0.428  10.805  0.3183  0.4998 -0.3636
17613TIP3    H174330   2.206   0.431  10.841  1.1846 -1.1877 -2.3187
17613TIP3    H274331   2.074   0.360  10.857  0.7927 -0.1199 -0.7697
17614TIP3   OH274332   4.778   1.955   4.145 -0.7120 -0.3541  0.1643
17614TIP3    H174333   4.716   1.888   4.118 -0.4759 -1.2988  1.8829
17614TIP3    H274334   4.732   2.038   4.131 -1.2921 -0.9073 -1.2346
17615TIP3   OH274335   5.978   4.367  12.245  0.2360  0.3358  0.0504
17615TIP3    H174336   6.009   4.414  12.168  1.2729 -0.3020  0.0631
17615TIP3    H274337   6.013   4.278  12.234 -2.1038 -0.5661 -0.2181
17616TIP3   OH274338   5.935   6.224   3.009 -0.2349 -0.9327  0.5624
17616TIP3    H174339   5.948   6.153   2.945 -3.0650 -0.9402 -0.1002
17616TIP3    H274340   5.963   6.303   2.963 -1.4223 -1.0532 -0.4040
17617TIP3   OH274341   2.702   2.752  12.917 -0.5726  0.8350  0.2390
17617TIP3    H174342   2.629   2.694  12.937  0.3130 -0.3187  0.1868
17617TIP3    H274343   2.736   2.778  13.002 -0.1743  0.2399  0.2683
17618TIP3   OH274344   2.879   6.153   2.996  0.2912  0.3944  0.5602
17618TIP3    H174345   2.957   6.175   3.047 -0.7108  0.4850  2.0804
17618TIP3    H274346   2.850   6.237   2.959  0.6943  0.4190  0.2989
17619TIP3   OH274347   0.858   1.176   3.988 -0.0168  0.5372  0.0127
17619TIP3    H174348   0.943   1.195   4.027 -0.2086 -1.6875  1.5926
17619TIP3    H274349   0.799   1.243   4.024  0.4526  0.3326  1.1626
17620TIP3   OH274350   1.685   0.084  16.430  0.0840  0.1084 -0.0135
17620TIP3    H174351   1.677   0.001  16.478 -1.7773 -0.1025 -0.6463
17620TIP3    H274352   1.725   0.059  16.347  3.2647  0.4662  1.3464
17621TIP3   OH274353   5.352   2.359  13.365  0.2516 -0.4957  0.0336
17621TIP3    H174354   5.447   2.367  13.372  0.3194  2.9071 -2.9903
17621TIP3    H274355   5.318   2.436  13.410 -1.0206 -0.9802 -0.0743
17622TIP3   OH274356   5.975   5.388  16.086  0.3613  0.0683  1.0294
17622TIP3    H174357   6.014   5.363  16.002  0.2974  1.8263  0.4530
17622TIP3    H274358   6.013   5.474  16.104 -1.2970  0.6561  1.7289
17623TIP3   OH274359   6.706   0.029  11.695  0.0688  0.1246 -0.0848
17623TIP3    H174360   6.675  -0.007  11.611 -0.5219  0.5226 -0.0385
17623TIP3    H274361   6.761   0.103  11.671 -0.9937  0.9295 -0.0978
17624TIP3   OH274362   6.569   1.744  15.212  0.3664  0.0435  0.4336
17624TIP3    H174363   6.591   1.750  15.305  1.4401 -1.3196  0.2816
17624TIP3    H274364   6.544   1.653  15.199  1.9136 -0.2202 -0.9483
17625TIP3   OH274365   6.091   0.092  15.813  0.0874 -0.2311  0.2086
17625TIP3    H174366   6.116   0.165  15.757 -0.2291 -1.7075 -1.9298
17625TIP3    H274367   6.020   0.048  15.765 -0.9990 -0.8570  2.3188
17626TIP3   OH274368   0.125   4.148  16.556 -0.7912  0.0190  0.2648
17626TIP3    H174369   0.078   4.084  16.503 -1.8759  1.2304 -0.2842
17626TIP3    H274370   0.196   4.179  16.500 -1.4923  0.7581 -0.2368
17627TIP3   OH274371   6.700   0.661   5.065 -0.6253 -0.2222  0.1420
17627TIP3    H174372   6.684   0.608   5.143  1.4476 -1.4503 -0.2345
17627TIP3    H274373   6.631   0.728   5.067 -1.1733 -0.8061  2.5033
17628TIP3   OH274374   2.404   6.107  16.110  0.1699  0.0038 -0.2401
17628TIP3    H174375   2.437   6.065  16.031  0.6229 -0.3326  0.1233
17628TIP3    H274376   2.355   6.039  16.155 -0.1220  0.2060 -0.2518
17629TIP3   OH274377   5.327   4.408  13.731  0.3349  0.6728 -0.0218
17629TIP3    H174378   5.413   4.417  13.772  0.8038  2.9964 -1.4036
17629TIP3    H274379   5.318   4.487  13.679 -2.7324  0.5071  0.2167
17630TIP3   OH274380   5.969   1.414  13.751 -0.9575 -0.4698  0.4595
17630TIP3    H174381   5.887   1.378  13.785  0.1697 -2.1617  1.4661
17630TIP3    H274382   6.020   1.337  13.723  0.9063  0.4243  1.2897
17631TIP3   OH274383   5.549   6.063  16.880  0.0287  0.6030 -0.2004
17631TIP3    H174384   5.567   6.122  16.807 -0.5720  0.9479 -0.0664
17631TIP3    H274385   5.463   6.088  16.912  0.2165  0.3530  0.5369
17632TIP3   OH274386   0.927   4.407   0.042 -0.4098 -0.2298  0.3146
17632TIP3    H174387   0.848   4.386  -0.008  0.1609 -0.3279 -0.5498
17632TIP3    H274388   0.999   4.373  -0.010  0.1359 -1.2821  1.7171
17633TIP3   OH274389   6.381   5.677   1.214  0.2507  0.6166 -0.2063
17633TIP3    H174390   6.366   5.599   1.268  3.0763  1.5362  2.0114
17633TIP3    H274391   6.418   5.643   1.132 -0.5249 -0.5183 -0.0950
17634TIP3   OH274392   3.194   5.774  16.185 -0.0061 -0.2785 -0.0045
17634TIP3    H174393   3.196   5.784  16.281  0.6127  0.6908 -0.1094
17634TIP3    H274394   3.208   5.680  16.171  2.8047 -0.0137  0.7769
17635TIP3   OH274395   3.187   2.215   3.724  0.0473  0.3150 -0.1337
17635TIP3    H174396   3.118   2.266   3.768  0.6523  1.2427 -0.2551
17635TIP3    H274397   3.262   2.219   3.784  0.0276 -0.6386 -0.0351
17636TIP3   OH274398   3.466   5.602   6.554 -0.5785  0.7587 -0.2481
17636TIP3    H174399   3.398   5.546   6.516 -2.2647  1.4976  1.6065
17636TIP3    H274400   3.547   5.552   6.543 -1.6461 -0.8219 -1.0909
17637TIP3   OH274401   2.327   5.530   5.351 -0.5170  0.0986  0.0758
17637TIP3    H174402   2.402   5.503   5.404 -1.0045 -1.2735  0.0904
17637TIP3    H274403   2.278   5.588   5.409 -0.7138 -0.8906  0.9336
17638TIP3   OH274404   0.686   4.341   3.675  0.1476  0.1232  0.1617
17638TIP3    H174405   0.620   4.304   3.616 -0.5912 -0.5650  1.4166
17638TIP3    H274406   0.756   4.276   3.676  1.0514  1.0412 -1.4934
17639TIP3   OH274407   4.169   1.506   0.163 -0.1898  0.0681 -0.2730
17639TIP3    H174408   4.105   1.496   0.234 -0.9611  1.0198 -0.8224
17639TIP3    H274409   4.245   1.547   0.206 -0.5081  0.2962  0.0783
17640TIP3   OH274410   3.562   3.174   6.023 -0.0159  0.0781  0.5206
17640TIP3    H174411   3.486   3.124   6.052 -0.0036  0.1025  0.5932
17640TIP3    H274412   3.538   3.265   6.036  0.4558  0.0523  1.5971
17641TIP3   OH274413   2.102   0.064   0.744 -0.0783 -0.1119  0.2041
17641TIP3    H174414   2.071   0.125   0.677 -1.8654 -0.2990  0.8118
17641TIP3    H274415   2.113   0.118   0.822  0.5531 -0.1568  0.1424
17642TIP3   OH274416   0.098   0.831  16.751 -0.0994  0.2678 -0.0656
17642TIP3    H174417   0.035   0.856  16.820  0.0109  0.6509 -0.1087
17642TIP3    H274418   0.152   0.908  16.739  0.5743 -0.1654  0.1770
17643TIP3   OH274419   3.710   3.735   1.639  0.1771  0.5952 -0.3384
17643TIP3    H174420   3.682   3.646   1.661 -1.2205  1.2989  0.9166
17643TIP3    H274421   3.782   3.724   1.578  1.4034 -1.4297  1.4163
17644TIP3   OH274422   3.799   3.980  11.072  0.1238 -0.1030 -0.4055
17644TIP3    H174423   3.711   3.947  11.053  0.3591 -1.2336  0.4590
17644TIP3    H274424   3.854   3.943  11.003  0.1588 -0.4632 -0.1821
17645TIP3   OH274425   0.098   0.518  11.683 -0.1145  0.3570  0.7361
17645TIP3    H174426   0.103   0.588  11.618 -2.4907  1.9608  2.1630
17645TIP3    H274427   0.168   0.539  11.746  0.9593 -0.1215 -0.2960
17646TIP3   OH274428   0.271   1.895  15.721 -0.0632  0.0402  0.5043
17646TIP3    H174429   0.243   1.838  15.650 -2.4065  1.3423  0.3306
17646TIP3    H274430   0.293   1.836  15.793 -1.5585 -1.1007  0.0279
17647TIP3   OH274431   4.929   3.373   3.762  0.2853 -0.2710  0.4077
17647TIP3    H174432   5.013   3.412   3.786  0.2555 -1.1856  2.0428
17647TIP3    H274433   4.953   3.306   3.697  0.5728  0.9068 -0.7191
17648TIP3   OH274434   0.730   4.707   0.952 -0.8864  0.4414  0.3477
17648TIP3    H174435   0.654   4.648   0.952 -1.2255  0.8184 -2.0868
17648TIP3    H274436   0.701   4.784   0.905  1.0994  0.4511 -0.9369
17649TIP3   OH274437   0.591   6.581  12.949 -0.5308  0.6017  0.7465
17649TIP3    H174438   0.576   6.558  13.040  0.4036  0.5574  0.8912
17649TIP3    H274439   0.651   6.514  12.916 -1.0722  0.4612  0.0276
17650TIP3   OH274440   1.880   0.085  14.334 -0.3611  0.5228  0.4009
17650TIP3    H174441   1.821   0.047  14.399 -0.5120  0.5057  0.2559
17650TIP3    H274442   1.968   0.067  14.367 -0.3780 -1.9368 -0.7680
17651TIP3   OH274443   0.592   0.669  14.065  0.4856  0.0216 -0.3690
17651TIP3    H174444   0.563   0.752  14.100 -3.1835 -2.0286  1.7248
17651TIP3    H274445   0.646   0.631  14.135  2.8074  0.8833 -1.6181
17652TIP3   OH274446   4.641   4.858  16.742  0.0610  0.0315 -0.3369
17652TIP3    H174447   4.633   4.767  16.713  0.2175  0.0945 -0.5876
17652TIP3    H274448   4.604   4.909  16.670  2.1234  0.2889 -1.2489
17653TIP3   OH274449   0.899   0.784   1.937  0.3532 -0.7503 -0.2240
17653TIP3    H174450   0.808   0.766   1.959  0.0717  1.2133  0.3726
17653TIP3    H274451   0.950   0.751   2.011 -0.1448  0.8510  0.8601
17654TIP3   OH274452   3.796   2.246   2.742  0.1608  0.1242  0.2613
17654TIP3    H174453   3.799   2.201   2.826 -0.0733  0.7077  0.5844
17654TIP3    H274454   3.824   2.336   2.761  2.1844 -0.2785 -0.6553
17655TIP3   OH274455   6.057   1.598   5.972 -0.0450 -0.1787 -0.6068
17655TIP3    H174456   6.115   1.550   6.031 -0.0556  1.0365  0.4025
17655TIP3    H274457   6.012   1.661   6.028 -1.2310 -0.0922 -1.6463
17656TIP3   OH274458   1.991   2.152  12.759 -0.3285  0.5567  0.1372
17656TIP3    H174459   1.972   2.074  12.706 -1.3294  0.7258  0.2368
17656TIP3    H274460   1.906   2.196  12.768  0.1665  1.4667  0.3888
17657TIP3   OH274461   1.740   0.536  11.598  0.0742 -0.0656  0.2253
17657TIP3    H174462   1.693   0.586  11.665  0.1578  0.9890 -0.5001
17657TIP3    H274463   1.740   0.592  11.521 -0.1435 -1.3430 -0.7140
17658TIP3   OH274464   4.173   0.596   3.024 -0.3810 -0.3251  0.0857
17658TIP3    H174465   4.171   0.541   3.102  1.0995  1.7868  1.6746
17658TIP3    H274466   4.252   0.568   2.977 -0.2783 -0.3783  0.2879
17659TIP3   OH274467   1.203   1.670   3.987  0.1743  0.0347 -0.4063
17659TIP3    H174468   1.244   1.757   3.985  1.2847 -0.4726  0.0149
17659TIP3    H274469   1.114   1.685   3.955  0.0858  1.4677  0.4889
17660TIP3   OH274470   5.482   1.291  11.849 -0.3525  0.2200 -0.3029
17660TIP3    H174471   5.395   1.325  11.867 -0.1864  0.6967 -0.4099
17660TIP3    H274472   5.466   1.205  11.808 -0.7408 -1.0389  2.3808
17661TIP3   OH274473   2.564   6.502   0.368 -0.1844  0.2666  0.7246
17661TIP3    H174474   2.633   6.540   0.422 -0.1289  1.0570  0.1169
17661TIP3    H274475   2.495   6.477   0.430  0.8912 -1.0949  1.3958
17662TIP3   OH274476   0.032   0.200  12.871 -0.5950  0.1685  0.3721
17662TIP3    H174477   0.068   0.134  12.929 -0.7501 -0.1386  0.1210
17662TIP3    H274478  -0.037   0.242  12.922 -0.2038  0.4346  0.6847
17663TIP3   OH274479   2.153   6.209   0.704  0.2760  0.1727 -0.1216
17663TIP3    H174480   2.236   6.186   0.745 -0.5958  0.4876  1.8479
17663TIP3    H274481   2.104   6.127   0.700  0.2405  0.2007 -0.2822
17664TIP3   OH274482   0.566   3.928  13.646  0.0498  0.1042 -0.3062
17664TIP3    H174483   0.622   3.852  13.631  0.7517  0.0718  2.2556
17664TIP3    H274484   0.479   3.892  13.661  0.0141 -0.0643 -0.9116
17665TIP3   OH274485   1.791   0.339   6.256  0.0466 -0.5066 -0.2287
17665TIP3    H174486   1.795   0.355   6.350  0.6775  2.0456 -0.6443
17665TIP3    H274487   1.741   0.258   6.247  0.1373 -0.8675  2.3061
17666TIP3   OH274488   3.964   3.867  12.634  0.4142 -0.3423  0.3124
17666TIP3    H174489   4.006   3.942  12.677 -0.4871  0.7656 -0.7261
17666TIP3    H274490   3.949   3.805  12.705  1.0346  0.5172  1.2162
17667TIP3   OH274491   0.449   1.241   1.726  0.0384 -0.3187  0.5907
17667TIP3    H174492   0.395   1.206   1.655  0.9012  0.0853 -0.2849
17667TIP3    H274493   0.448   1.173   1.793 -1.3070 -0.4358  0.4583
17668TIP3   OH274494   3.291   4.004   6.715 -0.1479  0.2128 -0.5646
17668TIP3    H174495   3.331   3.946   6.781 -0.6213  1.7953  1.1755
17668TIP3    H274496   3.366   4.042   6.669  0.2540  0.2398  0.0986
17669TIP3   OH274497   1.614   6.629  16.569  0.3348  0.4149 -0.1965
17669TIP3    H174498   1.605   6.681  16.649 -1.0071  0.1892 -0.1823
17669TIP3    H274499   1.695   6.580  16.581  0.3959  0.7521  0.8137
17670TIP3   OH274500   3.067   6.111   0.886 -0.2820  0.0971  0.1503
17670TIP3    H174501   3.115   6.137   0.965 -1.1194 -0.2435  0.7838
17670TIP3    H274502   3.000   6.178   0.876 -0.6858 -0.2978  0.1958
17671TIP3   OH274503   0.370   0.076   1.717 -0.2990 -0.0349  0.5126
17671TIP3    H174504   0.439   0.102   1.778  1.0104 -0.6129 -0.7103
17671TIP3    H274505   0.303   0.143   1.728 -0.3964 -0.4914  3.0836
17672TIP3   OH274506   3.791   6.700  16.777 -0.2578 -0.6919 -0.5406
17672TIP3    H174507   3.781   6.685  16.871  0.3436  0.2310 -0.3247
17672TIP3    H274508   3.706   6.675  16.739 -0.0286 -2.4244  0.0725
17673TIP3   OH274509   0.744   0.207   6.800  0.2191  0.0482 -0.1859
17673TIP3    H174510   0.703   0.123   6.785  0.8558 -0.1894 -0.6250
17673TIP3    H274511   0.680   0.271   6.770 -0.3902 -0.2587  0.4318
17674TIP3   OH274512   4.283   4.046   5.847  0.1297 -0.0989 -0.0905
17674TIP3    H174513   4.318   4.087   5.926 -1.7482  1.7404 -0.1593
17674TIP3    H274514   4.232   3.972   5.879 -0.0915  0.2531  0.3861
17675TIP3   OH274515   3.777   1.857   4.688 -0.6604 -0.3055 -0.3524
17675TIP3    H174516   3.788   1.777   4.636  1.0883  0.4082 -1.1167
17675TIP3    H274517   3.829   1.841   4.767 -1.5066 -0.5010  0.1704
17676TIP3   OH274518   1.376   2.600   4.742 -0.0607 -0.0807  0.0340
17676TIP3    H174519   1.336   2.677   4.702  1.4223  0.4540 -0.4227
17676TIP3    H274520   1.459   2.588   4.696  1.7964  0.6802  3.0205
17677TIP3   OH274521   0.786   5.445   1.697  0.4163  0.1545  0.0538
17677TIP3    H174522   0.729   5.504   1.648  1.5324  0.1760 -1.2484
17677TIP3    H274523   0.732   5.367   1.713 -0.0054  0.2081 -1.0876
17678TIP3   OH274524   6.642   4.411  15.395 -0.3051 -0.2326  0.0089
17678TIP3    H174525   6.673   4.427  15.306 -0.8857  1.8340  0.1536
17678TIP3    H274526   6.715   4.441  15.451 -0.9337  0.8457  0.2649
17679TIP3   OH274527   0.557   6.730  16.837 -0.1935  0.4688  0.1576
17679TIP3    H174528   0.546   6.711  16.931 -0.5494  1.6135  0.3487
17679TIP3    H274529   0.469   6.721  16.801  0.2628 -1.8889 -0.4356
17680TIP3   OH274530   4.859   1.701  16.137  0.2067 -0.3113  0.3404
17680TIP3    H174531   4.779   1.662  16.101  0.0470 -0.7010  1.0967
17680TIP3    H274532   4.829   1.748  16.215  0.7745 -0.7772  0.8434
17681TIP3   OH274533   1.708   5.816  15.040  0.0558  0.2378  0.5375
17681TIP3    H174534   1.733   5.729  15.011 -1.5845  0.1129 -0.5611
17681TIP3    H274535   1.717   5.871  14.962  1.2103  1.0785  1.2561
17682TIP3   OH274536   0.223   3.196  12.290  0.0576 -0.2413  0.1856
17682TIP3    H174537   0.279   3.145  12.232  1.1123  0.5975  0.4497
17682TIP3    H274538   0.135   3.159  12.278  0.6711 -1.5754 -0.2114
17683TIP3   OH274539   3.612   6.794  14.054  0.1771 -0.3220  0.0063
17683TIP3    H174540   3.616   6.866  14.116  1.4718  0.2445 -0.7126
17683TIP3    H274541   3.543   6.819  13.992 -0.9131 -0.7544  1.0156
17684TIP3   OH274542   5.333   5.984  10.750 -0.0194 -0.2749  0.0260
17684TIP3    H174543   5.258   5.932  10.778  0.0522 -0.6070 -0.4031
17684TIP3    H274544   5.383   5.927  10.692  0.7030 -0.1427  0.4981
17685TIP3   OH274545   6.220   1.242  10.535 -0.2013  0.4892  0.4296
17685TIP3    H174546   6.126   1.225  10.531  0.2067 -1.5848 -0.9763
17685TIP3    H274547   6.232   1.318  10.478 -1.0253  0.7841  0.6407
17686TIP3   OH274548   0.874   1.700   0.579  0.2853 -0.1809 -0.6260
17686TIP3    H174549   0.936   1.669   0.646 -0.4291 -1.7307 -0.6681
17686TIP3    H274550   0.923   1.696   0.497  1.0981  1.5284 -0.2528
17687TIP3   OH274551   2.750   6.062  13.698  0.2034 -0.1119  0.1210
17687TIP3    H174552   2.710   6.077  13.784 -0.3822 -2.7818  0.3639
17687TIP3    H274553   2.711   5.979  13.668  1.5246  0.0222 -2.0468
17688TIP3   OH274554   3.674   3.459  14.144 -0.4544  0.0562  0.2314
17688TIP3    H174555   3.582   3.439  14.162 -0.1294  0.1972  2.2172
17688TIP3    H274556   3.720   3.376  14.158  0.0836  0.6506  2.3034
17689TIP3   OH274557   0.176   5.229   0.087 -0.4462 -0.2759  0.1073
17689TIP3    H174558   0.168   5.323   0.068  0.4253 -0.3498 -0.6355
17689TIP3    H274559   0.258   5.203   0.045 -0.1405 -1.1437  1.2280
17690TIP3   OH274560   4.776   3.921   4.302 -0.2846 -0.3039 -0.5485
17690TIP3    H174561   4.771   3.973   4.382  0.3821  0.4575 -0.9904
17690TIP3    H274562   4.714   3.849   4.316 -1.5465  0.8457 -0.1126
17691TIP3   OH274563   4.852   4.411  13.809  0.2326 -0.0589  0.2569
17691TIP3    H174564   4.919   4.478  13.820  0.8060 -0.6715  0.4693
17691TIP3    H274565   4.900   4.329  13.799 -0.4283 -0.2696 -1.3270
17692TIP3   OH274566   6.079   3.791   0.698  0.1997  0.0940  0.3707
17692TIP3    H174567   6.123   3.814   0.616 -1.1908 -0.1233 -0.4576
17692TIP3    H274568   6.055   3.699   0.687  1.7044 -0.4892  1.8152
17693TIP3   OH274569   5.259   5.533  12.028 -0.0411  0.2426 -0.4116
17693TIP3    H174570   5.219   5.501  11.947  1.4404  0.7033 -1.3364
17693TIP3    H274571   5.185   5.562  12.081 -1.0998 -1.0073 -1.1879
17694TIP3   OH274572   4.363   3.305  12.497 -0.2946 -0.0730  0.0059
17694TIP3    H174573   4.337   3.254  12.573  0.0832 -0.0442  0.1525
17694TIP3    H274574   4.330   3.255  12.422 -1.0919  0.1475  0.2072
17695TIP3   OH274575   3.188   4.187   3.881 -0.3499  0.0349  0.1457
17695TIP3    H174576   3.150   4.262   3.837  1.4327  2.4358  2.5197
17695TIP3    H274577   3.263   4.162   3.827 -1.2291 -0.3782 -0.9013
17696TIP3   OH274578   2.888   6.125  11.799  0.7705 -0.0850  0.4130
17696TIP3    H174579   2.869   6.060  11.867  0.3286 -1.2184 -0.7625
17696TIP3    H274580   2.922   6.073  11.725 -1.4013  0.7748 -1.2390
17697TIP3   OH274581   4.376   0.339  11.592  0.1986  0.4414 -0.5754
17697TIP3    H174582   4.418   0.364  11.510  1.9357  1.4180  0.5883
17697TIP3    H274583   4.314   0.409  11.610  0.8824  0.9832 -0.3085
17698TIP3   OH274584   5.211   0.546  14.719  0.4573  0.4893 -0.1514
17698TIP3    H174585   5.253   0.560  14.803  0.3593  1.8249 -0.3121
17698TIP3    H274586   5.118   0.539  14.739  0.6494 -1.6926  0.1155
17699TIP3   OH274587   6.511   4.209  15.521  0.1234 -0.0863 -0.3220
17699TIP3    H174588   6.436   4.183  15.467  1.1741 -0.0334 -1.8305
17699TIP3    H274589   6.552   4.280  15.472  0.2548  0.9632  1.2704
17700TIP3   OH274590   0.556   3.569   1.290 -0.4411  0.4840  0.0596
17700TIP3    H174591   0.507   3.581   1.209 -1.7898  0.5997  0.8744
17700TIP3    H274592   0.565   3.474   1.299  2.1112  0.5048 -1.6018
17701TIP3   OH274593   4.654   6.607   6.403  0.2947 -0.3627  0.2801
17701TIP3    H174594   4.587   6.540   6.401 -0.4958  0.3988  0.8167
17701TIP3    H274595   4.643   6.650   6.488  0.2819  0.9308 -0.3560
17702TIP3   OH274596   6.770   3.121  14.276  0.0873 -0.0137 -0.9236
17702TIP3    H174597   6.769   3.216  14.262 -2.0933 -0.0712 -1.2395
17702TIP3    H274598   6.862   3.102  14.297  0.5680  2.1491 -0.8711
17703TIP3   OH274599   6.345   1.417   3.928  0.4624 -0.2197  0.2908
17703TIP3    H174600   6.435   1.388   3.916  1.5236  2.7892  0.6145
17703TIP3    H274601   6.345   1.459   4.013 -0.3184  3.0965 -1.2919
17704TIP3   OH274602   0.014   5.218   0.993 -0.2734  0.4923  0.0077
17704TIP3    H174603   0.053   5.135   0.967  2.2471  1.2859  1.1520
17704TIP3    H274604  -0.039   5.197   1.070 -0.2621 -0.1834 -0.1661
17705TIP3   OH274605   1.786   3.141   4.329 -0.0837 -0.0608 -0.1688
17705TIP3    H174606   1.813   3.226   4.364  1.3028 -1.3488  2.0413
17705TIP3    H274607   1.699   3.126   4.368 -0.2712  0.2820 -0.4533
17706TIP3   OH274608   6.197   2.896   5.651  0.7014 -0.4749  0.5660
17706TIP3    H174609   6.112   2.901   5.694  0.1765 -0.7870 -0.4150
17706TIP3    H274610   6.254   2.855   5.715 -0.5762 -2.8194  0.2614
17707TIP3   OH274611   3.941   0.252   4.715  0.2029 -0.0773  0.9023
17707TIP3    H174612   4.009   0.301   4.669 -0.6687  1.1496  0.9013
17707TIP3    H274613   3.905   0.314   4.778 -2.4535  0.0145 -0.6234
17708TIP3   OH274614   0.623   0.344  14.598  0.8140 -0.0829  0.2294
17708TIP3    H174615   0.605   0.437  14.582 -1.0685 -0.5894 -0.7413
17708TIP3    H274616   0.615   0.303  14.512  2.3266 -1.0487  0.5319
17709TIP3   OH274617   2.918   5.736   6.845 -0.0729  0.0625 -0.1597
17709TIP3    H174618   2.826   5.717   6.862 -0.3082 -0.9140 -2.4000
17709TIP3    H274619   2.917   5.811   6.786  0.5714 -0.1272 -0.4152
17710TIP3   OH274620   6.071   1.125   2.517  0.2670  0.1294 -0.2232
17710TIP3    H174621   5.996   1.073   2.546  0.6524 -0.8786 -1.0029
17710TIP3    H274622   6.125   1.135   2.595 -1.0925  1.5828  0.5414
17711TIP3   OH274623   1.503   0.615  15.060  0.6978  0.7825 -0.5765
17711TIP3    H174624   1.598   0.613  15.071  0.7053 -1.9984 -0.8845
17711TIP3    H274625   1.469   0.626  15.149  1.2667  0.7720 -0.3538
17712TIP3   OH274626   2.222   1.194  13.757 -0.0172 -0.0760  0.1866
17712TIP3    H174627   2.170   1.234  13.826  1.1494  0.8993  0.5168
17712TIP3    H274628   2.235   1.264  13.693  0.4540 -0.4637 -0.1437
17713TIP3   OH274629   5.831   0.185   1.315  0.7245  0.3190  0.2840
17713TIP3    H174630   5.845   0.093   1.339  0.3196  0.1080 -0.2905
17713TIP3    H274631   5.919   0.217   1.296  0.9392  0.2165  1.0560
17714TIP3   OH274632   1.031   4.877   0.687  0.5843  0.1655  0.0701
17714TIP3    H174633   1.001   4.805   0.742 -1.3146  0.4761 -0.5144
17714TIP3    H274634   1.064   4.835   0.608 -0.6147 -0.0788 -0.3145
17715TIP3   OH274635   0.865   6.078  12.441  0.0741  0.1142 -0.2864
17715TIP3    H174636   0.865   6.121  12.356 -3.5764 -0.8410 -0.8430
17715TIP3    H274637   0.806   6.131  12.495  2.4834  0.8045  1.7449
17716TIP3   OH274638   0.751   0.521   2.273 -0.6341 -0.9305  0.0212
17716TIP3    H174639   0.661   0.543   2.295 -0.6504 -0.6438 -0.3208
17716TIP3    H274640   0.745   0.472   2.192 -0.3792  0.3648 -0.7984
17717TIP3   OH274641   3.000   1.773   5.559  0.6846  0.3522  0.4332
17717TIP3    H174642   3.084   1.813   5.535  0.0610  1.5489  0.1910
17717TIP3    H274643   2.937   1.844   5.549 -0.3899 -0.6048  0.4162
17718TIP3   OH274644   1.774   0.967   5.165  0.6616 -0.1160  0.2949
17718TIP3    H174645   1.838   0.995   5.231  0.1812  0.5118  0.4999
17718TIP3    H274646   1.760   1.044   5.111  0.0922 -0.2529  0.2408
17719TIP3   OH274647   5.479   0.576  14.089 -0.4436 -0.9210 -0.1064
17719TIP3    H174648   5.392   0.567  14.050 -0.8123 -2.2450  0.9770
17719TIP3    H274649   5.466   0.559  14.182  0.9464 -0.9581  0.0982
17720TIP3   OH274650   6.811   1.621  12.761  0.3544 -0.2717 -0.4177
17720TIP3    H174651   6.847   1.705  12.790 -0.5029  0.0415 -0.2120
17720TIP3    H274652   6.879   1.582  12.707  0.8558  0.4558 -0.3173
17721TIP3   OH274653   0.146   4.282  14.050  0.6230 -0.2407  0.4109
17721TIP3    H174654   0.083   4.352  14.031  0.8040 -0.0121  0.6528
17721TIP3    H274655   0.096   4.217  14.099  1.1520  1.0413  2.7214
17722TIP3   OH274656   1.957   2.195   0.750  0.1896 -0.1883  0.0876
17722TIP3    H174657   1.980   2.124   0.811 -0.6829 -0.4325  0.1390
17722TIP3    H274658   1.873   2.169   0.714 -1.3601  2.0140  1.9805
17723TIP3   OH274659   0.826   3.833  11.664 -0.2815  0.3048 -0.4185
17723TIP3    H174660   0.880   3.779  11.605  1.6876 -0.3297  1.9081
17723TIP3    H274661   0.753   3.862  11.609  1.0932 -0.8953 -2.9730
17724TIP3   OH274662   5.820   6.186  13.546  0.8320 -0.1289 -0.1874
17724TIP3    H174663   5.752   6.230  13.495  0.5993  1.1664  1.2118
17724TIP3    H274664   5.797   6.094  13.543 -0.2028  0.1494 -0.8921
17725TIP3   OH274665   2.482   1.567  16.050 -0.4545  0.0189 -0.4110
17725TIP3    H174666   2.514   1.501  15.989  1.1459  2.9571 -2.9187
17725TIP3    H274667   2.551   1.576  16.115  0.9871  1.6901 -2.1085
17726TIP3   OH274668   4.276   4.597   4.811  0.2708 -0.4051 -0.2348
17726TIP3    H174669   4.328   4.639   4.742 -1.9649 -1.6335 -2.7547
17726TIP3    H274670   4.202   4.657   4.824 -1.0857 -1.7970 -1.3511
17727TIP3   OH274671   4.568   5.313   6.250 -0.0378 -0.2312 -0.1906
17727TIP3    H174672   4.641   5.336   6.308  0.3458  0.6081 -0.9978
17727TIP3    H274673   4.528   5.396   6.228  0.0719 -0.5028 -1.4603
17728TIP3   OH274674   3.558   2.897  15.193  0.5196 -0.6332 -0.6024
17728TIP3    H174675   3.616   2.960  15.151  0.3876 -0.8447 -1.1170
17728TIP3    H274676   3.470   2.929  15.172  0.4410 -1.6039 -1.8455
17729TIP3   OH274677   2.191   5.803   3.509  0.0595  0.2687 -0.4643
17729TIP3    H174678   2.116   5.863   3.508  0.8052  1.2059 -1.3208
17729TIP3    H274679   2.171   5.739   3.441 -1.0374 -0.8637  0.8802
17730TIP3   OH274680   6.136   5.235   0.781 -0.1607  0.1724  0.4649
17730TIP3    H174681   6.217   5.256   0.735  0.1945 -0.7891  0.6512
17730TIP3    H274682   6.078   5.200   0.713 -0.7308  1.6375  0.1678
17731TIP3   OH274683   5.717   2.659   0.606  0.4104 -0.2035  0.5076
17731TIP3    H174684   5.727   2.565   0.593  0.1258 -0.2853  0.8659
17731TIP3    H274685   5.778   2.699   0.545 -1.6261 -0.5396 -1.8354
17732TIP3   OH274686   2.802   3.802   5.864 -0.6071  0.7696  0.6576
17732TIP3    H174687   2.867   3.736   5.890 -1.2617  1.1111  3.2757
17732TIP3    H274688   2.853   3.883   5.854 -0.4323  0.7664  1.4906
17733TIP3   OH274689   4.551   1.214  13.337  0.5283 -0.0673  0.1271
17733TIP3    H174690   4.524   1.136  13.385 -0.2611  0.4776  0.5770
17733TIP3    H274691   4.628   1.246  13.385  0.5412 -0.2834  0.2486
17734TIP3   OH274692   2.317   2.049   5.844  0.3047  0.0115 -0.3044
17734TIP3    H174693   2.359   1.993   5.778 -0.9920  0.4262 -1.5000
17734TIP3    H274694   2.322   1.998   5.925  1.3829 -0.7521 -0.8349
17735TIP3   OH274695   4.583   2.538  11.665 -0.0030  0.3366 -0.0701
17735TIP3    H174696   4.509   2.583  11.624  0.5420  1.8731  0.5974
17735TIP3    H274697   4.641   2.609  11.694  0.4971 -0.7757  1.7143
17736TIP3   OH274698   0.181   4.661   5.848  0.0446  0.5011  0.2042
17736TIP3    H174699   0.273   4.673   5.823  0.1173 -0.1830  0.1395
17736TIP3    H274700   0.161   4.737   5.902  1.2835 -0.4436  2.0401
17737TIP3   OH274701   6.084   6.779   1.501  0.0610  0.9411  0.1065
17737TIP3    H174702   6.120   6.858   1.540 -1.6092  0.7655  2.1201
17737TIP3    H274703   6.050   6.729   1.576 -2.6244  0.2746 -1.4851
17738TIP3   OH274704   5.362   6.750   4.591  0.4828  0.2773 -0.4595
17738TIP3    H174705   5.376   6.673   4.537  0.0996 -0.1989  0.1075
17738TIP3    H274706   5.323   6.716   4.672 -0.7791  1.1865 -0.6602
17739TIP3   OH274707   2.706   0.346   4.805 -0.2162 -1.0639 -0.4872
17739TIP3    H174708   2.772   0.363   4.737 -0.2769  1.4690  0.0360
17739TIP3    H274709   2.741   0.389   4.883 -2.2380 -0.1282 -0.0714
17740TIP3   OH274710   6.746   1.743   4.893  0.4053  0.1376  0.7527
17740TIP3    H174711   6.698   1.793   4.827 -1.0223 -0.9198  0.9436
17740TIP3    H274712   6.677   1.697   4.941  1.6767 -2.3212  0.2998
17741TIP3   OH274713   3.415   3.356  11.695  0.3822 -0.5650  0.3670
17741TIP3    H174714   3.324   3.343  11.721  0.8024 -0.2550  2.0359
17741TIP3    H274715   3.419   3.447  11.666  0.3095 -0.3673  0.9672
17742TIP3   OH274716   2.102   0.732   0.910 -0.0528 -0.4840  0.3104
17742TIP3    H174717   2.108   0.821   0.876 -1.6513  0.4574  2.3407
17742TIP3    H274718   2.023   0.696   0.870 -0.4372 -0.3247  0.9186
17743TIP3   OH274719   4.726   2.627   0.437  0.2873 -0.0297 -0.1864
17743TIP3    H174720   4.754   2.618   0.528  0.7088  0.2701 -0.2893
17743TIP3    H274721   4.730   2.537   0.402 -1.0148 -0.3387  0.4211
17744TIP3   OH274722   5.138   2.587   0.382 -0.0174 -0.6133 -0.7251
17744TIP3    H174723   5.070   2.520   0.382 -0.0852 -0.5774  1.3931
17744TIP3    H274724   5.218   2.541   0.407  0.3147 -0.2308 -1.0590
17745TIP3   OH274725   1.064   6.435  14.062  0.3686 -0.0456  0.2567
17745TIP3    H174726   1.134   6.373  14.081 -0.8566 -1.7128 -0.4405
17745TIP3    H274727   1.072   6.452  13.968 -0.9436 -1.3095 -0.1136
17746TIP3   OH274728   4.347   6.767   0.871 -0.0631  0.6704  0.0875
17746TIP3    H174729   4.272   6.721   0.909 -0.8731  0.9934 -1.0874
17746TIP3    H274730   4.417   6.701   0.869 -0.5725  0.1110  0.3864
17747TIP3   OH274731   0.460   5.347   4.901  0.4152  0.3384 -0.7662
17747TIP3    H174732   0.421   5.299   4.974 -2.3968  2.8632 -0.4919
17747TIP3    H274733   0.535   5.393   4.940 -0.8079  1.3243  0.4924
17748TIP3   OH274734   3.834   6.637   1.732 -0.3015 -0.0165 -0.1179
17748TIP3    H174735   3.742   6.612   1.729 -0.3167  0.1583 -2.6397
17748TIP3    H274736   3.834   6.727   1.764 -1.1491  0.5143 -1.5596
17749TIP3   OH274737   1.841   3.355  10.883 -0.5321  0.2281  0.6814
17749TIP3    H174738   1.819   3.357  10.976 -0.5165 -1.9759  0.7628
17749TIP3    H274739   1.922   3.303  10.879 -0.1813  0.8519 -0.4901
17750TIP3   OH274740   1.825   5.368   0.940  0.2872 -0.0731 -0.1234
17750TIP3    H174741   1.904   5.336   0.895  0.3431  0.1371 -0.1744
17750TIP3    H274742   1.813   5.306   1.012  0.2946 -0.3124 -0.3266
17751TIP3   OH274743   1.632   6.774   3.297  0.3958 -0.1060 -0.2234
17751TIP3    H174744   1.598   6.839   3.358 -0.3814  0.0666 -0.8178
17751TIP3    H274745   1.615   6.811   3.210  0.2275 -0.9477 -0.5637
17752TIP3   OH274746   0.284   5.068   0.338  0.2096  0.5645  0.3095
17752TIP3    H174747   0.207   5.056   0.283  0.1007 -0.7928  0.7425
17752TIP3    H274748   0.259   5.136   0.400 -1.3511 -1.2398  1.7109
17753TIP3   OH274749   2.940   4.454   2.538  0.1839  0.0259  0.2510
17753TIP3    H174750   2.966   4.450   2.630 -0.9672 -3.7041  0.5193
17753TIP3    H274751   3.013   4.414   2.491 -0.0747  0.1634 -0.2676
17754TIP3   OH274752   6.178   3.686  16.039  0.2680  0.3953 -0.6223
17754TIP3    H174753   6.242   3.756  16.055 -0.5361  0.6790  1.5131
17754TIP3    H274754   6.098   3.717  16.083 -0.7138 -0.9266 -1.4510
17755TIP3   OH274755   2.429   0.294   4.755  0.6610  0.0083 -0.0099
17755TIP3    H174756   2.517   0.299   4.793  0.6313  0.3462  0.0156
17755TIP3    H274757   2.381   0.235   4.813  0.0976  1.9315  1.5200
17756TIP3   OH274758   3.920   1.037   4.699 -0.0911 -0.2713 -0.2398
17756TIP3    H174759   3.956   1.060   4.613 -0.7662  0.0267 -0.4404
17756TIP3    H274760   3.826   1.027   4.684 -0.3667  0.8968  0.7025
17757TIP3   OH274761   0.356   1.069  16.971 -0.0752 -0.1637 -0.0004
17757TIP3    H174762   0.357   1.049  16.877  0.3547  2.8574 -0.7031
17757TIP3    H274763   0.286   1.134  16.981  0.4394  0.1679  1.6353
17758TIP3   OH274764   6.192   0.279  15.607  0.4704 -0.2137 -0.3950
17758TIP3    H174765   6.193   0.373  15.592  1.1204 -0.1946 -0.2462
17758TIP3    H274766   6.127   0.246  15.545  1.0097  0.2086 -1.2073
17759TIP3   OH274767   6.025   6.119  15.324  0.3202  0.2039 -0.2343
17759TIP3    H174768   5.975   6.199  15.306  1.3531  0.4648 -2.0278
17759TIP3    H274769   5.971   6.049  15.288 -0.2531  0.1489  0.7106
17760TIP3   OH274770   6.512   4.562   5.968  0.4685 -0.1754  0.5526
17760TIP3    H174771   6.594   4.521   5.997  1.5225  0.8348 -0.8886
17760TIP3    H274772   6.530   4.656   5.974 -0.3780  0.0479 -0.3468
17761TIP3   OH274773   5.033   2.984   1.856  0.2088 -0.1955  0.2124
17761TIP3    H174774   5.026   3.013   1.765  0.3336 -1.1844 -0.1170
17761TIP3    H274775   5.071   3.059   1.902  2.5363 -0.5704 -1.0299
17762TIP3   OH274776   4.134   4.921   6.544  0.2294  0.1631  0.1020
17762TIP3    H174777   4.118   5.014   6.565 -2.3906 -0.3398  0.4690
17762TIP3    H274778   4.062   4.896   6.487  0.3990 -1.9266  0.7624
17763TIP3   OH274779   4.642   0.969   3.435 -0.2696  0.4914 -0.3281
17763TIP3    H174780   4.579   1.030   3.396  0.7482  0.2765 -2.3892
17763TIP3    H274781   4.724   0.986   3.389  0.1506 -2.0597 -0.5968
17764TIP3   OH274782   0.787   2.429   1.951  0.2823 -0.1778 -0.2083
17764TIP3    H174783   0.851   2.358   1.957 -1.0979 -1.3424  1.1568
17764TIP3    H274784   0.782   2.464   2.040 -0.8304  0.0200 -0.3380
17765TIP3   OH274785   1.017   0.607  16.247  0.3105  0.5994  0.0687
17765TIP3    H174786   1.002   0.641  16.159 -0.7230 -2.9774 -1.2068
17765TIP3    H274787   1.104   0.568  16.244 -0.6402 -1.5752 -0.0861
17766TIP3   OH274788   6.630   0.284  16.832  0.0305 -0.5720  0.3236
17766TIP3    H174789   6.686   0.273  16.908 -0.8599  0.0286  1.0823
17766TIP3    H274790   6.573   0.207  16.832 -0.9659  0.1567  1.1285
17767TIP3   OH274791   4.931   4.859   4.476 -0.3748 -0.1229  0.4400
17767TIP3    H174792   4.886   4.818   4.402  1.8028  0.0911 -1.0466
17767TIP3    H274793   4.948   4.787   4.537 -2.4206 -0.2494  0.9076
17768TIP3   OH274794   1.422   1.541   3.324  0.9342  0.3986 -0.4474
17768TIP3    H174795   1.499   1.492   3.295 -0.0246 -1.2331 -0.2594
17768TIP3    H274796   1.399   1.595   3.249  1.3060 -0.2978 -1.0712
17769TIP3   OH274797   3.988   1.083   2.766 -0.3559 -0.0006  0.3186
17769TIP3    H174798   3.918   1.076   2.830 -1.2119  0.9935 -0.4784
17769TIP3    H274799   4.003   0.993   2.737  0.0507 -0.4588  1.9020
17770TIP3   OH274800   3.525   3.682   5.243 -0.6714  0.0389 -0.1788
17770TIP3    H174801   3.588   3.624   5.285 -0.3809  0.1301 -0.4893
17770TIP3    H274802   3.553   3.686   5.151 -0.8118  0.5052 -0.2028
17771TIP3   OH274803   6.196   5.969  10.812  0.7400 -0.0175  0.3056
17771TIP3    H174804   6.278   5.946  10.767  1.0515 -0.5453  1.1332
17771TIP3    H274805   6.165   5.887  10.850 -1.1357 -0.1734 -1.5083
17772TIP3   OH274806   3.591   3.084   3.436 -0.3808  0.0538 -0.1923
17772TIP3    H174807   3.586   3.023   3.510  1.3946  0.8364  0.6037
17772TIP3    H274808   3.500   3.098   3.410 -1.0966  0.4273  2.3902
17773TIP3   OH274809   1.218   4.161   4.741 -0.0822  0.1145 -0.1699
17773TIP3    H174810   1.188   4.251   4.757 -0.2240 -0.0247  0.3817
17773TIP3    H274811   1.193   4.114   4.821  0.1681 -0.3704 -0.3775
17774TIP3   OH274812   0.015   5.877   0.196  0.1834 -0.5570 -0.0441
17774TIP3    H174813   0.087   5.855   0.137  1.1619  0.9567  0.5381
17774TIP3    H274814  -0.064   5.864   0.144  0.9945  0.0361 -1.4529
17775TIP3   OH274815   5.565   2.993  12.279 -0.2802  0.0374  0.1044
17775TIP3    H174816   5.641   3.050  12.272 -1.1385  1.0501 -1.2487
17775TIP3    H274817   5.595   2.908  12.246  0.2217  0.4819 -0.6016
17776TIP3   OH274818   5.493   2.774   0.454  0.1046 -0.0525 -0.6959
17776TIP3    H174819   5.549   2.719   0.508 -3.0464 -1.1539  1.5640
17776TIP3    H274820   5.509   2.863   0.485  0.6818 -0.3416 -0.1559
17777TIP3   OH274821   2.889   3.346   3.929 -0.7211  0.2439 -0.5271
17777TIP3    H174822   2.811   3.313   3.886 -1.5831  0.6434  0.7140
17777TIP3    H274823   2.935   3.267   3.960  0.5136 -0.1250 -3.1473
17778TIP3   OH274824   6.146   6.379  14.544 -0.2501  0.0889  0.2715
17778TIP3    H174825   6.056   6.408  14.535 -0.0044  1.0263  0.8155
17778TIP3    H274826   6.197   6.444  14.495  0.3055  0.6312  1.5540
17779TIP3   OH274827   2.554   0.908   4.767  0.3303  0.3837 -0.0946
17779TIP3    H174828   2.647   0.910   4.746  0.5520 -0.6720  0.7679
17779TIP3    H274829   2.533   0.815   4.776 -0.6678  0.6438  0.3209
17780TIP3   OH274830   5.034   6.314   3.119 -0.1342  0.3575 -0.2927
17780TIP3    H174831   5.108   6.329   3.179 -0.0838  0.8762 -0.4837
17780TIP3    H274832   5.053   6.228   3.080  1.5371  1.4699 -2.0227
17781TIP3   OH274833   3.479   5.369   5.782  0.2124 -0.5918 -0.8830
17781TIP3    H174834   3.571   5.392   5.770  0.6186 -2.2376 -1.0766
17781TIP3    H274835   3.459   5.396   5.872  0.9171 -0.3614 -0.7910
17782TIP3   OH274836   6.210   3.060  12.847 -0.4514  0.4044 -0.3928
17782TIP3    H174837   6.122   3.023  12.844 -0.2345 -0.1838  0.5093
17782TIP3    H274838   6.262   2.997  12.898  0.3499  1.0304 -0.4161
17783TIP3   OH274839   2.008   3.402   5.242 -0.1328 -0.4340 -0.5068
17783TIP3    H174840   1.940   3.360   5.295 -0.2500 -0.7120 -0.8744
17783TIP3    H274841   2.013   3.348   5.164  0.5907 -0.4690 -0.4316
17784TIP3   OH274842   5.348   1.154   4.829  0.2076  0.4551 -0.0766
17784TIP3    H174843   5.409   1.227   4.820  0.7145 -0.1064 -1.3056
17784TIP3    H274844   5.341   1.140   4.924  1.7995  0.6860  0.0899
17785TIP3   OH274845   2.790   1.672  15.963 -0.5799  0.2769 -0.3765
17785TIP3    H174846   2.776   1.714  15.878  3.1494  1.1562 -0.6688
17785TIP3    H274847   2.798   1.579  15.943  1.0547  0.5621 -1.1508
17786TIP3   OH274848   5.473   6.514  12.379 -0.4339  0.7083  0.4223
17786TIP3    H174849   5.478   6.607  12.403 -2.1068  0.9615 -0.1370
17786TIP3    H274850   5.472   6.514  12.283  0.0210  0.0791  0.4139
17787TIP3   OH274851   0.489   5.152   3.057 -0.0283 -0.8657  0.4180
17787TIP3    H174852   0.451   5.235   3.086 -0.6981 -0.5992 -1.1856
17787TIP3    H274853   0.414   5.099   3.029  0.6634 -0.6539 -1.9505
17788TIP3   OH274854   3.368   1.471   7.147 -0.3397  0.3604 -0.0606
17788TIP3    H174855   3.341   1.552   7.103  0.0222  1.1124  1.0746
17788TIP3    H274856   3.329   1.477   7.235  2.1843  0.7479  1.0697
17789TIP3   OH274857   2.162   6.730  16.512 -0.1430 -0.6707 -0.2721
17789TIP3    H174858   2.087   6.702  16.564 -0.1772 -1.0852 -0.5393
17789TIP3    H274859   2.125   6.785  16.443 -0.2317 -1.1165 -0.5796
17790TIP3   OH274860   2.566   0.452  16.737 -0.1152 -0.3164  0.1992
17790TIP3    H174861   2.661   0.465  16.738 -0.2062  0.3536  0.8334
17790TIP3    H274862   2.552   0.372  16.788  0.0852 -0.2120  0.4162
17791TIP3   OH274863   0.283   4.166  16.347 -1.1367 -0.2925  0.5817
17791TIP3    H174864   0.355   4.135  16.293  0.0759  0.7165  1.5577
17791TIP3    H274865   0.236   4.229  16.292 -0.8513 -0.4288  0.1850
17792TIP3   OH274866   1.742   3.891   3.670 -0.5328  0.3760  0.4185
17792TIP3    H174867   1.796   3.815   3.652  1.0116  1.8029 -1.1990
17792TIP3    H274868   1.716   3.881   3.762  0.4463 -1.5713  0.5081
17793TIP3   OH274869   4.154   1.674   1.847 -0.4794  0.6335  0.2251
17793TIP3    H174870   4.112   1.758   1.867 -1.1879  0.6524 -1.2703
17793TIP3    H274871   4.084   1.619   1.812  0.0268 -0.5201  0.9885
17794TIP3   OH274872   1.021   5.977   1.785 -1.0659  0.0533  0.0158
17794TIP3    H174873   0.930   5.955   1.808 -0.8444 -0.2500  0.6095
17794TIP3    H274874   1.013   6.031   1.707 -1.7144 -0.8378 -0.5527
17795TIP3   OH274875   0.129   3.585   0.469 -0.3368 -0.4502  0.0373
17795TIP3    H174876   0.192   3.636   0.418 -1.6575  1.7671  0.5590
17795TIP3    H274877   0.163   3.586   0.558 -0.4253 -0.3700  0.0705
17796TIP3   OH274878   0.306   3.830  13.696  0.5501 -0.0091  0.0821
17796TIP3    H174879   0.239   3.875  13.747  0.0386 -0.9071  0.2005
17796TIP3    H274880   0.301   3.739  13.724  0.1593 -0.5454 -1.6698
17797TIP3   OH274881   1.006   0.220  14.580  0.0046 -1.1420 -0.1379
17797TIP3    H174882   0.992   0.301  14.532  0.5185  0.3538  2.1511
17797TIP3    H274883   1.054   0.164  14.520 -1.2864 -0.1743 -2.1400
17798TIP3   OH274884   3.311   1.048  16.760  0.3035  0.3004  0.1797
17798TIP3    H174885   3.295   0.968  16.810  0.9942  0.8101  1.2442
17798TIP3    H274886   3.266   1.116  16.810 -0.3514  0.5593 -0.7705
17799TIP3   OH274887   1.888   5.207  12.048 -0.1317  0.4275  0.2951
17799TIP3    H174888   1.840   5.142  11.997 -1.1840  0.0837  1.6979
17799TIP3    H274889   1.819   5.258  12.091  0.7561 -0.0893  2.3617
17800TIP3   OH274890   4.540   2.015   1.342  0.7455 -0.1866  0.4305
17800TIP3    H174891   4.532   2.088   1.281  0.3124 -0.8930 -0.3763
17800TIP3    H274892   4.470   1.955   1.316  2.6149 -2.0194 -0.4681
17801TIP3   OH274893   5.534   5.265   1.129 -0.1244  0.1112 -0.3787
17801TIP3    H174894   5.552   5.211   1.052  3.0937  0.7367 -0.1431
17801TIP3    H274895   5.524   5.202   1.201  2.5569 -0.2557 -0.2933
17802TIP3   OH274896   5.093   1.185   5.149 -0.5239  0.0875 -0.4097
17802TIP3    H174897   5.167   1.240   5.124 -0.7532  0.4800 -0.2228
17802TIP3    H274898   5.122   1.141   5.229 -0.4736  0.1978 -0.3675
17803TIP3   OH274899   6.507   3.253   2.731  0.5906  0.2482  0.3873
17803TIP3    H174900   6.583   3.287   2.779  2.2594  1.5419 -2.9374
17803TIP3    H274901   6.464   3.332   2.697 -0.8510 -0.6089  0.1997
17804TIP3   OH274902   0.023   0.578   5.780  0.2684 -0.0056 -0.0232
17804TIP3    H174903   0.035   0.625   5.698 -1.9078  1.6649  0.5634
17804TIP3    H274904   0.019   0.486   5.754 -2.1523  0.6217 -2.0542
17805TIP3   OH274905   3.273   5.983   0.206  0.1561 -0.0223 -0.2285
17805TIP3    H174906   3.207   6.027   0.152 -0.4876 -1.1093 -0.3444
17805TIP3    H274907   3.299   5.907   0.154 -0.3839 -1.0159  0.9393
17806TIP3   OH274908   2.880   3.118   2.244  0.0599  0.2092 -0.0816
17806TIP3    H174909   2.864   3.140   2.336 -1.4161  0.0591 -0.2884
17806TIP3    H274910   2.974   3.135   2.231  0.0406  1.3206  1.1431
17807TIP3   OH274911   3.819   5.112   0.772  0.4411 -0.7812  0.1531
17807TIP3    H174912   3.906   5.133   0.806  0.7264  0.0467 -1.0337
17807TIP3    H274913   3.836   5.063   0.692 -0.1966 -1.4523  0.4297
17808TIP3   OH274914   5.408   4.863  14.484  0.1589  0.1957 -0.5795
17808TIP3    H174915   5.475   4.827  14.426  1.0422  0.9091 -0.0101
17808TIP3    H274916   5.333   4.804  14.473  1.4818 -1.6845  0.1237
17809TIP3   OH274917   4.580   0.043  15.939  0.6493 -0.4654 -0.7268
17809TIP3    H174918   4.510   0.038  15.874  1.1061  0.0589 -1.2631
17809TIP3    H274919   4.534   0.048  16.023  0.0539 -0.7881 -1.0291
17810TIP3   OH274920   4.931   2.703   1.522  0.2720  0.3619  0.8569
17810TIP3    H174921   4.977   2.666   1.598  0.0895  0.7487  1.1607
17810TIP3    H274922   4.991   2.690   1.449  0.6226  0.3422  1.1463
17811TIP3   OH274923   0.425   2.275  14.513  0.6647  0.1572 -0.6111
17811TIP3    H174924   0.499   2.257  14.571  0.9535 -1.0534 -1.3345
17811TIP3    H274925   0.355   2.217  14.544 -0.4538  2.3113  0.9509
17812TIP3   OH274926   2.276   2.177  12.985 -0.1536  0.4185  0.0979
17812TIP3    H174927   2.351   2.205  13.038 -0.6494 -0.5299  1.3313
17812TIP3    H274928   2.201   2.220  13.025 -0.9069 -2.4481  1.9168
17813TIP3   OH274929   1.019   4.145   5.015 -0.2186  0.1878  0.2088
17813TIP3    H174930   1.078   4.085   5.061  1.4027  1.6198  0.0373
17813TIP3    H274931   1.006   4.218   5.077 -0.0508  0.9131 -0.6024
17814TIP3   OH274932   6.445   2.361   0.777  0.7301  0.3312  0.2547
17814TIP3    H174933   6.405   2.441   0.743  1.0648  0.4843  0.2249
17814TIP3    H274934   6.469   2.382   0.867 -2.2578 -0.7879  1.3730
17815TIP3   OH274935   2.185   2.788   0.424  0.3305  0.3809  0.2115
17815TIP3    H174936   2.251   2.831   0.370 -1.2863  0.0418 -2.1300
17815TIP3    H274937   2.137   2.860   0.465  1.0973  0.6667  0.6110
17816TIP3   OH274938   6.396   5.391   1.230  0.0262 -0.1992 -0.2077
17816TIP3    H174939   6.331   5.333   1.189  0.7934  0.7237 -2.7936
17816TIP3    H274940   6.480   5.353   1.206  0.5018 -0.4591  1.7778
17817TIP3   OH274941   2.432   0.643   0.581 -0.3375  0.3844 -0.2963
17817TIP3    H174942   2.468   0.567   0.536 -0.1451  0.5644 -0.4518
17817TIP3    H274943   2.498   0.667   0.646 -1.2656 -0.7575  1.0921
17818TIP3   OH274944   4.220   2.724  11.331  0.1099  0.0284  0.1463
17818TIP3    H174945   4.275   2.665  11.278 -0.4723 -1.5525  1.2392
17818TIP3    H274946   4.282   2.778  11.379  0.6559  0.6282 -1.2210
17819TIP3   OH274947   3.228   0.670  14.056  0.0800 -0.0139  0.0469
17819TIP3    H174948   3.291   0.601  14.041  0.2669 -0.2472  1.8125
17819TIP3    H274949   3.158   0.653  13.993  0.8757 -0.8645 -0.6109
17820TIP3   OH274950   2.887   3.573  14.025 -0.3749 -0.3393  0.2844
17820TIP3    H174951   2.948   3.528  14.083 -0.7960 -1.6998 -0.2916
17820TIP3    H274952   2.831   3.503  13.991 -0.4246  0.4902 -1.3904
17821TIP3   OH274953   1.136   2.397  15.302 -0.7709  0.2047 -0.2268
17821TIP3    H174954   1.187   2.359  15.373 -0.2817 -1.5364 -1.4986
17821TIP3    H274955   1.170   2.487  15.294  1.5755 -0.6726 -0.5401
17822TIP3   OH274956   3.312   5.489  17.031 -0.4657 -0.5924  0.3061
17822TIP3    H174957   3.285   5.573  16.994  0.1507 -0.4914  0.0735
17822TIP3    H274958   3.276   5.489  17.119 -3.7936 -1.7566 -0.9799
17823TIP3   OH274959   2.041   1.278   1.267 -0.2801 -0.1779  0.2458
17823TIP3    H174960   1.981   1.240   1.331  0.1744 -1.4901 -0.0881
17823TIP3    H274961   1.991   1.348   1.226 -1.5256 -1.1304  0.1108
17824TIP3   OH274962   3.023   0.783  11.517 -0.2064  0.1809 -0.3057
17824TIP3    H174963   3.104   0.826  11.545 -1.7187  1.6390  2.0215
17824TIP3    H274964   3.012   0.811  11.426  1.4808  0.6173 -0.3992
17825TIP3   OH274965   6.691   0.873  15.640 -0.7559  0.3080  0.0697
17825TIP3    H174966   6.682   0.780  15.619 -1.1148  0.4873 -0.5972
17825TIP3    H274967   6.785   0.885  15.657 -0.2716  0.3407 -2.4277
17826TIP3   OH274968   6.223   1.345   0.081  0.2705  0.6380  0.4588
17826TIP3    H174969   6.295   1.283   0.088 -0.8918 -0.6847  0.7366
17826TIP3    H274970   6.218   1.386   0.168 -0.5572 -0.6736  1.0462
17827TIP3   OH274971   1.805   0.433  16.189  0.2441  0.2769  0.1067
17827TIP3    H174972   1.858   0.483  16.252  0.0392  0.4539  0.1365
17827TIP3    H274973   1.742   0.387  16.244 -2.0998  3.0030 -0.2026
17828TIP3   OH274974   2.324   1.732   4.610 -0.4596  0.3173 -0.6690
17828TIP3    H174975   2.236   1.719   4.648 -0.9505  1.5582 -1.3358
17828TIP3    H274976   2.333   1.662   4.546 -0.1503 -1.0226  0.8049
17829TIP3   OH274977   2.717   5.447   3.129 -0.1523 -0.0042  0.1838
17829TIP3    H174978   2.693   5.536   3.155  0.5010  0.8659 -2.0824
17829TIP3    H274979   2.689   5.440   3.038  1.6526 -1.4023 -0.3041
17830TIP3   OH274980   6.305   4.620   1.651 -0.0145  0.1039 -0.3159
17830TIP3    H174981   6.381   4.565   1.634 -0.9763 -1.5375  0.5426
17830TIP3    H274982   6.330   4.707   1.619  2.1624 -0.4327 -0.1335
17831TIP3   OH274983   0.298   5.280  12.761  0.6690  0.2733  0.3358
17831TIP3    H174984   0.259   5.249  12.679 -1.8485  2.2866  0.7310
17831TIP3    H274985   0.361   5.347  12.732  1.5357 -0.6965 -0.0776
17832TIP3   OH274986   4.264   4.681  16.381 -0.2445 -0.0778  0.2369
17832TIP3    H174987   4.199   4.627  16.334 -0.8157  0.1782  0.7226
17832TIP3    H274988   4.267   4.763  16.332 -0.7549  0.1459  0.5706
17833TIP3   OH274989   5.141   3.684   4.509  0.1634 -0.1707  0.0303
17833TIP3    H174990   5.118   3.742   4.437 -0.7812  0.2208  0.6369
17833TIP3    H274991   5.096   3.721   4.585  1.4975 -0.3108  0.9253
17834TIP3   OH274992   2.878   5.352  13.069  0.3423  0.2196  0.2139
17834TIP3    H174993   2.835   5.382  12.988  0.0316 -0.2221  0.2129
17834TIP3    H274994   2.807   5.314  13.121  0.2889  1.7663  1.3101
17835TIP3   OH274995   1.371   0.537   4.786  0.6672 -0.0041 -0.2175
17835TIP3    H174996   1.395   0.616   4.737  0.1937  1.1391  1.3840
17835TIP3    H274997   1.454   0.506   4.822  0.7668  0.0895 -0.3631
17836TIP3   OH274998   1.085   0.614  13.218  0.4087  0.4047  0.3715
17836TIP3    H174999   1.142   0.690  13.211 -0.5804  1.0225 -1.3598
17836TIP3    H275000   1.141   0.544  13.251  1.4691  1.7181  1.3979
17837TIP3   OH275001   4.759   5.135  15.934  0.8783 -0.3928  0.1885
17837TIP3    H175002   4.719   5.052  15.962 -1.1297  0.1533 -1.0075
17837TIP3    H275003   4.810   5.163  16.010 -1.3262 -0.9014  1.9125
17838TIP3   OH275004   4.539   4.226   4.462  0.1730  0.9032  0.5457
17838TIP3    H175005   4.603   4.238   4.391 -1.3492  2.5754 -0.5992
17838TIP3    H275006   4.509   4.315   4.481 -0.8001  0.2631  2.0279
17839TIP3   OH275007   6.580   0.439  10.303 -0.0719  0.1484 -0.0715
17839TIP3    H175008   6.587   0.513  10.363 -1.1092  0.7676 -0.6890
17839TIP3    H275009   6.650   0.379  10.330  2.0761  2.2456 -0.8529
17840TIP3   OH275010   5.062   6.000   1.750 -0.4850 -0.6312  0.1341
17840TIP3    H175011   5.026   5.996   1.839 -0.4576 -0.5074  0.1510
17840TIP3    H275012   5.115   5.922   1.742  0.1183 -0.2622  0.4849
17841TIP3   OH275013   3.620   0.324   6.501 -0.2925  0.7590  0.1005
17841TIP3    H175014   3.605   0.253   6.563 -1.8254  1.8914  1.0874
17841TIP3    H275015   3.546   0.384   6.516  0.4406  2.0648 -1.3827
17842TIP3   OH275016   1.719   0.765  16.362 -0.6813  0.0851  0.3734
17842TIP3    H175017   1.763   0.838  16.319  0.9488 -0.1619  1.6013
17842TIP3    H275018   1.676   0.717  16.291  1.3100  0.1420 -0.8805
17843TIP3   OH275019   4.099   6.065   3.014  0.0084 -0.1596  0.4758
17843TIP3    H175020   4.103   6.089   3.106  0.4477  0.4640  0.2997
17843TIP3    H275021   4.006   6.068   2.991  0.0220  0.9038  0.5783
17844TIP3   OH275022   1.246   2.138   1.157  0.6374 -0.1731  0.3850
17844TIP3    H175023   1.327   2.163   1.112  0.0685  0.9479 -0.0412
17844TIP3    H275024   1.248   2.187   1.240 -0.1420  0.7653 -0.1362
17845TIP3   OH275025   5.819   3.846  13.422  0.0568  0.1342  0.4895
17845TIP3    H175026   5.771   3.885  13.495  0.0333 -1.8058  1.5551
17845TIP3    H275027   5.902   3.894  13.420 -1.4228  2.7532 -0.6527
17846TIP3   OH275028   5.780   2.862   5.240  0.9450 -0.0340 -0.2465
17846TIP3    H175029   5.686   2.871   5.227  0.7683  0.3368  1.1893
17846TIP3    H275030   5.799   2.771   5.218  0.6040  0.4256 -2.5271
17847TIP3   OH275031   5.119   4.959   1.391  0.4995  0.1406  0.2212
17847TIP3    H175032   5.134   5.015   1.315  1.1562  0.1393  0.3485
17847TIP3    H275033   5.051   4.897   1.362 -0.2112  0.9760  0.0749
17848TIP3   OH275034   5.484   3.400   5.956 -1.1447 -0.4221 -0.6443
17848TIP3    H175035   5.457   3.486   5.987  0.6996  0.4258 -1.3587
17848TIP3    H275036   5.455   3.340   6.025  0.0719  1.0706  1.2254
17849TIP3   OH275037   5.451   5.210  12.080  0.1160  0.1295  0.2087
17849TIP3    H175038   5.455   5.144  12.149  2.4038 -2.0610 -1.9545
17849TIP3    H275039   5.389   5.275  12.114 -0.3483 -1.8654  3.4397
17850TIP3   OH275040   6.433   0.681   4.249 -0.4060  0.0726 -0.2179
17850TIP3    H175041   6.399   0.666   4.337 -0.6716 -0.7480 -0.4545
17850TIP3    H275042   6.521   0.644   4.251  0.3340  1.8216  0.2712
17851TIP3   OH275043   1.485   5.574   0.469  0.5741 -0.1932 -0.1227
17851TIP3    H175044   1.577   5.598   0.477  0.4009 -0.4205  3.1266
17851TIP3    H275045   1.479   5.485   0.502 -0.9950  0.2165  0.7580
17852TIP3   OH275046   1.637   1.869  16.294  0.3241 -0.1599  0.3447
17852TIP3    H175047   1.692   1.820  16.356 -0.1363 -1.5956 -0.3611
17852TIP3    H275048   1.557   1.888  16.343  1.5301  2.2100  1.4775
17853TIP3   OH275049   6.256   6.771  16.501  0.3935 -0.0206 -0.2806
17853TIP3    H175050   6.285   6.742  16.587 -0.1000 -1.8140 -0.6876
17853TIP3    H275051   6.332   6.758  16.444 -0.2038 -1.7252 -0.7121
17854TIP3   OH275052   4.929   6.610  12.184  0.5458  0.6229  0.4445
17854TIP3    H175053   4.894   6.522  12.200 -0.6333  1.2721  1.5246
17854TIP3    H275054   4.883   6.641  12.107  1.5474 -0.0118 -0.4185
17855TIP3   OH275055   5.569   3.370   3.601  0.9570 -0.0721 -0.1288
17855TIP3    H175056   5.530   3.457   3.593  0.4691  0.0242  2.9159
17855TIP3    H275057   5.522   3.317   3.537 -1.7017  0.9048  0.9660
17856TIP3   OH275058   1.773   1.229  14.305 -0.0337  0.4276 -0.1305
17856TIP3    H175059   1.820   1.262  14.228  0.8132 -0.9972 -0.2560
17856TIP3    H275060   1.714   1.162  14.270  0.0049  0.1214  0.3825
17857TIP3   OH275061   0.768   1.549  12.688 -0.2696  0.2628  0.1578
17857TIP3    H175062   0.825   1.503  12.627  0.3068  1.5200 -0.2795
17857TIP3    H275063   0.686   1.500  12.687  0.9165 -1.7999  1.0797
17858TIP3   OH275064   5.442   5.773   5.039  0.1097 -0.2245 -0.6182
17858TIP3    H175065   5.533   5.780   5.010  0.2671 -1.4391 -0.4484
17858TIP3    H275066   5.402   5.855   5.011  1.0229 -0.0724 -1.5316
17859TIP3   OH275067   0.546   3.345  13.372  0.7233  0.1074 -0.4651
17859TIP3    H175068   0.573   3.372  13.460 -0.8442  1.4053 -0.3458
17859TIP3    H275069   0.582   3.412  13.314  1.0885 -0.3098 -0.7140
17860TIP3   OH275070   0.194   3.579  16.345 -0.3095  0.3462 -0.9691
17860TIP3    H175071   0.289   3.593  16.345 -0.1623 -0.3393  1.5244
17860TIP3    H275072   0.164   3.619  16.264  1.8802  2.1847 -0.9245
17861TIP3   OH275073   6.404   3.298   1.054  0.5431  0.5966 -0.5904
17861TIP3    H175074   6.462   3.327   0.984  0.3196  0.1276 -0.9741
17861TIP3    H275075   6.396   3.203   1.041  0.7623  0.4525  0.2632
17862TIP3   OH275076   2.405   1.330   5.550 -0.4201  0.6365  0.5055
17862TIP3    H175077   2.387   1.241   5.582 -0.4115  0.5734  0.3402
17862TIP3    H275078   2.486   1.321   5.499 -1.6575  0.2608 -1.4680
17863TIP3   OH275079   0.485   0.862   0.370 -0.6054  0.1666  0.1555
17863TIP3    H175080   0.391   0.869   0.383 -0.9872 -2.9048 -0.6612
17863TIP3    H275081   0.518   0.815   0.447 -0.2619 -1.7511 -1.1255
17864TIP3   OH275082   5.416   0.148  12.659  1.0001  0.1832  0.0467
17864TIP3    H175083   5.327   0.117  12.642  0.4744  1.8157 -0.2506
17864TIP3    H275084   5.445   0.099  12.736  0.4090 -1.4401 -0.7577
17865TIP3   OH275085   3.366   0.404   1.113  0.5244 -0.2077 -0.2109
17865TIP3    H175086   3.288   0.358   1.142  1.3248 -0.7965  1.0460
17865TIP3    H275087   3.405   0.347   1.047 -0.2995  0.2672 -1.1224
17866TIP3   OH275088   3.252   2.859  12.643  0.5246  0.3519  0.0574
17866TIP3    H175089   3.265   2.790  12.578  1.6108  1.2128 -0.6439
17866TIP3    H275090   3.246   2.940  12.592  1.7264  1.0708  1.0263
17867TIP3   OH275091   0.044   5.832   2.935 -0.2398  0.5239  0.3709
17867TIP3    H175092  -0.023   5.898   2.952 -0.0816  0.9849 -0.7705
17867TIP3    H275093   0.127   5.879   2.945 -0.1009  0.2207  0.6722
17868TIP3   OH275094   2.252   5.940  16.237  0.1613  0.3826 -0.0050
17868TIP3    H175095   2.219   5.916  16.324 -1.0953  2.6436  0.1892
17868TIP3    H275096   2.200   5.887  16.176 -0.7475  0.6449  0.5303
17869TIP3   OH275097   4.218   3.970   6.250 -0.3523  0.5142 -0.4129
17869TIP3    H175098   4.263   3.893   6.283  1.0839  1.9441  1.0028
17869TIP3    H275099   4.284   4.039   6.249 -1.9570  2.0979 -0.3601
17870TIP3   OH275100   1.333   4.779  14.084  0.0519  0.1014 -0.3530
17870TIP3    H175101   1.268   4.788  14.014  0.6182  2.9313 -0.5792
17870TIP3    H275102   1.350   4.869  14.113  1.4659 -0.8495  1.9298
17871TIP3   OH275103   2.154   4.416   2.838 -0.5321  0.6842 -0.8897
17871TIP3    H175104   2.080   4.430   2.779 -0.3756  0.4771 -1.1364
17871TIP3    H275105   2.223   4.379   2.783 -1.9343 -4.0304  0.2809
17872TIP3   OH275106   5.091   0.126   4.418 -0.2777 -0.6238  0.4512
17872TIP3    H175107   4.998   0.107   4.406 -0.1266 -0.4698 -0.9666
17872TIP3    H275108   5.101   0.217   4.391  0.3540 -0.7566  0.2290
17873TIP3   OH275109   0.443   3.203   3.954 -0.0974  0.5791  0.3039
17873TIP3    H175110   0.477   3.145   4.021 -3.4967 -0.4208  1.2369
17873TIP3    H275111   0.458   3.156   3.872 -2.8398 -1.6963  1.0484
17874TIP3   OH275112   3.349   3.931  11.275 -0.5084 -0.6848 -0.4620
17874TIP3    H175113   3.381   3.840  11.280  1.2726 -0.0814 -0.3511
17874TIP3    H275114   3.391   3.975  11.350  0.2264  0.6784 -1.6536
17875TIP3   OH275115   2.352   1.651   5.867  0.7578 -0.3755 -0.3882
17875TIP3    H175116   2.299   1.601   5.805 -2.4977  1.8403  0.4287
17875TIP3    H275117   2.388   1.723   5.815 -0.4551  0.4273 -0.1548
17876TIP3   OH275118   3.167   4.481  13.108  0.0743 -0.1191  0.2979
17876TIP3    H175119   3.241   4.530  13.144 -0.3552  0.0256  0.9994
17876TIP3    H275120   3.105   4.474  13.181  0.2552 -1.9787  0.3012
17877TIP3   OH275121   1.310   6.022   5.549  0.3985  0.0051 -0.2441
17877TIP3    H175122   1.376   5.962   5.515 -0.5944 -1.2630  0.0258
17877TIP3    H275123   1.347   6.055   5.631  0.0217 -1.9816  0.7622
17878TIP3   OH275124   3.899   0.443   2.389 -0.7014  0.3100  0.4479
17878TIP3    H175125   3.932   0.447   2.299 -1.1901 -3.1541  0.0545
17878TIP3    H275126   3.973   0.413   2.441 -1.2232 -0.5466  0.7110
17879TIP3   OH275127   3.141   2.020  11.645 -0.0537  0.3741 -0.4752
17879TIP3    H175128   3.183   1.936  11.626 -0.9567 -0.5302  1.4536
17879TIP3    H275129   3.206   2.068  11.695 -0.0868  0.2610 -0.3247
17880TIP3   OH275130   3.541   3.165   4.787  0.0680 -0.1372  0.3654
17880TIP3    H175131   3.617   3.116   4.818  1.2586  2.3262  1.4592
17880TIP3    H275132   3.467   3.129   4.836  1.1766  0.2654  2.3960
17881TIP3   OH275133   4.372   2.686  14.011  0.2985  0.3932 -0.2287
17881TIP3    H175134   4.434   2.756  13.992  0.7383  0.3000  0.8147
17881TIP3    H275135   4.377   2.675  14.106 -0.2199 -0.6271 -0.3126
17882TIP3   OH275136   2.826   0.106  13.643  0.0358 -0.1066  0.4182
17882TIP3    H175137   2.864   0.042  13.584 -0.3054 -1.1611  1.3340
17882TIP3    H275138   2.735   0.080  13.652 -0.6241  1.6982 -0.8069
17883TIP3   OH275139   1.050   0.089   0.485  0.2836  0.1997 -0.4632
17883TIP3    H175140   1.078   0.033   0.412  1.4923  1.4391 -0.9760
17883TIP3    H275141   1.091   0.174   0.467  0.0734  0.6995  1.3277
17884TIP3   OH275142   4.249   4.352  11.598  0.4591  0.4305 -0.6790
17884TIP3    H175143   4.156   4.359  11.576  0.2262 -0.7496 -0.1395
17884TIP3    H275144   4.284   4.288  11.536  0.2200 -1.4501  1.0782
17885TIP3   OH275145   4.839   0.027   6.368 -0.8823  0.2153  0.2552
17885TIP3    H175146   4.771  -0.041   6.376  1.4397 -2.4206 -1.2914
17885TIP3    H275147   4.885   0.025   6.451 -0.8015 -0.1414  0.2047
17886TIP3   OH275148   1.200   5.649   3.999  0.6494  0.3074  0.1443
17886TIP3    H175149   1.285   5.617   3.968 -0.5546 -0.8222 -2.0923
17886TIP3    H275150   1.145   5.650   3.921 -1.2174  1.6658  1.4446
17887TIP3   OH275151   2.130   6.003   4.540  0.4560 -0.0749 -0.2841
17887TIP3    H175152   2.195   6.016   4.609  0.2671  1.3452 -0.3589
17887TIP3    H275153   2.098   6.091   4.520 -2.2502 -0.8353  0.4720
17888TIP3   OH275154   0.853   6.089  11.697  0.3079 -0.0729 -0.3836
17888TIP3    H175155   0.842   6.025  11.627 -0.0795  0.2587 -0.6322
17888TIP3    H275156   0.887   6.039  11.771 -0.6892 -0.7130 -0.3382
17889TIP3   OH275157   4.889   5.073   1.981 -0.3969  0.5411 -0.1371
17889TIP3    H175158   4.940   5.109   1.908 -1.1517  2.3888  0.2242
17889TIP3    H275159   4.951   5.072   2.055 -0.2082  0.5701 -0.2945
17890TIP3   OH275160   5.323   2.566   1.769  0.1854  0.7921 -0.1444
17890TIP3    H175161   5.231   2.543   1.756  0.3982 -1.0868  1.5120
17890TIP3    H275162   5.322   2.641   1.828 -0.2218 -1.3723  2.6947
17891TIP3   OH275163   4.373   2.542  13.074  0.1103  0.3882 -0.5991
17891TIP3    H175164   4.282   2.555  13.047 -0.1417  0.1134  0.1124
17891TIP3    H275165   4.370   2.547  13.170  0.4389 -2.1033 -0.4468
17892TIP3   OH275166   6.209   1.661   3.224 -0.5927 -0.0510  0.2482
17892TIP3    H175167   6.247   1.591   3.170 -1.6736 -1.5081  1.3635
17892TIP3    H275168   6.275   1.731   3.221  1.3410 -1.8000  0.5798
17893TIP3   OH275169   6.654   5.330   5.652 -0.2417  0.1247  0.1480
17893TIP3    H175170   6.597   5.282   5.593 -0.2075  0.3199 -0.0440
17893TIP3    H275171   6.716   5.265   5.684 -0.5004 -0.0639  0.2685
17894TIP3   OH275172   4.546   6.551  12.154 -0.0273  0.0411 -0.0157
17894TIP3    H175173   4.538   6.503  12.072 -0.9511  1.1828 -0.6085
17894TIP3    H275174   4.521   6.641  12.131 -0.8427  0.2441  1.6414
17895TIP3   OH275175   1.607   2.902   4.909  0.5629 -0.0051 -0.1458
17895TIP3    H175176   1.624   2.808   4.911 -1.1242 -0.3236  0.6199
17895TIP3    H275177   1.557   2.919   4.989 -1.3035  1.0908 -1.4875
17896TIP3   OH275178   5.440   4.325  10.907 -0.1562 -0.5406  0.0799
17896TIP3    H175179   5.416   4.250  10.853  0.7102 -1.0027  0.3331
17896TIP3    H275180   5.477   4.286  10.986  2.4435  0.1790 -0.7626
17897TIP3   OH275181   4.930   4.934  15.773 -0.0591  0.2284 -0.0855
17897TIP3    H175182   4.876   5.001  15.815  1.1544  2.1598 -1.5105
17897TIP3    H275183   4.900   4.932  15.682  0.3126 -0.7585 -0.2026
17898TIP3   OH275184   3.844   4.819   5.347 -0.4105  0.4430 -0.1296
17898TIP3    H175185   3.884   4.766   5.416  0.6265  0.5995 -0.6065
17898TIP3    H275186   3.916   4.867   5.308 -1.0898  0.8683 -0.8870
17899TIP3   OH275187   0.106   3.915   2.683  0.1233 -0.1905 -0.7145
17899TIP3    H175188   0.149   3.830   2.674 -2.5730 -1.5822 -0.9414
17899TIP3    H275189   0.081   3.919   2.776 -1.8262 -0.7215 -1.1921
17900TIP3   OH275190   5.870   2.697   1.891  0.4266  0.1591 -0.3521
17900TIP3    H175191   5.919   2.739   1.820  0.6314 -0.3416 -0.5100
17900TIP3    H275192   5.844   2.612   1.856  0.7039 -0.1779  0.2346
17901TIP3   OH275193   3.478   2.694   4.999 -0.2616 -0.5660 -0.6820
17901TIP3    H175194   3.464   2.723   4.909  1.0772  1.3522 -0.2732
17901TIP3    H275195   3.486   2.774   5.050  0.2050 -1.6357  0.9712
17902TIP3   OH275196   5.764   4.933   2.545 -0.0663 -0.1776  0.0545
17902TIP3    H175197   5.685   4.972   2.507 -0.1070  0.5174  0.8480
17902TIP3    H275198   5.747   4.839   2.544 -0.8262 -0.0418  0.0498
17903TIP3   OH275199   0.213   1.881  16.302 -0.5934  0.0934 -0.3767
17903TIP3    H175200   0.284   1.824  16.271 -0.0317  0.2527  0.5775
17903TIP3    H275201   0.225   1.883  16.397 -1.7616  0.2876 -0.2285
17904TIP3   OH275202   1.128   6.815   3.563  0.8456 -0.8152  0.4689
17904TIP3    H175203   1.084   6.730   3.572  0.2425 -0.4146  1.4051
17904TIP3    H275204   1.196   6.800   3.498  0.2526 -1.8253  0.0672
17905TIP3   OH275205   3.424   5.977   2.332  0.3494 -0.0117  0.5054
17905TIP3    H175206   3.517   5.963   2.317  0.2080 -0.6858  0.2585
17905TIP3    H275207   3.396   6.033   2.259  0.2214 -1.1421 -0.3392
17906TIP3   OH275208   1.091   1.284  13.429  0.2611 -0.0852 -0.2582
17906TIP3    H175209   1.082   1.191  13.449  0.8786 -0.0626  0.1382
17906TIP3    H275210   1.153   1.317  13.495 -0.9331  0.8631  0.4071
17907TIP3   OH275211   3.332   5.043  13.703  0.0755 -0.2391 -0.1863
17907TIP3    H175212   3.325   5.119  13.645  0.8161 -1.0125 -1.3195
17907TIP3    H275213   3.414   5.058  13.752 -0.5217  0.3860  0.6459
17908TIP3   OH275214   1.166   2.633  14.405 -0.1938  0.7665 -0.1076
17908TIP3    H175215   1.116   2.579  14.343 -0.9489 -0.6363  1.6774
17908TIP3    H275216   1.256   2.627  14.374 -0.4368 -0.6231 -0.5744
17909TIP3   OH275217   2.131   5.810   2.956  0.2826 -0.1254 -0.5701
17909TIP3    H175218   2.179   5.727   2.960  1.2484  0.4710  0.4686
17909TIP3    H275219   2.182   5.870   3.011 -1.5688  0.5692  0.4295
17910TIP3   OH275220   2.923   4.429   4.611 -0.0420  0.0200  0.2210
17910TIP3    H175221   2.863   4.503   4.622 -0.8414 -0.6012  0.1019
17910TIP3    H275222   2.949   4.406   4.700  2.4500  2.2468  0.0967
17911TIP3   OH275223   1.954   1.613  13.828 -0.1866  0.6149 -0.0374
17911TIP3    H175224   1.948   1.571  13.743 -0.3333 -0.9961  0.7603
17911TIP3    H275225   2.013   1.687  13.814 -1.5402  1.3873 -1.9230
17912TIP3   OH275226   5.552   6.693  14.055 -0.1386  0.7790  0.0946
17912TIP3    H175227   5.530   6.622  13.995 -2.5251  1.1506  0.4898
17912TIP3    H275228   5.614   6.654  14.117  1.7020  0.1642 -2.0404
17913TIP3   OH275229   6.027   5.443   5.267  0.0184 -0.0103 -0.3170
17913TIP3    H175230   6.061   5.368   5.220 -1.1013  0.1290 -1.3696
17913TIP3    H275231   5.955   5.407   5.321  0.6452  0.0019  0.5410
17914TIP3   OH275232   1.980   1.637   0.078 -0.1482  0.5089 -0.2663
17914TIP3    H175233   1.934   1.560   0.046 -0.0373  0.6579 -0.7932
17914TIP3    H275234   1.913   1.690   0.120 -0.5204  0.8864 -1.3299
17915TIP3   OH275235   1.906   1.078  13.485 -0.0626  0.1322 -0.1012
17915TIP3    H175236   1.956   1.048  13.561 -1.8177 -0.8119  0.6932
17915TIP3    H275237   1.870   1.163  13.511 -0.6048 -0.1575  0.0855
17916TIP3   OH275238   3.109   4.209  12.146 -0.0207 -0.3432  0.4668
17916TIP3    H175239   3.150   4.123  12.142 -2.4594 -1.5551  0.6404
17916TIP3    H275240   3.111   4.232  12.239  0.0469 -0.5322  0.5116
17917TIP3   OH275241   4.975   4.264  10.845 -0.0721 -0.5066  0.5287
17917TIP3    H175242   4.993   4.318  10.768  0.1543 -1.2329  0.0742
17917TIP3    H275243   5.038   4.294  10.910 -0.3976  0.2493  0.5059
17918TIP3   OH275244   4.907   3.555   5.691 -0.1367 -0.0353  0.2603
17918TIP3    H175245   4.867   3.638   5.716 -0.4812 -0.1154 -0.0171
17918TIP3    H275246   4.832   3.498   5.670  0.1604  0.1625 -1.3966
17919TIP3   OH275247   0.358   4.537   4.227 -0.1274  0.1663 -0.3981
17919TIP3    H175248   0.424   4.601   4.256  0.6613 -0.7530 -0.1401
17919TIP3    H275249   0.342   4.560   4.135 -0.2008  1.0313 -0.1743
17920TIP3   OH275250   2.898   6.408  11.566 -0.2639  0.0188 -0.3531
17920TIP3    H175251   2.822   6.367  11.524  0.2480 -0.9582 -0.3374
17920TIP3    H275252   2.957   6.429  11.493 -1.1440  2.0623 -0.5053
17921TIP3   OH275253   4.731   4.279  14.356  0.0765  0.8425 -0.0806
17921TIP3    H175254   4.694   4.219  14.421  0.7786 -1.0495 -1.4035
17921TIP3    H275255   4.656   4.309  14.306 -0.2956  1.1708  0.6682
17922TIP3   OH275256   2.384   0.869  16.899  0.0732  0.8297 -1.1020
17922TIP3    H175257   2.340   0.820  16.829 -1.4808  0.0816  0.3488
17922TIP3    H275258   2.460   0.909  16.857 -1.4636  1.3439 -3.4639
17923TIP3   OH275259   2.875   6.286   5.868 -0.4485 -0.1313  0.4193
17923TIP3    H175260   2.874   6.209   5.923 -2.9122  0.5490  1.3890
17923TIP3    H275261   2.806   6.342   5.903  1.2763  2.5393 -0.2340
17924TIP3   OH275262   3.755   1.948  11.637  0.7767 -0.6542 -0.0869
17924TIP3    H175263   3.687   1.937  11.571  0.3574 -0.7904  0.3655
17924TIP3    H275264   3.800   2.028  11.611  0.4264 -0.5447 -0.3717
17925TIP3   OH275265   0.794   0.624  16.452 -0.5261  0.4129  0.0608
17925TIP3    H175266   0.710   0.618  16.498 -1.0968 -1.4248 -1.1517
17925TIP3    H275267   0.855   0.657  16.517 -1.1656 -2.7578  2.4044
17926TIP3   OH275268   5.779   0.167  13.079  0.0416  0.8334 -0.8108
17926TIP3    H175269   5.806   0.102  13.013 -0.6766 -1.7976  1.3885
17926TIP3    H275270   5.861   0.201  13.114  0.4607 -0.1510 -0.8045
17927TIP3   OH275271   6.641   1.781  10.337 -0.2655 -0.6408 -0.4328
17927TIP3    H175272   6.695   1.715  10.380  1.0651 -0.0957 -1.2465
17927TIP3    H275273   6.665   1.863  10.381 -0.3327 -0.3782 -0.8885
17928TIP3   OH275274   3.581   4.007  16.790 -0.5233  0.1773  0.2922
17928TIP3    H175275   3.500   4.056  16.802 -0.7476  0.7890 -3.2049
17928TIP3    H275276   3.645   4.051  16.845 -1.8658  1.4803  0.8345
17929TIP3   OH275277   4.097   4.390   4.756  0.1607 -0.4850 -0.0257
17929TIP3    H175278   4.166   4.441   4.799 -1.4270 -0.3229  2.4402
17929TIP3    H275279   4.073   4.442   4.679  0.7401  0.9373  0.7304
17930TIP3   OH275280   6.470   0.809  13.724  0.1711  0.6732  0.1996
17930TIP3    H175281   6.505   0.724  13.750  1.5054  0.4872 -2.1045
17930TIP3    H275282   6.517   0.872  13.778  1.0469  0.1252  0.0759
17931TIP3   OH275283   5.287   5.020   6.108 -0.5780 -0.1697  0.0135
17931TIP3    H175284   5.350   4.977   6.049 -0.2561  0.9672 -0.4986
17931TIP3    H275285   5.202   5.004   6.068 -0.2914  1.3194 -1.2711
17932TIP3   OH275286   6.023   2.319   0.267 -0.4606  0.1327 -0.5792
17932TIP3    H175287   6.048   2.289   0.179  1.2338  0.1565 -0.1106
17932TIP3    H275288   6.010   2.238   0.317 -1.3992  0.1197 -0.8267
17933TIP3   OH275289   5.966   6.136   4.537 -0.0371  0.3190 -0.0697
17933TIP3    H175290   5.937   6.136   4.628 -0.8981  0.9601 -0.3378
17933TIP3    H275291   5.991   6.045   4.520 -2.8217 -0.4834 -0.1045
17934TIP3   OH275292   3.477   3.212   5.242  0.1720  0.2270 -0.2117
17934TIP3    H175293   3.507   3.123   5.222  0.1554  0.5276 -1.6148
17934TIP3    H275294   3.538   3.269   5.194  0.2060  0.9714  0.7089
17935TIP3   OH275295   6.784   1.687   3.882  0.5174  0.3994  0.2472
17935TIP3    H175296   6.767   1.688   3.788  1.2335 -1.0162  0.0968
17935TIP3    H275297   6.829   1.770   3.899 -2.5589  2.2122 -0.0796
17936TIP3   OH275298   1.123   6.368  14.750 -0.0977 -0.1551  0.2835
17936TIP3    H175299   1.037   6.363  14.793 -0.9440  0.2215 -1.3402
17936TIP3    H275300   1.129   6.458  14.719  0.6669 -0.3211 -0.0502
17937TIP3   OH275301   1.908   2.887  11.539 -0.5888 -0.4568  0.0708
17937TIP3    H175302   1.851   2.923  11.471  1.7715  1.6711 -0.8819
17937TIP3    H275303   1.886   2.937  11.618 -0.5059 -0.0435 -0.1613
17938TIP3   OH275304   5.982   4.427  17.042 -0.0957 -0.0189 -0.4504
17938TIP3    H175305   6.071   4.459  17.059  1.0292 -2.9508 -0.5235
17938TIP3    H275306   5.935   4.440  17.124  0.8175  0.1874  0.0368
17939TIP3   OH275307   2.157   3.469  11.416 -0.0508 -0.4702 -0.1533
17939TIP3    H175308   2.233   3.441  11.365 -1.0148 -0.4315 -1.6447
17939TIP3    H275309   2.157   3.564  11.408 -0.0002 -0.4403  0.2141
17940TIP3   OH275310   2.470   2.557  13.333 -0.0516  0.0080 -0.1055
17940TIP3    H175311   2.499   2.522  13.418 -0.2440  0.0260 -0.0330
17940TIP3    H275312   2.459   2.480  13.278 -0.3700 -0.0364  0.0215
17941TIP3   OH275313   5.772   5.388  11.697  1.1648 -0.2035 -0.6348
17941TIP3    H175314   5.790   5.470  11.742 -0.4905  0.8762 -1.8609
17941TIP3    H275315   5.744   5.328  11.767  0.7936  0.7776  0.0713
17942TIP3   OH275316   4.148   2.718   3.839  0.0922 -0.1753 -0.0977
17942TIP3    H175317   4.198   2.789   3.799 -0.7033 -0.2652 -1.2704
17942TIP3    H275318   4.078   2.762   3.888  0.5681 -0.0962  0.5154
17943TIP3   OH275319   5.576   1.972   1.701  0.1903  0.0782  0.3511
17943TIP3    H175320   5.504   1.985   1.640  0.5013  0.0148 -0.0340
17943TIP3    H275321   5.540   1.996   1.786 -0.2653  0.1082  0.1517
17944TIP3   OH275322   5.772   4.869  11.879 -0.2798  0.5747  0.2083
17944TIP3    H175323   5.737   4.854  11.792 -0.9191 -0.4912  0.6342
17944TIP3    H275324   5.728   4.804  11.934 -0.5637  1.8297  1.4926
17945TIP3   OH275325   5.078   2.371   1.371 -0.4051 -0.2497 -0.3657
17945TIP3    H175326   5.066   2.285   1.330 -0.3718 -0.7612  0.6970
17945TIP3    H275327   5.006   2.379   1.433 -1.2975  1.1491 -1.5582
17946TIP3   OH275328   6.341   1.466  15.440 -0.3585  0.1998  0.1869
17946TIP3    H175329   6.273   1.424  15.388  1.3316  1.1653 -2.9149
17946TIP3    H275330   6.305   1.551  15.464 -0.1018  0.9049 -1.8599
17947TIP3   OH275331   6.420   4.825   5.682  0.3913 -0.1980 -0.1924
17947TIP3    H175332   6.457   4.833   5.771  1.1039  0.4720 -0.5359
17947TIP3    H275333   6.400   4.732   5.673 -0.0839 -0.2023  0.8309
17948TIP3   OH275334   2.176   1.777  11.021  0.2049 -0.2500  0.6095
17948TIP3    H175335   2.154   1.828  10.943  1.0553 -1.5239 -0.4975
17948TIP3    H275336   2.092   1.763  11.065 -0.3766  0.0070 -0.3869
17949TIP3   OH275337   4.995   1.953  13.658  0.9029  0.0690  0.3624
17949TIP3    H175338   5.056   1.882  13.676  1.2437 -0.1711 -1.6066
17949TIP3    H275339   4.945   1.923  13.582  0.6687  1.6884 -0.1486
17950TIP3   OH275340   0.951   3.924  12.517  0.1333 -0.0276 -0.3703
17950TIP3    H175341   1.044   3.922  12.539 -0.1924  0.5126  1.1227
17950TIP3    H275342   0.933   3.838  12.478  1.5250  0.3397 -1.8880
17951TIP3   OH275343   0.756   4.406   1.071 -0.0783 -0.0647  0.5747
17951TIP3    H175344   0.709   4.431   0.991  1.3362  1.6345  0.2416
17951TIP3    H275345   0.807   4.328   1.045 -0.4716 -0.1765  0.1285
17952TIP3   OH275346   5.322   0.601   1.920  0.2019  0.5532  0.2636
17952TIP3    H175347   5.373   0.612   1.840 -2.4154 -0.1879 -1.5796
17952TIP3    H275348   5.376   0.640   1.989  2.9645  0.2633 -1.6729
17953TIP3   OH275349   1.439   6.713  13.136 -1.0466 -0.1627  0.1061
17953TIP3    H175350   1.439   6.785  13.199 -1.1051 -0.0033 -0.0735
17953TIP3    H275351   1.515   6.731  13.080 -0.6084 -0.6657  0.5375
17954TIP3   OH275352   1.489   5.178   2.133 -1.0218 -0.1200  0.1699
17954TIP3    H175353   1.431   5.236   2.183 -0.7743 -0.6316  1.0489
17954TIP3    H275354   1.554   5.148   2.196 -0.0356  0.1202 -0.7223
17955TIP3   OH275355   0.691   6.132  16.612 -0.2231  0.6307 -0.0243
17955TIP3    H175356   0.616   6.191  16.617  1.0090  2.4369 -1.8313
17955TIP3    H275357   0.755   6.169  16.673 -0.2663 -0.0850  0.4557
17956TIP3   OH275358   4.408   6.364   0.630  0.3507  0.0435  0.1411
17956TIP3    H175359   4.336   6.396   0.575  0.7615 -1.6726 -1.4303
17956TIP3    H275360   4.366   6.305   0.693  0.3529 -0.7612 -0.6126
17957TIP3   OH275361   3.359   6.033   5.033  0.0782 -0.3155 -0.1677
17957TIP3    H175362   3.446   5.993   5.040  0.1523 -0.1269 -0.0016
17957TIP3    H275363   3.376   6.126   5.018 -0.0830 -0.0954  0.9207
17958TIP3   OH275364   4.763   1.131  11.808 -0.7377 -0.0421 -0.0981
17958TIP3    H175365   4.850   1.155  11.840  0.3195 -0.9294 -2.1759
17958TIP3    H275366   4.705   1.198  11.845  1.3133  2.5758 -1.3797
17959TIP3   OH275367   6.150   4.141   3.362 -0.1996 -0.3710  0.4681
17959TIP3    H175368   6.176   4.217   3.311 -1.0605 -0.7056 -0.4621
17959TIP3    H275369   6.154   4.068   3.301  1.9066 -1.3256  1.6571
17960TIP3   OH275370   1.521   2.413  12.698  0.3485  0.2937  0.8676
17960TIP3    H175371   1.470   2.409  12.617  0.5387  1.9220  0.6441
17960TIP3    H275372   1.460   2.386  12.767  0.5403 -2.3306  0.0650
17961TIP3   OH275373   1.367   0.792   4.662 -0.4871  0.4376  0.4070
17961TIP3    H175374   1.421   0.792   4.583 -1.7933 -0.9808 -0.5222
17961TIP3    H275375   1.278   0.804   4.630 -0.9688  0.4444  1.7171
17962TIP3   OH275376   2.640   2.480  15.995  0.0513  0.5088  0.1850
17962TIP3    H175377   2.622   2.518  16.081  0.1206 -1.3488  1.0458
17962TIP3    H275378   2.668   2.554  15.942  1.2824  1.4935  2.1282
17963TIP3   OH275379   1.573   0.253  16.834 -0.3920 -0.5150  0.1484
17963TIP3    H175380   1.514   0.280  16.905  1.5555  1.7114  0.9781
17963TIP3    H275381   1.570   0.326  16.772 -2.5189 -2.6944 -2.4285
17964TIP3   OH275382   2.284   5.238  14.546 -0.3139 -0.0494  0.0487
17964TIP3    H175383   2.363   5.289  14.562  0.6741 -1.9173  1.3109
17964TIP3    H275384   2.284   5.222  14.451  1.1109 -0.5027  0.1264
17965TIP3   OH275385   4.561   2.869  14.226  0.0861  0.0695  0.0781
17965TIP3    H175386   4.600   2.822  14.152  0.1181  0.4928 -0.1740
17965TIP3    H275387   4.600   2.828  14.303  2.1592  1.4616 -0.2007
17966TIP3   OH275388   6.010   3.312   0.205 -0.1228 -0.1592  0.1981
17966TIP3    H175389   6.020   3.226   0.246 -0.6608 -0.2685  0.1107
17966TIP3    H275390   5.984   3.293   0.115  0.3982  0.0884 -0.0003
17967TIP3   OH275391   0.214   2.127   4.016 -0.0077 -0.0464  0.7094
17967TIP3    H175392   0.295   2.175   3.999 -0.4245  1.1205  1.9963
17967TIP3    H275393   0.145   2.189   3.996 -0.6207 -1.1081 -0.5937
17968TIP3   OH275394   0.324   2.031   6.075 -0.0655 -0.6360 -0.2961
17968TIP3    H175395   0.374   2.095   6.125  2.0649 -0.0469 -3.0568
17968TIP3    H275396   0.239   2.073   6.060 -0.0176 -0.0282  1.0724
17969TIP3   OH275397   6.418   3.459   4.360 -0.1467 -0.1707 -0.4608
17969TIP3    H175398   6.369   3.530   4.400 -0.8652 -1.0510  0.2562
17969TIP3    H275399   6.443   3.492   4.274  0.0901  1.1776  0.1067
17970TIP3   OH275400   2.600   0.401   2.255  0.2687 -0.2243  0.4754
17970TIP3    H175401   2.680   0.418   2.304  0.4854 -1.8451  0.7216
17970TIP3    H275402   2.538   0.368   2.321 -0.2550  0.0133  0.1050
17971TIP3   OH275403   4.994   5.690   2.000 -0.5776  0.3861 -0.3297
17971TIP3    H175404   5.090   5.686   1.992 -0.6954 -1.1783 -1.2274
17971TIP3    H275405   4.978   5.692   2.094  0.3258 -0.2656 -0.1478
17972TIP3   OH275406   2.133   1.796   4.972 -1.1927  0.3011 -0.1903
17972TIP3    H175407   2.213   1.824   5.017 -1.6660  0.1851  0.7281
17972TIP3    H275408   2.132   1.701   4.982 -1.9070  0.3850  0.5766
17973TIP3   OH275409   3.085   1.510   1.738 -0.7539 -0.1750 -0.6154
17973TIP3    H175410   3.157   1.460   1.700  0.1126  0.4824  0.1655
17973TIP3    H275411   3.075   1.474   1.826 -0.2437  0.8990 -0.1105
17974TIP3   OH275412   0.806   5.726  13.417  0.4630 -0.1948  0.1129
17974TIP3    H175413   0.747   5.783  13.466  1.8050  2.3937 -1.2093
17974TIP3    H275414   0.875   5.704  13.479  0.7902  0.9428  0.1573
17975TIP3   OH275415   6.670   4.392  14.031  0.3098  0.7458  0.3353
17975TIP3    H175416   6.639   4.430  13.949 -0.9823  0.0814  0.5036
17975TIP3    H275417   6.606   4.324  14.052  1.5811 -0.2609  0.9944
17976TIP3   OH275418   5.204   0.896   1.838  0.0673 -0.1070 -0.6246
17976TIP3    H175419   5.175   0.958   1.905  0.3157  0.9191 -1.4533
17976TIP3    H275420   5.217   0.814   1.885  1.1243  0.8384  0.7543
17977TIP3   OH275421   3.649   5.697   5.181  0.1521  0.1357  0.2528
17977TIP3    H175422   3.683   5.663   5.099 -1.3774 -2.7278  0.7634
17977TIP3    H275423   3.697   5.649   5.249 -0.4495  0.5968  1.0198
17978TIP3   OH275424   3.014   3.388   4.797  0.0110  0.0056  0.3894
17978TIP3    H175425   2.948   3.443   4.755 -0.6208 -1.1226 -0.1351
17978TIP3    H275426   3.017   3.309   4.743  2.5924  0.4917 -0.2258
17979TIP3   OH275427   4.401   3.764   6.307 -0.6342 -0.1042 -0.2741
17979TIP3    H175428   4.489   3.801   6.315  0.0477 -1.5518 -0.9881
17979TIP3    H275429   4.415   3.671   6.292 -2.3046 -0.4150 -0.0085
17980TIP3   OH275430   6.772   0.011  15.725 -0.0141 -0.3949  0.7875
17980TIP3    H175431   6.859  -0.029  15.730  0.0390 -1.2942 -4.2645
17980TIP3    H275432   6.712  -0.062  15.736 -0.0230 -0.5530 -0.2379
17981TIP3   OH275433   2.220   2.235   3.799  0.2124  0.6181 -0.0833
17981TIP3    H175434   2.278   2.163   3.825 -0.5203 -0.2380 -0.7709
17981TIP3    H275435   2.276   2.313   3.803  0.7083  0.1982  1.8251
17982TIP3   OH275436   4.398   5.489   4.500  0.1291  0.0853 -0.4624
17982TIP3    H175437   4.325   5.549   4.482 -0.6441 -0.6101  0.3148
17982TIP3    H275438   4.457   5.540   4.556  0.2420  0.6468 -1.0844
17983TIP3   OH275439   4.092   6.454  16.069 -0.3157  0.1027  0.7518
17983TIP3    H175440   4.158   6.419  16.010 -1.8600 -0.4366 -0.7117
17983TIP3    H275441   4.077   6.384  16.133 -1.5413 -0.9286 -0.6378
17984TIP3   OH275442   1.388   2.645  11.005  0.3513 -0.2784 -0.7274
17984TIP3    H175443   1.436   2.717  11.046  1.3849 -1.2566 -0.1868
17984TIP3    H275444   1.428   2.566  11.041 -0.0122 -1.1398 -2.1546
17985TIP3   OH275445   2.051   6.084   0.096 -0.0305 -0.2536 -0.8431
17985TIP3    H175446   1.987   6.150   0.069 -0.7924 -0.5042  0.2941
17985TIP3    H275447   2.129   6.104   0.045 -0.3608  1.3228 -0.7554
17986TIP3   OH275448   0.260   0.561   3.225  0.0559 -0.1942  0.0163
17986TIP3    H175449   0.334   0.571   3.285 -0.2853 -0.9966  0.5681
17986TIP3    H275450   0.184   0.553   3.281  0.0077 -3.4165 -0.4241
17987TIP3   OH275451   6.085   2.734  12.445  0.9094  0.5307 -0.2434
17987TIP3    H175452   6.055   2.820  12.473  0.8245  0.7027 -0.8642
17987TIP3    H275453   6.181   2.742  12.440  0.9701  0.3337  0.5505
17988TIP3   OH275454   0.388   6.020  14.288 -0.2488 -0.2160  0.2704
17988TIP3    H175455   0.462   6.057  14.335 -0.1724  1.9132 -1.4560
17988TIP3    H275456   0.311   6.057  14.331 -0.2461 -0.2531  0.3070
17989TIP3   OH275457   6.431   3.703   6.467  0.2163  0.4664  0.5336
17989TIP3    H175458   6.507   3.668   6.512  0.5968 -1.4744 -1.5089
17989TIP3    H275459   6.372   3.628   6.457 -1.2762  1.5962  0.7310
17990TIP3   OH275460   0.602   0.869   1.143 -0.7349  0.0494 -0.0352
17990TIP3    H175461   0.630   0.957   1.169 -0.4877 -0.4972  1.5996
17990TIP3    H275462   0.662   0.810   1.187 -2.2568 -1.0119  0.6841
17991TIP3   OH275463   2.362   0.408  17.145  0.1583 -0.5191  0.4372
17991TIP3    H175464   2.423   0.464  17.192  2.1650 -0.7836 -1.7431
17991TIP3    H275465   2.387   0.318  17.168 -0.2130 -0.6094  0.5021
17992TIP3   OH275466   2.762   5.104   0.372  0.0274 -0.2907 -0.2695
17992TIP3    H175467   2.818   5.151   0.433 -1.1297 -1.0062  1.3526
17992TIP3    H275468   2.819   5.087   0.296  1.1980  1.3698  0.2222
17993TIP3   OH275469   3.518   4.531   0.249 -0.0491  1.0200  0.2181
17993TIP3    H175470   3.537   4.526   0.155  1.5306  2.0382  0.4632
17993TIP3    H275471   3.524   4.441   0.279  0.9188  0.8697 -0.3914
17994TIP3   OH275472   6.186   6.645   4.707  0.8729 -0.0409 -0.1200
17994TIP3    H175473   6.228   6.696   4.777  0.9794 -0.2647 -0.0197
17994TIP3    H275474   6.096   6.631   4.737  0.4547  1.2035 -0.7293
17995TIP3   OH275475   0.800   4.441  16.500  0.1049 -0.8903 -0.5531
17995TIP3    H175476   0.763   4.384  16.568 -0.0984 -0.7985 -0.5872
17995TIP3    H275477   0.781   4.529  16.531  1.6199 -0.7997  0.1877
17996TIP3   OH275478   0.766   0.083  13.695 -0.0827  0.0056  0.0730
17996TIP3    H175479   0.859   0.061  13.684  0.0502  0.5390  0.1472
17996TIP3    H275480   0.765   0.148  13.764 -0.5847 -0.5512  0.5949
17997TIP3   OH275481   1.546   4.749   0.208 -0.3341 -0.0211 -0.2328
17997TIP3    H175482   1.508   4.734   0.294 -0.8667  1.9767 -0.1068
17997TIP3    H275483   1.489   4.814   0.167  0.4671 -0.2342 -1.7241
17998TIP3   OH275484   4.695   6.275   1.645  0.2484  0.1048  0.4099
17998TIP3    H175485   4.723   6.191   1.680  0.6710  0.2808  0.4908
17998TIP3    H275486   4.775   6.326   1.635  0.1503  0.0269 -0.9031
17999TIP3   OH275487   0.947   4.871  14.973 -0.1420  0.1111 -0.3549
17999TIP3    H175488   0.908   4.837  14.893 -0.1846 -1.1613  0.1984
17999TIP3    H275489   1.021   4.813  14.991  0.5399  1.0459 -0.0662
18000TIP3   OH275490   4.670   2.706  12.916 -0.1117  0.4349 -0.4016
18000TIP3    H175491   4.676   2.702  13.012 -1.8186 -1.0346 -0.3521
18000TIP3    H275492   4.581   2.734  12.898 -0.7304 -2.2037 -1.6174
18001TIP3   OH275493   0.307   0.554   3.532 -0.0821  0.4813  0.4161
18001TIP3    H175494   0.266   0.567   3.618  1.8392  1.4406  1.2129
18001TIP3    H275495   0.291   0.636   3.485 -0.0300  0.4380  0.3232
18002TIP3   OH275496   3.527   6.508  14.640  0.4165  0.3718  0.0282
18002TIP3    H175497   3.476   6.509  14.558  0.2248  0.7103  0.1480
18002TIP3    H275498   3.461   6.500  14.708  0.6280 -0.6965  0.1154
18003TIP3   OH275499   4.396   1.220  16.253 -0.1761  0.2073  0.5948
18003TIP3    H175500   4.374   1.252  16.166  2.6278 -0.3211 -0.3834
18003TIP3    H275501   4.345   1.274  16.313 -1.7346  0.9332 -1.3528
18004TIP3   OH275502   1.945   4.196   0.315  0.2278 -0.0890  0.0225
18004TIP3    H175503   1.906   4.117   0.278  0.7951 -1.1559  1.6901
18004TIP3    H275504   1.877   4.235   0.369  0.4448 -0.2258  0.3906
18005TIP3   OH275505   2.625   4.323  14.354  0.2375  0.4677 -0.1841
18005TIP3    H175506   2.556   4.380  14.388 -0.3951 -1.5069  1.9973
18005TIP3    H275507   2.598   4.304  14.264 -2.2678 -0.5201  0.7254
18006TIP3   OH275508   3.744   0.411   0.289 -0.5985  0.5519  0.4882
18006TIP3    H175509   3.704   0.433   0.373 -1.3802 -0.7436  0.4665
18006TIP3    H275510   3.688   0.454   0.224 -1.2095 -0.1691  0.5288
18007TIP3   OH275511   1.330   1.197  11.899  0.2730  0.5036  0.1361
18007TIP3    H175512   1.250   1.165  11.941 -0.1754  0.3516 -0.8050
18007TIP3    H275513   1.320   1.172  11.807  1.6059  0.1053  0.0915
18008TIP3   OH275514   1.873   3.955  10.850  0.0125 -0.2914  0.2948
18008TIP3    H175515   1.842   4.032  10.802 -0.2149 -0.2005  0.5903
18008TIP3    H275516   1.918   3.902  10.783 -0.4771 -0.2631 -0.0605
18009TIP3   OH275517   4.427   6.104   2.747 -0.4611 -0.3165  0.0045
18009TIP3    H175518   4.457   6.153   2.824 -0.1618  1.5313 -1.2502
18009TIP3    H275519   4.333   6.121   2.742 -0.4510 -0.2939 -0.1212
18010TIP3   OH275520   6.811   3.145   5.963  0.8624 -0.3400  0.2661
18010TIP3    H175521   6.717   3.127   5.955  1.0357 -0.1207 -3.2747
18010TIP3    H275522   6.834   3.114   6.051 -2.8646  1.3495  1.9543
18011TIP3   OH275523   0.957   1.264  15.277  0.2735 -0.1756  0.0001
18011TIP3    H175524   0.893   1.201  15.310  0.2596  0.8278  2.0256
18011TIP3    H275525   0.978   1.318  15.354  2.5250  0.3631 -0.9541
18012TIP3   OH275526   5.479   4.333  12.874  0.9992  0.4167  0.3464
18012TIP3    H175527   5.460   4.401  12.809  0.8912  0.1800  0.1312
18012TIP3    H275528   5.393   4.300  12.899  1.0836 -0.0598  0.0062
18013TIP3   OH275529   5.236   5.606   3.247  0.2165 -0.5099  0.0833
18013TIP3    H175530   5.210   5.615   3.339 -0.2896  0.9071 -0.1967
18013TIP3    H275531   5.156   5.575   3.203 -0.2026  1.0814 -0.2821
18014TIP3   OH275532   3.959   1.341   0.912  0.1232  0.1704  0.1178
18014TIP3    H175533   3.905   1.264   0.930  0.3295  0.1317  0.5768
18014TIP3    H275534   3.906   1.415   0.943  0.0420  0.1924 -0.0711
18015TIP3   OH275535   2.013   5.214  11.069 -0.1833 -0.4629  0.0017
18015TIP3    H175536   2.075   5.258  11.128 -0.0304  0.8606 -1.1242
18015TIP3    H275537   2.026   5.121  11.086 -0.4420 -0.0882  2.3547
18016TIP3   OH275538   4.974   6.663   1.371 -0.2186 -0.2802  0.6347
18016TIP3    H175539   5.068   6.667   1.391 -0.1853 -1.4867  0.7539
18016TIP3    H275540   4.940   6.749   1.397  0.7061 -0.1198  1.3371
18017TIP3   OH275541   3.136   0.105  17.141 -0.3741 -0.4995  0.8976
18017TIP3    H175542   3.146   0.192  17.179  1.3140  0.4067 -1.5643
18017TIP3    H275543   3.078   0.059  17.203 -1.0277  2.2268  2.3889
18018TIP3   OH275544   3.368   0.556  16.432  0.5550 -0.1316  0.1279
18018TIP3    H175545   3.367   0.462  16.413  0.0355 -0.1383  0.2003
18018TIP3    H275546   3.324   0.565  16.516  0.2745  0.2179 -0.0513
18019TIP3   OH275547   1.474   4.170  12.652  0.3436 -0.2498 -0.6401
18019TIP3    H175548   1.494   4.078  12.666 -0.2867 -0.1976  0.6475
18019TIP3    H275549   1.399   4.169  12.593  0.6197 -0.5427 -0.9919
18020TIP3   OH275550   2.720   3.748  13.628 -0.7651 -0.1670  0.2715
18020TIP3    H175551   2.667   3.696  13.689 -1.1092  2.0008  1.8608
18020TIP3    H275552   2.656   3.799  13.579 -0.3611 -0.4442 -0.5445
18021TIP3   OH275553   3.313   0.850  12.028  0.3395  0.2131 -0.0370
18021TIP3    H175554   3.250   0.810  11.968  0.1951  2.1125 -1.2077
18021TIP3    H275555   3.259   0.900  12.089  0.6314  0.6873 -0.1624
18022TIP3   OH275556   2.098   2.387   0.573 -0.0082 -0.0847  0.0327
18022TIP3    H175557   2.062   2.324   0.636 -1.7391  2.2971  1.5006
18022TIP3    H275558   2.026   2.405   0.513  0.2612  0.9809  0.0209
18023TIP3   OH275559   4.684   5.475   2.555 -0.1610  0.1926  0.5598
18023TIP3    H175560   4.628   5.397   2.557  0.1920 -0.0875 -0.6418
18023TIP3    H275561   4.689   5.502   2.647 -0.6892 -0.9076  0.9245
18024TIP3   OH275562   1.360   1.548  12.130  0.6705 -0.2827  0.0648
18024TIP3    H175563   1.387   1.638  12.151 -0.1352  0.2378 -1.0558
18024TIP3    H275564   1.366   1.543  12.035  1.5725 -1.7100  0.1908
18025TIP3   OH275565   3.373   1.731   0.664 -0.3943 -0.2627  0.1792
18025TIP3    H175566   3.433   1.706   0.734  0.2320  1.1590  0.1646
18025TIP3    H275567   3.289   1.694   0.691  0.0917 -0.7316  1.0936
18026TIP3   OH275568   6.072   0.937  11.562 -0.0342  0.5183  0.3599
18026TIP3    H175569   6.142   0.937  11.497 -0.5590 -0.4117 -0.2199
18026TIP3    H275570   6.098   1.004  11.625  0.7805  1.0159 -0.4850
18027TIP3   OH275571   6.741   6.191   2.607 -0.2387  0.3484 -0.0550
18027TIP3    H175572   6.687   6.113   2.595 -0.0198  0.2379 -0.3530
18027TIP3    H275573   6.810   6.182   2.541  0.7222 -0.0167  0.9889
18028TIP3   OH275574   0.791   0.134   2.928 -0.6754 -0.3181 -0.5334
18028TIP3    H175575   0.762   0.056   2.882 -1.1406 -1.2378  1.2731
18028TIP3    H275576   0.841   0.101   3.003 -0.2476  1.1260 -0.1574
18029TIP3   OH275577   6.214   5.142   1.762  0.3483 -0.2682  0.3278
18029TIP3    H175578   6.282   5.113   1.823  1.4083 -0.5736 -0.9558
18029TIP3    H275579   6.263   5.168   1.683 -0.9411  0.7193 -0.1472
18030TIP3   OH275580   5.620   1.616   0.202  0.6382  0.1999  0.5538
18030TIP3    H175581   5.588   1.564   0.129 -0.2509  0.1705  0.9594
18030TIP3    H275582   5.682   1.559   0.247  1.8108  0.5045 -0.6358
18031TIP3   OH275583   2.672   4.541  12.845 -0.2737  0.6235  0.1513
18031TIP3    H175584   2.702   4.524  12.934  1.3086  1.9919 -0.0811
18031TIP3    H275585   2.749   4.524  12.790 -0.8345  1.0865 -0.8024
18032TIP3   OH275586   5.857   5.302  14.729  0.1646 -0.4343 -0.0093
18032TIP3    H175587   5.851   5.257  14.814  1.1740  3.1430  2.0558
18032TIP3    H275588   5.766   5.312  14.701 -0.1808 -1.7738  0.5879
18033TIP3   OH275589   2.764   0.146   5.705 -0.0465  0.1025 -0.4564
18033TIP3    H175590   2.697   0.204   5.667 -0.5463  0.2817  0.6879
18033TIP3    H275591   2.840   0.156   5.647 -0.8512  0.2442 -1.5082
18034TIP3   OH275592   4.348   6.173   2.337 -0.2180  0.1410 -0.4686
18034TIP3    H175593   4.411   6.245   2.344 -0.4332  0.2072  1.1588
18034TIP3    H275594   4.373   6.125   2.258  0.3468  1.6062 -1.1905
18035TIP3   OH275595   3.006   0.655  13.282 -0.2665 -0.1199  0.1349
18035TIP3    H175596   3.032   0.600  13.355 -0.0339 -0.6792 -0.3591
18035TIP3    H275597   3.021   0.745  13.312 -1.6144 -0.2807  1.3020
18036TIP3   OH275598   6.501   3.958   5.927  0.0637  0.3366  0.3155
18036TIP3    H175599   6.487   3.951   5.833 -0.6707 -0.4436  0.4713
18036TIP3    H275600   6.533   3.872   5.954  1.1865  0.8489  0.6302
18037TIP3   OH275601   1.026   5.929  15.120 -0.2448  0.2010  0.2576
18037TIP3    H175602   1.020   5.988  15.044  3.1698  0.1227 -0.1555
18037TIP3    H275603   1.071   5.980  15.186 -1.3168 -0.4633  1.5248
18038TIP3   OH275604   2.224   5.718   6.042  0.4371  0.9188 -0.2481
18038TIP3    H175605   2.186   5.659   6.107  0.8623 -0.1385 -0.9336
18038TIP3    H275606   2.149   5.753   5.994  0.1831  0.9419  0.1659
18039TIP3   OH275607   6.288   3.465  16.183  0.0981  0.3232  0.0467
18039TIP3    H175608   6.244   3.544  16.150 -1.3476 -0.2314  0.5964
18039TIP3    H275609   6.375   3.495  16.208 -0.7099  1.9509  1.0534
18040TIP3   OH275610   5.246   5.052  16.892  0.2191 -0.1419 -0.4694
18040TIP3    H175611   5.171   5.111  16.894  1.1222  0.9888  0.6503
18040TIP3    H275612   5.224   4.981  16.952 -0.0118  0.1137 -0.2573
18041TIP3   OH275613   0.899   2.792  15.220 -0.8150  0.2679 -0.1083
18041TIP3    H175614   0.849   2.733  15.277 -0.4677  0.6826  0.6454
18041TIP3    H275615   0.959   2.735  15.172 -0.3412  0.0219  0.7639
18042TIP3   OH275616   3.041   5.801   2.564 -0.4409 -0.2682 -0.5764
18042TIP3    H175617   3.025   5.729   2.625 -0.1877 -0.7274 -1.0467
18042TIP3    H275618   2.960   5.806   2.512 -0.3390 -0.4223 -0.7519
18043TIP3   OH275619   2.423   4.870  16.725 -0.2788  0.3757 -0.5821
18043TIP3    H175620   2.511   4.848  16.755 -1.4721 -0.9015  2.1028
18043TIP3    H275621   2.437   4.930  16.651  2.8329 -0.9047 -1.0963
18044TIP3   OH275622   4.404   3.908   2.251 -0.2767  0.0436  0.7983
18044TIP3    H175623   4.464   3.982   2.242  0.7282 -0.5139  2.6286
18044TIP3    H275624   4.364   3.919   2.337 -0.8697 -0.9994  0.6731
18045TIP3   OH275625   5.684   3.702   0.410  0.6407  0.2193 -0.1392
18045TIP3    H175626   5.750   3.758   0.371 -0.5130  1.5765 -0.1765
18045TIP3    H275627   5.710   3.613   0.386  2.0067  0.7943 -0.7981
18046TIP3   OH275628   5.153   6.318   2.666  0.3326  0.0901  0.1377
18046TIP3    H175629   5.091   6.246   2.678  1.3897 -0.8360  0.1046
18046TIP3    H275630   5.108   6.394   2.702  0.8640 -1.3702  4.0660
18047TIP3   OH275631   3.637   6.568   4.625 -0.4163  0.6111 -0.3303
18047TIP3    H175632   3.643   6.474   4.637 -0.9880  0.4729 -1.1159
18047TIP3    H275633   3.570   6.596   4.688 -0.2712  0.4937 -0.1235
18048TIP3   OH275634   3.759   5.995  16.048  0.3179  0.6978 -0.0312
18048TIP3    H175635   3.815   5.988  15.970 -0.4330 -0.1895 -0.4919
18048TIP3    H275636   3.674   5.962  16.019  0.1618 -0.0773  1.3053
18049TIP3   OH275637   5.548   4.014   0.489  0.6669 -0.2197  0.0893
18049TIP3    H175638   5.476   3.951   0.486  1.3860 -1.0716  0.3673
18049TIP3    H275639   5.609   3.977   0.553  1.2462  0.6019  0.0151
18050TIP3   OH275640   5.241   1.556  12.260 -0.2223 -0.0142  0.0352
18050TIP3    H175641   5.329   1.582  12.286  0.9546 -2.6606 -1.1471
18050TIP3    H275642   5.248   1.462  12.242 -3.2400 -0.2261 -0.2739
18051TIP3   OH275643   4.587   5.578  16.745  0.0147 -0.5446  0.0903
18051TIP3    H175644   4.674   5.561  16.709  0.7672  2.5140  0.3379
18051TIP3    H275645   4.535   5.606  16.669  0.4109  1.6553  0.6022
18052TIP3   OH275646   1.905   5.609  17.068 -0.0347  0.2711 -0.2863
18052TIP3    H175647   1.823   5.646  17.101 -0.2530 -0.1923 -0.3185
18052TIP3    H275648   1.943   5.565  17.144  0.9419  1.8056  0.1382
18053TIP3   OH275649   2.094   2.544   4.144 -0.2567 -0.2385 -0.1257
18053TIP3    H175650   2.082   2.620   4.087  0.2669  0.5118  0.7389
18053TIP3    H275651   2.097   2.469   4.084  0.3777  0.5383 -1.0923
18054TIP3   OH275652   4.881   3.248   0.654 -0.2480  0.7441  0.2518
18054TIP3    H175653   4.834   3.261   0.737  0.6159  0.0317  0.8587
18054TIP3    H275654   4.973   3.256   0.677  0.0543 -0.8027 -0.3877
18055TIP3   OH275655   5.961   1.660   3.947  0.1889  0.5373 -0.2782
18055TIP3    H175656   5.989   1.603   3.875 -0.9605  0.8026 -0.9575
18055TIP3    H275657   5.901   1.606   3.998  1.6287  0.0824  0.9715
18056TIP3   OH275658   5.483   1.874  10.876 -0.2829 -0.0572 -0.5761
18056TIP3    H175659   5.533   1.839  10.801  2.0226  1.1267  0.3581
18056TIP3    H275660   5.539   1.857  10.952 -1.9294  0.0950  0.6967
18057TIP3   OH275661   3.698   3.053   1.109  0.0527  0.0393  0.4808
18057TIP3    H175662   3.774   2.995   1.108  0.3037  0.3722 -0.8810
18057TIP3    H275663   3.706   3.102   1.191  2.3947  1.4712 -0.5530
18058TIP3   OH275664   2.694   5.748  11.452  0.1665 -0.5400  0.3647
18058TIP3    H175665   2.774   5.721  11.496  1.9124  1.1029 -1.6697
18058TIP3    H275666   2.699   5.706  11.366 -0.5919  0.4500 -0.1786
18059TIP3   OH275667   3.075   1.670   0.835  0.4441 -0.3200 -0.6325
18059TIP3    H175668   3.034   1.748   0.796 -1.7244 -0.7394  0.6887
18059TIP3    H275669   3.067   1.602   0.768 -0.9864 -0.3676 -0.4284
18060TIP3   OH275670   2.990   2.974   3.122  0.1984  0.3024  0.3622
18060TIP3    H175671   2.926   2.903   3.118 -0.1446  0.6532 -0.4269
18060TIP3    H275672   2.938   3.054   3.119  0.3561  0.6413  4.3990
18061TIP3   OH275673   6.011   5.073  15.704 -0.0764  0.7503 -0.4359
18061TIP3    H175674   6.063   5.097  15.628  0.0705  0.0477 -0.5571
18061TIP3    H275675   6.071   5.022  15.759 -1.4845 -2.8360 -2.0500
18062TIP3   OH275676   1.890   5.302   6.939 -0.4261 -0.1779 -0.0725
18062TIP3    H175677   1.961   5.345   6.890 -0.3172  0.1377  0.3575
18062TIP3    H275678   1.819   5.294   6.876 -1.0141  2.0617  0.2617
18063TIP3   OH275679   3.844   5.759   3.379  0.5053 -0.3425 -0.1802
18063TIP3    H175680   3.870   5.690   3.318  2.2517  1.2273 -1.2552
18063TIP3    H275681   3.914   5.761   3.444 -0.6017 -0.9875  1.0543
18064TIP3   OH275682   4.576   6.812   3.329  0.5446 -0.2421  0.3301
18064TIP3    H175683   4.518   6.801   3.404 -1.4150 -2.4434 -1.4289
18064TIP3    H275684   4.634   6.735   3.332  0.5558 -0.2604 -0.3073
18065TIP3   OH275685   2.695   1.752   1.392  0.3997  0.2659 -0.1957
18065TIP3    H175686   2.772   1.731   1.445 -1.0077 -0.2166  1.7162
18065TIP3    H275687   2.635   1.678   1.408 -1.0166  1.3283 -0.5358
18066TIP3   OH275688   4.675   3.886   1.810  0.4485  0.3620  0.1151
18066TIP3    H175689   4.608   3.873   1.877 -1.3775  3.3325 -1.0556
18066TIP3    H275690   4.638   3.847   1.731  0.7869  0.6312 -0.1791
18067TIP3   OH275691   3.173   1.415  16.493 -0.8004  0.0263 -0.0026
18067TIP3    H175692   3.258   1.393  16.455 -0.6536  0.1213  0.2775
18067TIP3    H275693   3.157   1.347  16.557 -0.2503  0.8529  1.0201
18068TIP3   OH275694   5.925   6.535   4.582 -0.7901 -0.3942  0.3624
18068TIP3    H175695   5.970   6.451   4.589  0.0889  0.1262  1.1598
18068TIP3    H275696   5.925   6.570   4.671 -0.7014  0.6748 -0.0489
18069TIP3   OH275697   2.998   5.651   1.908  0.0756  0.3931 -0.2125
18069TIP3    H175698   2.972   5.641   2.000  2.9944  2.6765  0.9334
18069TIP3    H275699   3.007   5.561   1.876 -1.0172 -0.4357  1.7140
18070TIP3   OH275700   3.079   4.794  13.978  0.0666  0.2129 -0.6122
18070TIP3    H175701   3.125   4.720  14.017 -1.6572  0.9838  3.0911
18070TIP3    H275702   3.130   4.816  13.900  1.9443 -3.3143 -0.4647
18071TIP3   OH275703   6.094   5.196  12.104  0.1319 -0.5864  0.4121
18071TIP3    H175704   6.100   5.126  12.039 -0.4888  0.4848 -0.7961
18071TIP3    H275705   6.182   5.233  12.109  0.0553 -0.3199 -0.2073
18072TIP3   OH275706   1.886   1.340  13.553  0.1232 -0.1995  0.5353
18072TIP3    H175707   1.850   1.406  13.493 -0.7004 -1.3248 -0.2293
18072TIP3    H275708   1.975   1.370  13.571  0.3168  0.2639 -1.1048
18073TIP3   OH275709   5.015   6.762   1.960 -0.2123  0.3412 -0.3527
18073TIP3    H175710   4.985   6.679   1.923 -0.5954  0.0530  0.5903
18073TIP3    H275711   5.107   6.768   1.935 -0.2461 -0.2514 -0.6125
18074TIP3   OH275712   5.431   6.032   5.178 -0.0255 -0.4301  0.2907
18074TIP3    H175713   5.348   6.042   5.224  0.3233 -0.9896  1.0617
18074TIP3    H275714   5.454   6.120   5.149 -0.4244 -0.1277  0.8934
18075TIP3   OH275715   5.245   2.174   1.695  0.6972 -0.4990  0.4825
18075TIP3    H175716   5.224   2.102   1.636  0.6708 -0.1535  0.0720
18075TIP3    H275717   5.214   2.144   1.781  1.2400 -1.2305  0.4312
18076TIP3   OH275718   1.905   2.346  11.384  0.5386  0.3178 -0.2894
18076TIP3    H175719   1.851   2.400  11.441  0.0340  0.0648 -0.5247
18076TIP3    H275720   1.864   2.260  11.386  0.0278  0.5173 -1.6822
18077TIP3   OH275721   6.427   1.077  16.848 -0.1534 -0.2289 -0.3274
18077TIP3    H175722   6.386   0.991  16.854 -1.1502  0.1206 -1.8966
18077TIP3    H275723   6.393   1.125  16.923  1.3699 -1.5736  1.2732
18078TIP3   OH275724   0.498   0.001  13.788  0.0445 -0.6964  0.2445
18078TIP3    H175725   0.462   0.085  13.815  0.3123 -1.2875  2.5252
18078TIP3    H275726   0.592   0.017  13.781  0.0135 -0.6338 -0.0654
18079TIP3   OH275727   2.886   4.271  14.265  0.0929 -0.0650 -0.4729
18079TIP3    H175728   2.850   4.231  14.187 -0.4047 -2.3612  0.8956
18079TIP3    H275729   2.810   4.295  14.318  0.4520 -1.8147  0.8897
18080TIP3   OH275730   5.595   4.709  12.719 -0.1415  0.0262  0.4661
18080TIP3    H175731   5.650   4.765  12.664  2.4366 -1.9211  1.0267
18080TIP3    H275732   5.547   4.771  12.775  2.2066  1.7433  0.6668
18081TIP3   OH275733   3.484   1.593  16.182  0.3849  0.2732 -0.5111
18081TIP3    H175734   3.396   1.631  16.186 -0.1435 -0.9080 -0.6468
18081TIP3    H275735   3.542   1.663  16.210 -0.9622 -0.1903  3.8115
18082TIP3   OH275736   0.538   5.782  13.573  0.2589 -0.3638  0.4597
18082TIP3    H175737   0.604   5.830  13.623  1.8814 -0.6457 -1.3604
18082TIP3    H275738   0.476   5.849  13.545  1.0179  0.2476  0.2373
18083TIP3   OH275739   4.234   0.583  11.920 -0.4050 -0.1961 -0.2537
18083TIP3    H175740   4.315   0.620  11.955 -0.1795  0.3142 -1.3083
18083TIP3    H275741   4.254   0.490  11.908 -0.3689 -0.3031  0.6386
18084TIP3   OH275742   6.457   1.878  11.628 -0.9058 -0.2094 -0.1310
18084TIP3    H175743   6.423   1.958  11.586  0.2947  0.1917 -0.3620
18084TIP3    H275744   6.437   1.890  11.721  0.4551  0.9919  0.0252
18085TIP3   OH275745   1.366   3.858   3.421  0.0248  0.2903  0.2147
18085TIP3    H175746   1.317   3.786   3.462 -0.6447  1.0502  0.7741
18085TIP3    H275747   1.457   3.829   3.424 -0.2657 -0.6459  0.2069
18086TIP3   OH275748   4.773   4.729  13.656 -0.1869 -0.7544 -0.3296
18086TIP3    H175749   4.846   4.667  13.651  0.1629 -0.6059  2.4372
18086TIP3    H275750   4.815   4.815  13.652 -0.4920 -0.6587 -1.8470
18087TIP3   OH275751   5.647   4.837  11.401 -0.4548  0.3826  0.5069
18087TIP3    H175752   5.613   4.927  11.395 -1.8431 -0.1177  0.5693
18087TIP3    H275753   5.675   4.829  11.492 -1.0849  0.4972  0.7159
18088TIP3   OH275754   1.887   0.388   4.962 -0.0865  0.2596  0.1303
18088TIP3    H175755   1.959   0.406   5.022 -0.6135  1.1497  0.5008
18088TIP3    H275756   1.930   0.357   4.882  0.7191  0.8942  0.3055
18089TIP3   OH275757   6.085   3.327   3.664  0.3443  0.4656  0.2969
18089TIP3    H175758   6.101   3.273   3.742  1.8540  0.0785 -0.2594
18089TIP3    H275759   6.088   3.265   3.591  4.0211  1.4940 -0.5480
18090TIP3   OH275760   2.463   1.873   5.718 -0.0180 -0.4026 -0.0968
18090TIP3    H175761   2.462   1.887   5.623  0.9319  1.5650  0.1556
18090TIP3    H275762   2.552   1.843   5.737 -0.3593 -1.2954  0.1149
18091TIP3   OH275763   5.746   2.284   0.042 -0.3802 -0.0665  0.4045
18091TIP3    H175764   5.666   2.269   0.094 -0.4432 -0.9886  0.0521
18091TIP3    H275765   5.762   2.200  -0.001  0.9807  0.0218  0.7426
18092TIP3   OH275766   0.686   4.719  15.719 -0.1707  0.2200  0.0561
18092TIP3    H175767   0.698   4.664  15.797 -1.6820  0.5197  0.5147
18092TIP3    H275768   0.655   4.659  15.652  1.9642 -0.2073 -0.6045
18093TIP3   OH275769   3.606   3.382   3.119 -0.1212  0.0258 -0.9525
18093TIP3    H175770   3.634   3.410   3.206  2.6427 -1.6588 -1.2248
18093TIP3    H275771   3.610   3.461   3.066  2.4840  0.2316 -0.5254
18094TIP3   OH275772   5.598   6.492  13.219  0.1468 -0.3263 -0.1982
18094TIP3    H175773   5.644   6.561  13.266  0.2369  0.0229 -0.7999
18094TIP3    H275774   5.525   6.537  13.175 -0.3324 -0.7558  0.1493
18095TIP3   OH275775   1.702   3.861   5.525 -0.0731  0.5730 -0.5108
18095TIP3    H175776   1.648   3.792   5.565  0.1832 -0.4974 -1.9678
18095TIP3    H275777   1.753   3.896   5.598 -0.8393 -0.1845  0.4112
18096TIP3   OH275778   5.015   5.681   1.176  0.0366 -0.6516 -0.3920
18096TIP3    H175779   5.082   5.714   1.236  0.4380  2.0072 -2.2280
18096TIP3    H275780   4.963   5.621   1.229  2.2064 -0.6832  1.8015
18097TIP3   OH275781   1.149   4.462  14.830  0.4258 -0.1718 -0.1048
18097TIP3    H175782   1.090   4.516  14.778 -0.2845  0.1642  1.0311
18097TIP3    H275783   1.219   4.438  14.769 -0.4693  0.0745 -1.2503
18098TIP3   OH275784   1.894   1.958  11.891 -0.3489  0.0006  0.0378
18098TIP3    H175785   1.895   2.022  11.819  0.7964 -1.3077 -1.1370
18098TIP3    H275786   1.961   1.990  11.951  0.2648 -0.1103 -0.5743
18099TIP3   OH275787   0.982   1.030   4.410  0.4684 -0.4035  0.4215
18099TIP3    H175788   1.074   1.032   4.436  0.8953  1.7584 -1.1505
18099TIP3    H275789   0.978   0.967   4.338  0.7829 -0.2410  0.2633
18100TIP3   OH275790   5.148   2.310  12.042  0.8416  0.0173  0.1129
18100TIP3    H175791   5.230   2.265  12.022  0.6426 -0.9479  1.4120
18100TIP3    H275792   5.098   2.247  12.094 -0.2374  1.0347  0.3298
18101TIP3   OH275793   2.294   0.564  12.593 -0.1018 -0.0446  0.6791
18101TIP3    H175794   2.321   0.488  12.540  0.0548  0.4420  0.0602
18101TIP3    H275795   2.199   0.556  12.599 -0.1258 -0.0881  0.2976
18102TIP3   OH275796   3.060   1.481   4.494  1.1444 -0.4478 -0.0852
18102TIP3    H175797   3.060   1.576   4.480  0.7031 -0.6474 -1.5919
18102TIP3    H275798   2.971   1.461   4.522  0.2287 -0.8280 -3.0789
18103TIP3   OH275799   3.875   0.473   0.532 -0.3073 -0.2932 -0.1239
18103TIP3    H175800   3.923   0.449   0.452 -1.1459  0.7923 -0.9589
18103TIP3    H275801   3.932   0.535   0.577  0.4698 -1.4255  0.4714
18104TIP3   OH275802   5.043   2.545  16.509 -0.1635  0.3883  0.3198
18104TIP3    H175803   5.094   2.482  16.458 -0.2276 -1.4280  2.4262
18104TIP3    H275804   4.957   2.504  16.519  0.2083  0.1483  2.8419
18105TIP3   OH275805   1.140   2.993  13.916 -0.2507  0.1186 -0.2349
18105TIP3    H175806   1.064   2.952  13.876 -0.0336  0.4799 -1.0259
18105TIP3    H275807   1.154   2.944  13.997 -1.4559  0.1966  0.0196
18106TIP3   OH275808   4.575   5.219  13.200  0.7178  0.1818 -0.6047
18106TIP3    H175809   4.521   5.294  13.223 -0.4036 -0.3946 -1.3511
18106TIP3    H275810   4.610   5.188  13.284 -1.1149 -0.2119  0.0370
18107TIP3   OH275811   4.077   5.152  13.267  0.3925 -0.7960  0.4680
18107TIP3    H175812   4.140   5.179  13.199 -0.4761  1.0371  0.3566
18107TIP3    H275813   4.131   5.117  13.338  1.4084 -1.1064 -0.4458
18108TIP3   OH275814   1.029   1.680  16.063 -0.5541  0.0514 -0.2976
18108TIP3    H175815   1.051   1.642  15.979  2.5175  1.9466 -0.4259
18108TIP3    H275816   0.946   1.726  16.048  0.1691  0.7293 -2.4356
18109TIP3   OH275817   1.677   5.260  15.941 -0.0062 -0.0164 -0.3170
18109TIP3    H175818   1.656   5.331  15.880 -3.4760 -0.9288 -0.2960
18109TIP3    H275819   1.727   5.197  15.890 -0.6254  0.4618 -1.5278
18110TIP3   OH275820   6.648   1.694   5.968 -0.2161  0.1953 -0.7548
18110TIP3    H175821   6.583   1.692   6.038  1.6851 -2.0693  1.0068
18110TIP3    H275822   6.599   1.720   5.890 -2.9619 -0.2185  0.7912
18111TIP3   OH275823   2.247   3.834   4.074 -0.1382 -0.4502  0.1555
18111TIP3    H175824   2.309   3.790   4.017  1.2085  1.0018  0.4756
18111TIP3    H275825   2.264   3.927   4.062 -2.2394 -0.0142  0.2656
18112TIP3   OH275826   3.392   4.578  14.645 -0.1452  0.7515 -0.1867
18112TIP3    H175827   3.443   4.505  14.609 -1.2533 -0.3750  0.4939
18112TIP3    H275828   3.364   4.628  14.569 -0.7853 -0.4831 -0.7706
18113TIP3   OH275829   2.295   2.388   2.235 -0.5020 -0.2625 -0.1661
18113TIP3    H175830   2.295   2.293   2.218  0.7955 -0.2368 -0.4225
18113TIP3    H275831   2.324   2.427   2.152 -0.7617  0.3401  0.0250
18114TIP3   OH275832   6.627   2.754   0.195  0.3352 -0.1529 -0.5558
18114TIP3    H175833   6.596   2.818   0.131  0.7462  0.4560 -0.1505
18114TIP3    H275834   6.647   2.677   0.142  1.4706  0.6224 -1.2885
18115TIP3   OH275835   2.042   4.931   1.598  0.2011 -0.4584 -0.4680
18115TIP3    H175836   2.098   4.870   1.549  2.0252  1.1500 -0.4246
18115TIP3    H275837   2.091   5.013   1.599 -0.7900  0.1358  2.2156
18116TIP3   OH275838   5.895   1.126  13.315  0.4624 -0.0822  0.0312
18116TIP3    H175839   5.948   1.103  13.238  0.7644  1.1745 -0.1558
18116TIP3    H275840   5.805   1.110  13.288  0.7092 -1.9190  0.2332
18117TIP3   OH275841   4.533   3.185  12.203  0.2737  0.8562  0.5276
18117TIP3    H175842   4.445   3.176  12.241  0.6393 -0.6343  1.0498
18117TIP3    H275843   4.584   3.226  12.273  0.8760 -1.6303  1.6052
18118TIP3   OH275844   0.530   2.707  14.870  0.5710 -0.5155  0.2622
18118TIP3    H175845   0.450   2.705  14.817  0.5751 -2.0083  0.2785
18118TIP3    H275846   0.592   2.653  14.820  1.8913  1.3956 -0.2328
18119TIP3   OH275847   1.705   6.120   1.748 -0.1429 -0.1192  0.0734
18119TIP3    H175848   1.646   6.049   1.721 -0.4524 -0.4552  1.5768
18119TIP3    H275849   1.646   6.189   1.778  0.2253 -1.1384  3.2522
18120TIP3   OH275850   6.815   2.540   5.996 -0.2771 -0.7304  0.1794
18120TIP3    H175851   6.831   2.617   6.050  0.0360  0.4162 -1.5173
18120TIP3    H275852   6.807   2.468   6.059  3.3194  0.0066  1.5853
18121TIP3   OH275853   4.647   3.156   1.300 -0.2937 -0.8672 -0.7293
18121TIP3    H175854   4.714   3.148   1.232  1.0537 -0.7567  0.5769
18121TIP3    H275855   4.581   3.214   1.261  2.3532  2.4606 -0.5352
18122TIP3   OH275856   5.509   5.425   1.487 -0.2993  0.0793  0.3583
18122TIP3    H175857   5.604   5.410   1.487 -0.2724  0.2408  1.1368
18122TIP3    H275858   5.471   5.337   1.480 -0.0972 -0.0303  0.6174
18123TIP3   OH275859   4.386   4.109   3.003 -0.2856  0.1434  0.3914
18123TIP3    H175860   4.413   4.047   3.070 -3.2547 -1.4368  0.2463
18123TIP3    H275861   4.313   4.065   2.958  0.3580  1.9574 -2.5865
18124TIP3   OH275862   4.837   4.994  13.660  0.1465 -0.2372 -0.0243
18124TIP3    H175863   4.865   5.057  13.727  0.5675  0.1742 -0.5910
18124TIP3    H275864   4.910   4.989  13.599 -1.7511  2.3545 -2.6290
18125TIP3   OH275865   5.069   3.510   1.892  0.0889 -0.0505 -0.4852
18125TIP3    H175866   5.133   3.581   1.893 -0.2296  0.2333  0.0941
18125TIP3    H275867   5.081   3.468   1.806  0.4151  0.5745 -0.7512
18126TIP3   OH275868   4.614   0.149   0.002  0.2493 -0.7935  0.3495
18126TIP3    H175869   4.577   0.158   0.089  1.1144  2.9649  0.4482
18126TIP3    H275870   4.643   0.058  -0.004  0.5457 -1.0145  4.1209
18127TIP3   OH275871   0.959   2.653  14.626 -0.3949  0.1965  0.0249
18127TIP3    H175872   1.023   2.643  14.555 -0.1731  0.9102  0.1260
18127TIP3    H275873   1.000   2.611  14.701  0.1660  1.0977  0.2216
18128TIP3   OH275874   5.743   4.119  17.048 -0.5433  0.1304  0.6074
18128TIP3    H175875   5.661   4.101  17.095 -1.2804  0.3978 -0.5623
18128TIP3    H275876   5.804   4.051  17.080 -1.5928 -0.8704  0.5252
18129TIP3   OH275877   6.409   5.931  11.105 -0.2433  0.0900  0.0012
18129TIP3    H175878   6.349   5.859  11.086 -2.1226  1.4345  0.6628
18129TIP3    H275879   6.431   5.967  11.019 -1.8738  0.7440 -0.1612
18130TIP3   OH275880   0.149   2.027  15.251  0.4404  0.4745  0.7200
18130TIP3    H175881   0.086   1.983  15.307 -0.2100  1.8888  1.1134
18130TIP3    H275882   0.110   2.113  15.233  0.7105  0.1141 -1.7551
18131TIP3   OH275883   2.174   0.048   5.161 -0.0836 -0.0792  0.1401
18131TIP3    H175884   2.203   0.010   5.243 -0.8028  0.0983  0.4853
18131TIP3    H275885   2.079   0.055   5.170 -0.2613 -0.7857 -1.0119
18132TIP3   OH275886   2.661   4.897  15.269  0.0353  0.3267 -0.0366
18132TIP3    H175887   2.754   4.880  15.254 -0.4166 -1.6034 -0.7087
18132TIP3    H275888   2.649   4.883  15.363  0.5226  1.1503  0.1590
18133TIP3   OH275889   6.160   0.013   4.039  0.5063  0.0103 -0.0044
18133TIP3    H175890   6.085   0.062   4.074 -0.4094 -1.7122  0.5295
18133TIP3    H275891   6.177   0.052   3.954 -1.0241  0.4269 -0.1363
18134TIP3   OH275892   2.040   6.464  13.660  0.0095 -0.3677 -0.3160
18134TIP3    H175893   2.127   6.424  13.652 -0.7057 -1.7346 -1.5741
18134TIP3    H275894   2.005   6.461  13.571 -1.9754 -1.3169  0.4756
18135TIP3   OH275895   4.227   3.838  12.173  0.1011  0.1029  0.2509
18135TIP3    H175896   4.321   3.855  12.176  0.4220 -1.0593 -1.8940
18135TIP3    H275897   4.215   3.782  12.096 -2.5739  1.7168 -0.5880
18136TIP3   OH275898   6.721   4.499  13.181 -0.7512  0.1166 -0.2051
18136TIP3    H175899   6.787   4.446  13.137 -1.6571 -0.9585 -0.2870
18136TIP3    H275900   6.744   4.494  13.274 -2.0533 -2.1659  0.0131
18137TIP3   OH275901   5.204   6.590   1.498  0.0188 -0.3537  0.2383
18137TIP3    H175902   5.285   6.625   1.462 -1.1428  1.1273 -0.9987
18137TIP3    H275903   5.207   6.496   1.477  1.1510 -0.2071 -0.2673
18138TIP3   OH275904   5.206   4.028  12.553 -0.0474 -0.4902  0.8333
18138TIP3    H175905   5.255   4.046  12.473 -1.0127 -0.9007  0.1318
18138TIP3    H275906   5.273   4.006  12.618  0.6355 -2.6920 -0.5405
18139TIP3   OH275907   4.209   5.053  13.481 -0.0715  0.3185 -0.0562
18139TIP3    H175908   4.224   4.968  13.440  0.3567 -0.6076  1.9303
18139TIP3    H275909   4.270   5.055  13.554 -1.1733  1.6691  0.8518
18140TIP3   OH275910   6.064   3.843   2.672  0.4996 -0.4996 -0.1838
18140TIP3    H175911   6.069   3.815   2.581  2.2416  0.0611 -0.2740
18140TIP3    H275912   6.154   3.836   2.705 -0.0574 -0.4410  1.4113
18141TIP3   OH275913   0.510   6.498  12.163  0.2905 -0.0357  0.5459
18141TIP3    H175914   0.579   6.469  12.223 -0.5048 -0.8375  1.0926
18141TIP3    H275915   0.488   6.586  12.192  0.8326  0.0798  0.6018
18142TIP3   OH275916   0.582   5.959  11.589  0.2467  0.4148  0.3315
18142TIP3    H175917   0.496   5.988  11.556  0.6298  1.7075  0.4488
18142TIP3    H275918   0.588   5.868  11.561 -1.5861  0.0122  1.1509
18143TIP3   OH275919   1.312   5.933   3.745  0.1030 -0.1189 -0.3156
18143TIP3    H175920   1.330   5.938   3.651  1.0513  0.8642 -0.0892
18143TIP3    H275921   1.225   5.973   3.755  0.2874  0.3766 -0.6911
18144TIP3   OH275922   1.793   0.225  16.999  0.1002  0.1999 -0.1547
18144TIP3    H175923   1.705   0.225  16.962 -0.1968 -0.5599  0.5286
18144TIP3    H275924   1.806   0.135  17.028  0.3624  0.7478  1.4881
18145TIP3   OH275925   1.132   6.375  12.040 -0.3663 -0.3350  0.3904
18145TIP3    H175926   1.111   6.369  11.946 -0.3404 -1.5956  0.4585
18145TIP3    H275927   1.221   6.341  12.046 -0.3071 -0.0978  0.8616
18146TIP3   OH275928   2.369   1.805  12.470  0.0563 -0.3180  0.6107
18146TIP3    H175929   2.302   1.834  12.532  0.9851  1.3235  0.8469
18146TIP3    H275930   2.373   1.710  12.482 -1.6363 -0.3365  1.1761
18147TIP3   OH275931   2.111   2.967   5.036  0.8125  0.0268 -0.0441
18147TIP3    H175932   2.057   2.892   5.058  1.3600 -0.2671  0.2879
18147TIP3    H275933   2.116   3.019   5.116  0.6089  0.3089 -0.2132
18148TIP3   OH275934   0.465   1.568   4.506  0.0234 -0.4506  0.0977
18148TIP3    H175935   0.392   1.585   4.447  0.7485 -1.9251 -1.2588
18148TIP3    H275936   0.425   1.523   4.581 -0.5235 -0.8737 -0.4392
18149TIP3   OH275937   0.219   3.479   2.264  0.0666  0.3099  0.0415
18149TIP3    H175938   0.212   3.424   2.342  3.0628  0.6052  0.5687
18149TIP3    H275939   0.263   3.559   2.294 -0.1438  1.0702 -1.6242
18150TIP3   OH275940   2.687   1.351  14.625 -0.0774  0.0031 -0.0211
18150TIP3    H175941   2.625   1.293  14.580  0.8663 -2.6822  1.9915
18150TIP3    H275942   2.709   1.305  14.706  1.1281  2.9783  1.4370
18151TIP3   OH275943   5.180   6.166  16.697 -0.2217  0.1400 -0.6595
18151TIP3    H175944   5.094   6.189  16.732  0.7049  0.6304  1.3378
18151TIP3    H275945   5.226   6.126  16.771  1.7581  1.1085 -1.3449
18152TIP3   OH275946   2.947   5.362  13.890  0.8798  0.3668  0.4109
18152TIP3    H175947   2.950   5.267  13.877  0.6349  0.2321  1.2515
18152TIP3    H275948   2.992   5.376  13.973  1.1505  1.0168  0.1594
18153TIP3   OH275949   3.115   5.391  14.400  0.1327  0.1490  0.1919
18153TIP3    H175950   3.036   5.438  14.428 -0.0421  0.1448 -0.2855
18153TIP3    H275951   3.159   5.366  14.481 -1.3807 -1.5891  0.5257
18154TIP3   OH275952   2.334   1.003  16.348  0.0067  0.0575  0.1221
18154TIP3    H175953   2.418   0.958  16.347  0.7498  1.4427 -0.5527
18154TIP3    H275954   2.324   1.033  16.438  1.3233  1.8534 -0.2941
18155TIP3   OH275955   0.871   6.004  13.985 -0.5113  0.6282 -0.0414
18155TIP3    H175956   0.858   6.094  14.015  0.3637  0.9359 -0.5687
18155TIP3    H275957   0.941   6.010  13.921  0.9593 -0.7116  1.3774
18156TIP3   OH275958   2.480   4.649  13.156  0.1907 -0.1010  0.4894
18156TIP3    H175959   2.506   4.561  13.184  0.8731 -0.1270 -0.2066
18156TIP3    H275960   2.434   4.635  13.073 -0.5473  0.1155  0.8516
18157TIP3   OH275961   3.113   6.633  17.084 -0.0797  0.5625  0.0710
18157TIP3    H175962   3.124   6.628  17.179  0.8262 -0.5826 -0.0915
18157TIP3    H275963   3.148   6.719  17.061  1.3157  0.1270  0.5465
18158TIP3   OH275964   6.024   0.635   5.155 -0.6115  0.8851  0.1848
18158TIP3    H175965   6.019   0.610   5.247 -0.2041  0.4469  0.0921
18158TIP3    H275966   5.933   0.654   5.130 -0.9476 -0.5340  0.2544
18159TIP3   OH275967   0.848   3.567   1.173  0.3995  0.4672  0.1717
18159TIP3    H175968   0.825   3.478   1.147  0.8823  0.2221  0.5634
18159TIP3    H275969   0.843   3.566   1.269  1.2299  0.6257  0.2209
18160TIP3   OH275970   1.995   5.518   2.450  0.2757 -0.3396 -0.4782
18160TIP3    H175971   1.964   5.563   2.529 -0.2900  0.1802 -0.9943
18160TIP3    H275972   2.035   5.437   2.483 -0.6736 -0.5147  0.2829
18161TIP3   OH275973   5.885   0.447  12.261  0.0793 -0.3007  0.6606
18161TIP3    H175974   5.819   0.378  12.255 -0.3507  0.1717 -0.1323
18161TIP3    H275975   5.836   0.524  12.287  0.4302 -0.1037  0.7370
18162TIP3   OH275976   5.439   0.885  11.071  0.5842  0.2080 -0.3486
18162TIP3    H175977   5.505   0.831  11.027  1.6010  0.3771  0.9332
18162TIP3    H275978   5.422   0.839  11.154  0.0546  0.8523 -0.0945
18163TIP3   OH275979   3.119   1.696   1.337  0.1705 -0.7842 -0.1038
18163TIP3    H175980   3.204   1.652   1.344  0.0392 -0.8744  1.0280
18163TIP3    H275981   3.118   1.732   1.249  1.3989 -0.7781 -0.1254
18164TIP3   OH275982   0.105   0.748  13.835 -0.4915  0.0882 -0.5333
18164TIP3    H175983   0.026   0.712  13.794 -0.8321 -1.0855  1.0745
18164TIP3    H275984   0.177   0.716  13.781 -0.7991 -3.0707  0.8045
18165TIP3   OH275985   6.660   1.386  12.927  0.1254 -0.3321 -0.0081
18165TIP3    H175986   6.642   1.466  12.878 -2.9640 -1.8643 -1.4868
18165TIP3    H275987   6.677   1.416  13.016 -1.8014  1.9415 -0.3622
18166TIP3   OH275988   0.353   2.706  13.792 -0.0105  0.1182 -0.5523
18166TIP3    H175989   0.316   2.678  13.876  0.3370 -1.5995 -0.9513
18166TIP3    H275990   0.418   2.772  13.815 -1.0627  0.8336  0.4019
18167TIP3   OH275991   1.671   3.497   5.623  0.1986  0.3520  0.4784
18167TIP3    H175992   1.586   3.542   5.621 -0.2365 -0.3627  2.3579
18167TIP3    H275993   1.655   3.414   5.578 -1.0967 -1.3773  3.9055
18168TIP3   OH275994   0.065   2.415  11.482 -0.3380 -0.2579  0.0577
18168TIP3    H175995  -0.002   2.356  11.447 -0.7399  0.8537 -1.0832
18168TIP3    H275996   0.146   2.365  11.478 -1.0272 -1.5217  1.1836
18169TIP3   OH275997   0.842   1.728  16.557  0.1742 -0.1014  0.4763
18169TIP3    H175998   0.931   1.694  16.559  0.0295 -0.3902  2.7353
18169TIP3    H275999   0.792   1.667  16.612 -0.8135  1.7666  1.6755
18170TIP3   OH276000   2.282   1.264   0.666  0.1644 -0.2612  0.0623
18170TIP3    H176001   2.242   1.301   0.745 -0.9464  2.4408 -1.7196
18170TIP3    H276002   2.370   1.304   0.663  0.4889 -0.9469  0.3185
18171TIP3   OH276003   1.453   2.016   5.480  0.1291  0.7015 -0.2030
18171TIP3    H176004   1.483   2.085   5.539  0.0847 -0.8976  1.7499
18171TIP3    H276005   1.358   2.018   5.486  0.0503  1.6473 -1.5565
18172TIP3   OH276006   6.526   3.164   3.389  0.4361 -0.6848 -0.1744
18172TIP3    H176007   6.563   3.245   3.425 -0.8472 -0.0210 -0.3012
18172TIP3    H276008   6.511   3.109   3.465 -2.2292  0.7013  0.3784
18173TIP3   OH276009   1.090   1.641  17.147  0.2867  0.1196 -0.1633
18173TIP3    H176010   1.070   1.684  17.064 -0.5022 -1.9765 -1.0865
18173TIP3    H276011   1.074   1.549  17.131  0.7757 -0.4019  2.1426
18174TIP3   OH276012   2.252   0.730   4.400  0.8457 -0.1173  0.6922
18174TIP3    H176013   2.301   0.649   4.409  2.3671  0.6501 -0.3621
18174TIP3    H276014   2.251   0.768   4.488 -1.0037 -1.8822  1.4656
18175TIP3   OH276015   2.092   0.103   6.088 -0.2218 -0.0441 -0.0011
18175TIP3    H176016   2.078   0.008   6.089 -1.9497  0.2027  0.5372
18175TIP3    H276017   2.149   0.118   6.164  0.3223 -0.6802 -0.2716
18176TIP3   OH276018   3.220   4.833   3.186  0.9700  0.0277 -0.2299
18176TIP3    H176019   3.261   4.851   3.270 -1.9034  2.2827  0.7842
18176TIP3    H276020   3.252   4.903   3.129 -0.3787  1.0302  0.2106
18177TIP3   OH276021   5.740   1.315   5.895  0.7055  0.1526 -0.1072
18177TIP3    H176022   5.679   1.302   5.968 -0.3318 -0.3687 -1.0446
18177TIP3    H276023   5.749   1.410   5.888 -0.7945  0.2750 -0.5842
18178TIP3   OH276024   3.933   5.502   1.343  0.4981  0.4523 -0.0228
18178TIP3    H176025   3.933   5.536   1.433  0.2350  1.5704 -0.4327
18178TIP3    H276026   3.843   5.475   1.328  0.6691 -0.2832  0.2423
18179TIP3   OH276027   1.742   6.646  15.870  0.3104 -0.0248  0.3212
18179TIP3    H176028   1.781   6.731  15.849 -0.2058  0.6298  1.9458
18179TIP3    H276029   1.787   6.584  15.813  0.9760  1.2786 -0.5892
18180TIP3   OH276030   0.120   4.405   4.256  0.2782  0.5058  0.6760
18180TIP3    H176031   0.174   4.481   4.277 -0.2321  0.7302  1.2054
18180TIP3    H276032   0.068   4.390   4.335 -1.8660  1.5096 -0.4915
18181TIP3   OH276033   2.045   2.607   1.589 -0.0946  0.0242 -0.2583
18181TIP3    H176034   2.069   2.676   1.651  2.8870 -1.0532 -0.1264
18181TIP3    H276035   2.019   2.534   1.644 -0.9406  0.2461 -0.3583
18182TIP3   OH276036   5.302   5.071   5.691  0.0321  0.0537 -0.0390
18182TIP3    H176037   5.223   5.023   5.667 -1.2991  2.2369 -0.2109
18182TIP3    H276038   5.372   5.029   5.641 -1.2190 -1.2034 -0.7654
18183TIP3   OH276039   2.004   2.945   1.025 -0.2635 -0.0184 -0.1362
18183TIP3    H176040   2.045   2.957   1.111 -0.2503  0.4536 -0.2087
18183TIP3    H276041   2.040   2.862   0.993 -1.2500 -0.8613  0.8706
18184TIP3   OH276042   2.230   3.212   0.285  0.4900 -0.1118 -0.6475
18184TIP3    H176043   2.284   3.236   0.209  1.6420  1.9870  0.7955
18184TIP3    H276044   2.184   3.293   0.308  2.1059 -0.0074  2.4600
18185TIP3   OH276045   5.112   3.294   5.312 -0.1124  0.2401  0.1674
18185TIP3    H176046   5.173   3.252   5.373 -0.5909 -0.2377  0.3158
18185TIP3    H276047   5.162   3.367   5.275  1.4915 -1.8506 -1.8760
18186TIP3   OH276048   0.076   5.337   6.282 -0.0282 -0.0916 -0.1947
18186TIP3    H176049  -0.009   5.321   6.322 -1.0423  0.8276 -1.8845
18186TIP3    H276050   0.110   5.415   6.325  0.1688 -0.7222  0.7934
18187TIP3   OH276051   0.006   2.780   0.857 -0.1200  0.0099  0.3205
18187TIP3    H176052   0.028   2.686   0.858 -2.1752 -0.5015 -0.5913
18187TIP3    H276053  -0.070   2.788   0.914 -1.3292  0.7433 -1.3312
18188TIP3   OH276054   3.525   1.893  11.484  0.2148 -0.1900  0.0078
18188TIP3    H176055   3.574   1.820  11.446 -0.9613 -0.2866 -1.3131
18188TIP3    H276056   3.505   1.950  11.411 -1.9397 -0.3069  0.4627
18189TIP3   OH276057   0.509   3.550   2.243  0.4662  0.5338  0.0463
18189TIP3    H176058   0.496   3.621   2.180 -1.4140  0.1668 -0.0238
18189TIP3    H276059   0.595   3.566   2.281 -0.1081  3.1089  0.3647
18190TIP3   OH276060   0.526   3.846  14.118 -0.3344 -0.2418  0.4368
18190TIP3    H176061   0.535   3.887  14.203 -0.3075 -0.2669  0.4462
18190TIP3    H276062   0.478   3.910  14.065  1.5889  0.7108 -0.1942
18191TIP3   OH276063   1.292   6.417  13.381  0.1917 -0.4012 -0.2319
18191TIP3    H176064   1.346   6.419  13.301 -0.0009  3.1025 -0.3479
18191TIP3    H276065   1.305   6.503  13.421  0.2005 -2.0557  3.5292
18192TIP3   OH276066   5.686   5.812  13.295  0.9226 -0.2238 -0.7496
18192TIP3    H176067   5.735   5.743  13.250  2.6483  0.8899 -0.6177
18192TIP3    H276068   5.747   5.885  13.301  0.3482  0.0590  2.3991
18193TIP3   OH276069   6.608   6.162   3.312  0.3304  0.3389  0.1881
18193TIP3    H176070   6.663   6.108   3.368 -1.1683 -1.9068 -0.4011
18193TIP3    H276071   6.669   6.210   3.257  1.7371 -0.7722  0.7490
18194TIP3   OH276072   3.617   3.108  11.224 -0.1406  0.4388 -0.1154
18194TIP3    H176073   3.612   3.088  11.131 -0.3073  1.3209 -0.2992
18194TIP3    H276074   3.602   3.203  11.230 -2.4640  0.0472  1.0005
18195TIP3   OH276075   6.139   4.837  14.315  0.1961 -0.6444  0.5184
18195TIP3    H176076   6.181   4.912  14.273  0.2172 -0.9284  0.0208
18195TIP3    H276077   6.185   4.827  14.398  0.5226 -0.4038  0.3698
18196TIP3   OH276078   3.819   2.253  16.286  0.3960  0.2080  0.1181
18196TIP3    H176079   3.826   2.175  16.341  2.0589 -0.3006 -0.7671
18196TIP3    H276080   3.769   2.315  16.338 -0.8787 -1.4088  0.8818
18197TIP3   OH276081   0.415   2.002  11.793  0.1533  0.2830 -0.2270
18197TIP3    H176082   0.423   1.907  11.803 -1.6143  0.1393 -0.0164
18197TIP3    H276083   0.326   2.022  11.823  0.9874  2.1911  1.0806
18198TIP3   OH276084   1.974   1.405  12.108 -0.2387 -0.1951 -0.3246
18198TIP3    H176085   1.992   1.359  12.027 -0.6725  0.2134 -0.6551
18198TIP3    H276086   1.902   1.356  12.148 -2.3544  1.5731 -1.8473
18199TIP3   OH276087   4.294   2.961   5.676 -0.1024 -0.0479  0.5724
18199TIP3    H176088   4.352   2.960   5.752  0.2383 -0.3305  0.3093
18199TIP3    H276089   4.275   2.869   5.657 -2.3147  0.1016  1.9162
18200TIP3   OH276090   3.297   5.612   6.767  0.0033 -0.2146  0.5587
18200TIP3    H176091   3.319   5.702   6.789 -0.8673  0.1448 -0.0276
18200TIP3    H276092   3.365   5.585   6.705  0.9269 -0.3481  1.6288
18201TIP3   OH276093   2.139   1.653   1.347 -0.5679  0.5041  0.1079
18201TIP3    H176094   2.137   1.747   1.360 -0.8623  0.5464 -0.2511
18201TIP3    H276095   2.118   1.640   1.254 -1.9286  0.0092  0.4761
18202TIP3   OH276096   0.663   5.626  15.247  0.2304 -0.3667  0.0811
18202TIP3    H176097   0.695   5.708  15.208  0.0695 -0.4344 -0.1962
18202TIP3    H276098   0.591   5.652  15.304 -0.1986 -0.3748 -0.4515
18203TIP3   OH276099   6.437   2.399   2.091  0.1434  0.3813 -0.0283
18203TIP3    H176100   6.494   2.429   2.021  0.0707  0.2359 -0.1511
18203TIP3    H276101   6.377   2.337   2.049  0.3444  0.0022  0.2366
18204TIP3   OH276102   2.263   5.227  13.185  0.5874  0.7763 -0.2129
18204TIP3    H176103   2.345   5.219  13.235  1.8577  0.4286 -2.2712
18204TIP3    H276104   2.274   5.307  13.133 -0.0738  0.3437 -1.0315
18205TIP3   OH276105   5.031   5.699   2.693 -0.7599 -0.3021  0.3993
18205TIP3    H176106   4.950   5.732   2.652 -0.9395  0.3854  1.2856
18205TIP3    H276107   5.032   5.606   2.673 -0.8345  0.0230 -1.1854
18206TIP3   OH276108   0.416   6.148  14.029  0.0165 -0.1309  0.4848
18206TIP3    H176109   0.400   6.121  14.120  0.8235  1.9397  1.2912
18206TIP3    H276110   0.328   6.162  13.993 -0.2850  0.4481  1.4089
18207TIP3   OH276111   0.638   4.791  14.322 -0.0566 -0.5430  0.2879
18207TIP3    H176112   0.641   4.719  14.385  2.3527 -1.4270 -0.7772
18207TIP3    H276113   0.571   4.764  14.259  0.2896 -1.4844  0.3210
18208TIP3   OH276114   0.407   1.864  13.955  0.4594 -0.4723  0.0640
18208TIP3    H176115   0.339   1.931  13.948  0.2177 -0.6345  0.8537
18208TIP3    H276116   0.481   1.909  13.995  0.5625 -0.4853 -0.1112
18209TIP3   OH276117   2.493   1.887   4.148 -0.2782 -0.5889 -0.1535
18209TIP3    H176118   2.452   1.804   4.172 -1.7891  0.5062  1.1206
18209TIP3    H276119   2.527   1.922   4.230  2.3716 -0.9608 -1.0142
18210TIP3   OH276120   5.125   0.222   2.278 -0.1522  0.1341 -0.1839
18210TIP3    H176121   5.185   0.271   2.222  0.4063 -0.2612  0.0586
18210TIP3    H276122   5.150   0.130   2.264  0.8719  0.0909  1.6915
18211TIP3   OH276123   1.531   6.286   2.863 -0.2957  0.2294  0.2798
18211TIP3    H176124   1.445   6.302   2.900  0.5145 -0.5428  2.5893
18211TIP3    H276125   1.576   6.371   2.868 -0.6079  0.4215 -0.1241
18212TIP3   OH276126   1.106   6.313  16.625  0.4499  0.5005 -0.2158
18212TIP3    H176127   1.171   6.345  16.688  0.8103  0.7708 -0.7290
18212TIP3    H276128   1.114   6.218  16.628 -0.0477  0.4810  0.6966
18213TIP3   OH276129   3.492   0.786   1.921 -0.2792  0.7706  0.3786
18213TIP3    H176130   3.462   0.822   2.005  2.0750 -1.2348  2.1927
18213TIP3    H276131   3.449   0.701   1.915  0.5304  0.3710  0.1822
18214TIP3   OH276132   3.159   1.973  15.609  0.3708 -0.5828 -0.7957
18214TIP3    H176133   3.191   1.893  15.651  1.9665  0.5503  0.2068
18214TIP3    H276134   3.238   2.020  15.583 -0.5571  0.4287 -1.8573
18215TIP3   OH276135   6.804   0.465   1.736  0.4294  0.3108  0.5955
18215TIP3    H176136   6.718   0.424   1.746  0.3413  0.6389  1.1700
18215TIP3    H276137   6.810   0.484   1.642  0.3281 -0.7068  0.3794
18216TIP3   OH276138   6.172   3.534   2.819 -0.5263 -0.3098 -0.3909
18216TIP3    H176139   6.254   3.546   2.770  1.0956 -0.2609  2.2788
18216TIP3    H276140   6.170   3.440   2.839 -1.5219 -0.4441 -1.0559
18217TIP3   OH276141   4.671   6.429  14.184 -0.3263 -0.7645 -0.3462
18217TIP3    H176142   4.752   6.478  14.201 -0.6523 -0.0146 -0.8904
18217TIP3    H276143   4.601   6.491  14.206 -0.7516 -1.5519  0.5080
18218TIP3   OH276144   5.832   3.030  13.627  0.0204  0.5214  0.6514
18218TIP3    H176145   5.872   3.038  13.713 -0.6356 -0.5213  1.0530
18218TIP3    H276146   5.751   2.983  13.642  0.6228 -1.0119 -0.7299
18219TIP3   OH276147   0.946   0.636  17.067 -0.0516 -0.2799  0.3094
18219TIP3    H176148   0.908   0.721  17.089 -0.5869 -0.2240 -0.8267
18219TIP3    H276149   0.905   0.611  16.985 -0.5824 -2.0795  1.0882
18220TIP3   OH276150   6.460   0.175  12.766 -0.4924 -0.1346 -0.2379
18220TIP3    H176151   6.534   0.221  12.726 -0.5613  0.0221 -0.1864
18220TIP3    H276152   6.408   0.245  12.807  0.1689 -0.3951  1.0891
18221TIP3   OH276153   4.339   0.641   5.036  0.0801 -0.4133  0.2639
18221TIP3    H176154   4.295   0.640   4.951 -0.7712 -1.7235  0.6866
18221TIP3    H276155   4.291   0.707   5.086  1.4267  1.3042 -0.6783
18222TIP3   OH276156   2.713   2.828   0.845 -0.0603  0.3878  0.2176
18222TIP3    H176157   2.730   2.861   0.757  1.5339 -1.6511 -0.2926
18222TIP3    H276158   2.715   2.905   0.901 -0.6426  1.6550 -1.4644
18223TIP3   OH276159   2.495   4.218   1.227  0.3472 -0.1018 -0.0482
18223TIP3    H176160   2.458   4.290   1.175  0.4936  0.3182  0.4313
18223TIP3    H276161   2.458   4.139   1.187 -0.6686  0.2925  0.1040
18224TIP3   OH276162   6.464   0.428   4.457  0.4030  0.4659 -0.4764
18224TIP3    H176163   6.492   0.371   4.528  1.5589  0.9834 -0.5171
18224TIP3    H276164   6.529   0.415   4.388 -0.4492  0.3186 -1.2738
18225TIP3   OH276165   6.643   5.822   2.092 -0.4311 -0.1324  0.2345
18225TIP3    H176166   6.568   5.869   2.057  1.4825  1.8369 -1.3683
18225TIP3    H276167   6.663   5.867   2.175 -0.7543 -0.3904  0.4539
18226TIP3   OH276168   1.792   0.592  15.059 -0.3979  0.1740 -0.4094
18226TIP3    H176169   1.833   0.538  14.992  1.3101  1.9374 -0.8303
18226TIP3    H276170   1.813   0.548  15.142 -3.3617 -2.5635 -1.0283
18227TIP3   OH276171   5.662   3.867   6.394 -0.3112  0.2169  0.1664
18227TIP3    H176172   5.755   3.887   6.400 -0.5194  0.9094  1.1627
18227TIP3    H276173   5.618   3.949   6.416 -1.1880  0.8258 -3.5672
18228TIP3   OH276174   5.135   0.659  16.055  0.1301 -0.2056 -0.2965
18228TIP3    H176175   5.201   0.681  16.121  1.4370 -1.4666 -1.1341
18228TIP3    H276176   5.054   0.648  16.104  0.4011  1.8948  0.6960
18229TIP3   OH276177   6.607   3.338  12.619 -0.4368  0.1905  0.4706
18229TIP3    H176178   6.616   3.350  12.524 -1.1491  1.2119  0.5159
18229TIP3    H276179   6.543   3.268  12.629 -1.7920  1.3703  0.1923
18230TIP3   OH276180   5.633   2.191  13.324  0.1312  0.1172  0.4759
18230TIP3    H176181   5.619   2.273  13.371 -2.5161  1.0026 -1.6999
18230TIP3    H276182   5.644   2.217  13.233  1.3696 -1.8241  0.0309
18231TIP3   OH276183   5.789   3.665  10.565 -0.5283 -0.3240 -0.2677
18231TIP3    H176184   5.878   3.633  10.546 -0.1395  0.4137  0.3150
18231TIP3    H276185   5.767   3.626  10.649  0.2547  1.5339  0.8313
18232TIP3   OH276186   6.175   2.668   4.238 -0.0962  0.2595  0.1278
18232TIP3    H176187   6.183   2.589   4.185 -0.2301  1.6514 -2.0680
18232TIP3    H276188   6.090   2.705   4.213 -1.9835 -1.0483  4.2271
18233TIP3   OH276189   1.864   0.878   1.920  0.4309 -0.4807 -0.3118
18233TIP3    H176190   1.824   0.796   1.892  0.1987 -0.4987  0.0718
18233TIP3    H276191   1.955   0.871   1.891  0.3809 -0.8201 -0.3876
18234TIP3   OH276192   4.092   3.284   5.948  0.5409  0.0101  0.0106
18234TIP3    H176193   4.151   3.269   5.874 -0.3998 -0.1675 -0.7152
18234TIP3    H276194   4.084   3.199   5.991  0.9289  0.0684  0.1989
18235TIP3   OH276195   0.850   4.903  14.639  0.7060 -0.5666 -0.2518
18235TIP3    H176196   0.819   4.821  14.677 -0.5264 -0.1252 -0.2767
18235TIP3    H276197   0.792   4.918  14.564  0.2483  0.8302  0.3582
18236TIP3   OH276198   2.134   5.916   5.670  0.1609  0.0594 -0.6671
18236TIP3    H176199   2.102   5.853   5.735  0.0837  1.2315  0.4563
18236TIP3    H276200   2.058   5.970   5.651  0.4143  0.2602 -1.0986
18237TIP3   OH276201   0.378   0.459  17.196 -0.1596 -0.2064  0.1478
18237TIP3    H176202   0.393   0.385  17.137 -2.6044 -0.7780  0.2199
18237TIP3    H276203   0.415   0.534  17.149 -1.2262 -0.8142 -1.7091
18238TIP3   OH276204   2.082   5.322   3.672  0.3528  0.3287  0.1311
18238TIP3    H176205   2.152   5.314   3.608  0.5511 -0.7077  0.4694
18238TIP3    H276206   2.013   5.371   3.626  1.4603  1.7307 -0.0440
18239TIP3   OH276207   6.685   4.336   5.476  0.2337 -0.8913 -0.3891
18239TIP3    H176208   6.596   4.337   5.511  0.3150  0.9654 -0.1667
18239TIP3    H276209   6.741   4.326   5.553  0.2911  0.0915 -0.2968
18240TIP3   OH276210   5.503   4.333  14.116 -0.3012  0.2911 -0.4211
18240TIP3    H176211   5.425   4.341  14.171  0.0393  0.6825  0.0080
18240TIP3    H276212   5.551   4.259  14.153  0.5775  1.3710  0.6221
18241TIP3   OH276213   3.478   1.439   4.921  0.6864 -0.3950 -0.1257
18241TIP3    H176214   3.517   1.423   5.007 -0.9412  0.0348  0.7111
18241TIP3    H276215   3.391   1.474   4.940  0.3232 -0.2481 -1.9533
18242TIP3   OH276216   0.830   0.893   3.980 -0.1946  0.7718 -0.5679
18242TIP3    H176217   0.836   0.986   4.002  1.9373 -0.0666  2.7844
18242TIP3    H276218   0.917   0.871   3.947 -0.1378 -0.4113  0.3430
18243TIP3   OH276219   4.359   6.063  15.023 -0.2301 -0.3833 -0.1506
18243TIP3    H176220   4.305   6.000  14.976  0.0639 -0.9644  0.2736
18243TIP3    H276221   4.297   6.118  15.070 -0.5735  0.8232 -1.9615
18244TIP3   OH276222   3.498   2.836   5.811 -0.9803 -0.1547  0.1595
18244TIP3    H176223   3.567   2.818   5.875 -0.5555 -0.5896 -0.4167
18244TIP3    H276224   3.430   2.771   5.828 -1.3775  0.4511  0.9116
18245TIP3   OH276225   5.431   6.223  14.501 -0.2869 -0.0525  0.3676
18245TIP3    H176226   5.485   6.278  14.558 -0.5056  1.8941 -1.2239
18245TIP3    H276227   5.456   6.249  14.412 -1.7246 -1.2382 -0.4091
18246TIP3   OH276228   4.431   3.998   4.988 -0.2267 -0.0302  0.3768
18246TIP3    H176229   4.344   3.985   4.951 -0.0534  0.0794 -0.0769
18246TIP3    H276230   4.433   4.090   5.014  0.8684  0.8775 -2.6257
18247TIP3   OH276231   5.870   5.163  15.291  0.4456 -0.1659 -0.2261
18247TIP3    H176232   5.889   5.257  15.285 -0.8704  0.2339  1.5816
18247TIP3    H276233   5.941   5.128  15.344  0.3480  0.0112  0.0272
18248TIP3   OH276234   0.392   4.695   4.869  0.4642  0.1305 -0.3588
18248TIP3    H176235   0.313   4.651   4.900  2.0103 -0.4669  2.9405
18248TIP3    H276236   0.361   4.754   4.800 -2.7920 -0.3267  0.6352
18249TIP3   OH276237   0.722   3.194   0.077  0.3993 -0.3266 -0.6530
18249TIP3    H176238   0.629   3.173   0.085  0.7726 -1.3633  1.2859
18249TIP3    H276239   0.723   3.287   0.055 -1.1013 -0.3626 -0.9578
18250TIP3   OH276240   0.798   5.659   0.920 -0.2273  0.4397 -0.4463
18250TIP3    H176241   0.835   5.734   0.873 -2.5847  2.7027  1.1188
18250TIP3    H276242   0.806   5.683   1.013 -2.1830 -0.6533  0.0379
18251TIP3   OH276243   2.647   3.304   3.815  0.0540  0.5408 -0.2701
18251TIP3    H176244   2.599   3.266   3.889 -0.3959  0.5022 -0.5817
18251TIP3    H276245   2.595   3.281   3.738  0.0495  1.3502 -0.5153
18252TIP3   OH276246   6.558   6.725  15.301 -0.4264 -0.1766 -0.2884
18252TIP3    H176247   6.648   6.694  15.311 -0.4710  0.1889  1.4853
18252TIP3    H276248   6.558   6.774  15.218  0.6592 -1.3455 -0.9919
18253TIP3   OH276249   3.526   2.360  13.427  0.0520 -0.1879 -0.0569
18253TIP3    H176250   3.594   2.296  13.410 -1.6451 -1.2338 -3.2803
18253TIP3    H276251   3.484   2.330  13.508  1.6026 -1.0688  0.4377
18254TIP3   OH276252   1.194   2.359   1.321  0.2946 -0.0649  0.5633
18254TIP3    H176253   1.117   2.356   1.378  0.0205 -2.1389  0.1259
18254TIP3    H276254   1.255   2.417   1.367 -1.6921  2.0737  0.6497
18255TIP3   OH276255   3.371   6.777   1.958  0.4342  0.1562  0.3551
18255TIP3    H176256   3.283   6.776   1.920  0.7065  0.0913 -0.2839
18255TIP3    H276257   3.401   6.867   1.946  1.0789 -0.2098 -0.9071
18256TIP3   OH276258   0.721   6.420  13.440  0.2818  0.1940 -0.4370
18256TIP3    H176259   0.695   6.382  13.524  3.7206 -0.0452  0.6079
18256TIP3    H276260   0.712   6.514  13.452  0.9413  0.1701  0.2976
18257TIP3   OH276261   0.166   4.995  12.325 -0.7303  0.3256  0.4195
18257TIP3    H176262   0.162   5.032  12.237  1.4242  1.6579  0.8511
18257TIP3    H276263   0.094   5.037  12.372 -1.4336  0.1647 -0.5093
18258TIP3   OH276264   2.935   4.606   4.954 -0.3048  0.0895 -0.4402
18258TIP3    H176265   2.877   4.567   5.020 -0.0310  0.0675 -0.2165
18258TIP3    H276266   2.897   4.692   4.936 -0.7518 -0.1673 -0.7292
18259TIP3   OH276267   6.019   2.451  17.164  0.6788  0.1932  0.6708
18259TIP3    H176268   5.999   2.529  17.215  0.6887  0.9984 -0.5574
18259TIP3    H276269   5.980   2.379  17.215 -0.9698  1.1966  0.8556
18260TIP3   OH276270   1.814   4.335  16.991  0.3816 -0.4089  0.1478
18260TIP3    H176271   1.856   4.409  17.034  2.2285 -0.1492 -1.9949
18260TIP3    H276272   1.768   4.373  16.916 -2.2943 -0.9273  1.4525
18261TIP3   OH276273   4.299   2.345   1.085  0.2370  0.0184  0.6691
18261TIP3    H176274   4.270   2.376   1.171 -0.9589  1.0258 -0.0801
18261TIP3    H276275   4.269   2.254   1.080 -0.2867  0.1719  1.0466
18262TIP3   OH276276   6.304   5.075  16.988 -0.2938 -0.8505 -0.2092
18262TIP3    H176277   6.218   5.100  17.024 -1.2109 -2.8031 -0.9454
18262TIP3    H276278   6.357   5.055  17.065  1.0340  4.7400  0.5343
18263TIP3   OH276279   4.638   3.336  15.221  0.0234 -0.3419  0.2037
18263TIP3    H176280   4.645   3.258  15.275  0.4944 -1.3326 -1.2716
18263TIP3    H276281   4.671   3.310  15.135  2.3932  2.0929  0.2870
18264TIP3   OH276282   5.010   2.534  13.689 -0.3206  0.6637  0.2271
18264TIP3    H176283   5.039   2.565  13.775  2.2968  0.2844 -0.4760
18264TIP3    H276284   4.986   2.443  13.703 -0.6438  0.8263  0.7260
18265TIP3   OH276285   0.059   5.019   0.190  0.1371  0.0608 -0.2688
18265TIP3    H176286   0.077   5.106   0.156 -0.2097  0.8981  1.6387
18265TIP3    H276287   0.031   4.969   0.114  2.2126  1.0619 -1.7532
18266TIP3   OH276288   3.660   5.190   2.850 -0.5042  0.5523 -0.4595
18266TIP3    H176289   3.691   5.124   2.787 -1.5576 -1.3992  0.9970
18266TIP3    H276290   3.605   5.249   2.797  0.8734  0.5759 -1.8932
18267TIP3   OH276291   4.583   6.107  17.099 -0.7633  0.3182  0.0253
18267TIP3    H176292   4.627   6.067  17.174 -1.5045 -0.1208  0.2266
18267TIP3    H276293   4.491   6.085  17.110 -1.0522  1.2746 -0.3663
18268TIP3   OH276294   6.052   0.102   4.331  1.0490 -0.1045 -0.3256
18268TIP3    H176295   5.988   0.090   4.261  0.2834 -0.6483  0.4689
18268TIP3    H276296   6.075   0.013   4.358 -2.8419  0.0029  3.9573
18269TIP3   OH276297   3.325   5.065   4.719 -0.4105 -0.0063  0.1164
18269TIP3    H176298   3.250   5.022   4.759 -0.1837  0.6712  1.2933
18269TIP3    H276299   3.395   5.057   4.784  0.2999  0.1065 -0.6159
18270TIP3   OH276300   4.163   3.840  16.420 -0.0171  0.2115 -0.1080
18270TIP3    H176301   4.072   3.856  16.446 -0.8607 -1.8049 -1.6494
18270TIP3    H276302   4.187   3.917  16.368 -1.2835  0.1855 -0.7608
18271TIP3   OH276303   2.528   2.926  16.246  0.1759 -0.7228  0.7123
18271TIP3    H176304   2.554   3.013  16.216 -0.1344 -0.3427  1.5412
18271TIP3    H276305   2.438   2.937  16.278 -0.5760 -1.7564 -0.9509
18272TIP3   OH276306   1.082   0.364   0.765  0.2382  0.3916  0.3724
18272TIP3    H176307   1.106   0.440   0.818  0.3812 -0.1980  1.1512
18272TIP3    H276308   1.142   0.367   0.690  1.8720 -0.3216  1.6317
18273TIP3   OH276309   4.001   5.981   5.510  0.2165 -0.0484  0.5806
18273TIP3    H176310   4.092   5.950   5.518 -0.2437 -1.4273  0.4988
18273TIP3    H276311   4.000   6.062   5.560  2.2314  1.5246 -1.7576
18274TIP3   OH276312   4.476   0.411   0.377  0.0428  0.2289 -0.1519
18274TIP3    H176313   4.462   0.317   0.366 -0.6265  0.5008 -1.6849
18274TIP3    H276314   4.388   0.448   0.382  0.3030  0.7444  0.7947
18275TIP3   OH276315   0.636   5.621   2.068  0.9568  0.1303  0.8004
18275TIP3    H176316   0.616   5.630   2.161  1.1010  2.1762  0.6506
18275TIP3    H276317   0.686   5.700   2.046  1.8867 -0.8484 -0.7647
18276TIP3   OH276318   5.012   1.161   3.579 -0.1943 -0.2047 -0.6465
18276TIP3    H176319   4.927   1.117   3.581  0.1118 -0.7856  2.0552
18276TIP3    H276320   5.047   1.147   3.667  1.7259  1.9245 -1.0458
18277TIP3   OH276321   2.109   6.763  10.999  0.3762 -0.0077  0.2177
18277TIP3    H176322   2.172   6.804  11.058  0.3023  0.8782 -0.3036
18277TIP3    H276323   2.024   6.775  11.041  0.5202 -0.9158  0.7652
18278TIP3   OH276324   4.925   3.062  14.747  0.0277  0.1078  0.1311
18278TIP3    H176325   4.920   2.996  14.678  0.7825 -0.8651  0.9989
18278TIP3    H276326   4.835   3.092  14.758 -0.6906 -2.3356  1.2101
18279TIP3   OH276327   2.798   2.944  16.116 -0.4922  0.2574 -0.2808
18279TIP3    H176328   2.817   2.990  16.035 -0.7520  1.6820  0.4518
18279TIP3    H276329   2.798   3.012  16.183 -0.8010 -0.8189  0.8394
18280TIP3   OH276330   1.356   3.020   1.645 -0.2167  0.8350  0.0121
18280TIP3    H176331   1.421   3.019   1.574 -0.8971 -0.2023 -0.5994
18280TIP3    H276332   1.375   2.941   1.696 -1.5086  0.1016 -0.6345
18281TIP3   OH276333   3.868   5.628  16.936 -0.8386  0.0214  0.1129
18281TIP3    H176334   3.938   5.692  16.944  0.6433 -1.5265 -0.1232
18281TIP3    H276335   3.903   5.561  16.877 -2.8859 -0.2921 -0.8014
18282TIP3   OH276336   5.766   2.423  16.368  0.0007 -0.8591  0.6976
18282TIP3    H176337   5.733   2.488  16.306 -1.5930 -0.8581  1.5187
18282TIP3    H276338   5.847   2.461  16.402 -0.5101  0.3344  0.5963
18283TIP3   OH276339   3.018   1.597   2.392 -0.4346 -0.5039 -0.0839
18283TIP3    H176340   3.094   1.599   2.334 -1.8720  2.1172 -1.9992
18283TIP3    H276341   3.042   1.535   2.461  3.6953  0.7533 -0.2491
18284TIP3   OH276342   5.966   4.002   6.079  0.2152 -0.3998  0.2334
18284TIP3    H176343   5.932   4.078   6.032 -0.0999 -0.6550  0.0492
18284TIP3    H276344   6.061   4.017   6.083  0.3451 -0.7521 -1.1623
18285TIP3   OH276345   0.802   6.071   2.426  0.9471  0.2278 -0.2698
18285TIP3    H176346   0.745   6.109   2.359 -1.2151 -1.0115  0.7910
18285TIP3    H276347   0.882   6.047   2.379  0.0306  0.6970 -2.1195
18286TIP3   OH276348   1.195   6.195  17.121 -0.3421  0.3097 -0.3075
18286TIP3    H176349   1.189   6.113  17.070  1.6481 -0.2034  0.2246
18286TIP3    H276350   1.124   6.249  17.087 -1.4282 -1.4726 -0.9830
18287TIP3   OH276351   4.649   4.674  11.220 -0.2413  0.4331 -1.0057
18287TIP3    H176352   4.593   4.596  11.225  0.9554 -0.5352 -2.1997
18287TIP3    H276353   4.732   4.646  11.258 -0.1727  1.5000 -0.3483
18288TIP3   OH276354   3.515   3.433   4.860 -0.7109  0.1035  0.3789
18288TIP3    H176355   3.428   3.455   4.827 -0.7961 -1.9881 -0.9121
18288TIP3    H276356   3.530   3.344   4.829  1.0981 -0.2779  2.2321
18289TIP3   OH276357   1.185   4.526   0.970 -0.1305 -0.6267 -0.0485
18289TIP3    H176358   1.249   4.520   0.898 -0.6938 -1.4092 -0.4924
18289TIP3    H276359   1.238   4.525   1.049  0.4486 -0.6674 -0.4338
18290TIP3   OH276360   1.365   2.998   5.864 -0.3119 -0.2415  0.2157
18290TIP3    H176361   1.329   2.913   5.889 -1.8503 -0.3575 -2.2240
18290TIP3    H276362   1.305   3.062   5.902 -0.6030 -0.3204 -0.1071
18291TIP3   OH276363   3.370   2.096   5.442 -0.0453 -0.5204  0.2335
18291TIP3    H176364   3.348   2.168   5.502 -0.2938 -1.7406  1.6311
18291TIP3    H276365   3.447   2.127   5.395 -1.6195  1.6922 -0.9937
18292TIP3   OH276366   1.265   4.618  13.069  0.5485 -0.1440  0.3045
18292TIP3    H176367   1.279   4.697  13.122  0.8641  0.1597 -0.2218
18292TIP3    H276368   1.326   4.554  13.104  0.5523 -0.0359  0.4944
18293TIP3   OH276369   0.131   1.423   6.190 -0.1669  0.4285  0.3219
18293TIP3    H176370   0.219   1.407   6.156  0.2393  1.4309  0.8906
18293TIP3    H276371   0.145   1.450   6.281 -1.0925  0.1110  0.5649
18294TIP3   OH276372   1.799   2.409   4.461 -0.3692 -0.0360 -0.4844
18294TIP3    H176373   1.785   2.363   4.378 -0.3036  0.1836 -0.6177
18294TIP3    H276374   1.806   2.501   4.436  0.3576 -0.0441 -0.3111
18295TIP3   OH276375   6.180   2.068  15.832 -0.5017 -0.6180 -0.0578
18295TIP3    H176376   6.172   2.159  15.801  0.0175 -0.7510 -0.5769
18295TIP3    H276377   6.093   2.048  15.868 -1.3266 -0.6661 -1.9734
18296TIP3   OH276378   2.799   6.317   1.259 -0.2132 -0.0398  0.3348
18296TIP3    H176379   2.736   6.270   1.203 -1.5192  0.8477  1.0169
18296TIP3    H276380   2.822   6.254   1.327 -2.2054  0.3607  1.4299
18297TIP3   OH276381   2.385   3.156   3.769 -0.2848  0.2099  0.0816
18297TIP3    H176382   2.340   3.110   3.698 -0.0558 -0.7755  0.5673
18297TIP3    H276383   2.389   3.092   3.840  0.4628  0.8262  0.6024
18298TIP3   OH276384   1.593   6.261  12.669  0.0484  0.0103  0.2106
18298TIP3    H176385   1.609   6.249  12.575 -0.8002  1.1833 -0.0929
18298TIP3    H276386   1.647   6.194  12.711 -1.5097 -2.2138 -1.2102
18299TIP3   OH276387   6.655   5.191   2.962  0.6261  0.7650  0.0354
18299TIP3    H176388   6.611   5.249   2.899 -0.7029 -2.3930 -2.0921
18299TIP3    H276389   6.594   5.186   3.035 -0.5179  0.0128 -0.9340
18300TIP3   OH276390   6.372   3.199  12.667 -0.1934 -0.1700 -0.5210
18300TIP3    H176391   6.338   3.167  12.751  0.3480  1.2641  0.2622
18300TIP3    H276392   6.296   3.237  12.623 -0.2914 -0.0569 -0.2554
18301TIP3   OH276393   3.186   6.183   4.042  0.3942 -0.4651  0.0414
18301TIP3    H176394   3.252   6.228   3.988 -0.0556  0.2213  0.0561
18301TIP3    H276395   3.224   6.098   4.060  1.1557 -0.1822 -0.2023
18302TIP3   OH276396   2.245   2.419  15.941  0.5605 -0.6644 -0.0807
18302TIP3    H176397   2.182   2.356  15.976 -0.0384  0.2637  0.5438
18302TIP3    H276398   2.220   2.502  15.982  2.0706 -0.2533  0.0149
18303TIP3   OH276399   5.687   3.683  11.830  0.2334 -0.3968  0.1504
18303TIP3    H176400   5.626   3.727  11.771 -0.9161 -1.8458  0.2106
18303TIP3    H276401   5.631   3.636  11.892  1.4287  0.6036  2.0385
18304TIP3   OH276402   2.081   3.632   2.113 -0.1876  0.2610  0.1192
18304TIP3    H176403   2.076   3.541   2.141  2.1890 -0.0669 -0.4272
18304TIP3    H276404   2.085   3.628   2.018 -0.6312  0.9627  0.0674
18305TIP3   OH276405   3.656   1.540  15.248  0.2577  0.2190 -0.3046
18305TIP3    H176406   3.581   1.499  15.204 -0.1542 -0.0158  0.5892
18305TIP3    H276407   3.728   1.478  15.237  0.0789  0.0274 -0.4011
18306TIP3   OH276408   0.478   5.941  10.613 -0.1284 -0.5052 -0.3530
18306TIP3    H176409   0.567   5.935  10.578  0.6055  1.0860  1.1391
18306TIP3    H276410   0.478   6.022  10.664 -2.3806 -0.6027 -0.1573
18307TIP3   OH276411   4.495   3.106  16.690 -0.1724  0.3474 -0.3661
18307TIP3    H176412   4.578   3.140  16.725  0.1504  0.3121 -1.0838
18307TIP3    H276413   4.447   3.077  16.767  0.3054  0.7670  0.0997
18308TIP3   OH276414   3.408   5.338  15.536 -0.8681  0.3291 -0.1584
18308TIP3    H176415   3.408   5.265  15.598 -3.0145  0.0743 -0.4287
18308TIP3    H276416   3.431   5.298  15.452 -0.3842  0.2580  0.0065
18309TIP3   OH276417   3.636   3.807   0.048  0.0912 -0.3929  0.1417
18309TIP3    H176418   3.540   3.808   0.041 -0.0447 -1.0760  1.6397
18309TIP3    H276419   3.661   3.719   0.018  0.3261  0.0796 -1.0584
18310TIP3   OH276420   5.392   4.079  15.079 -0.1817 -0.6110 -0.2990
18310TIP3    H176421   5.345   3.999  15.101  1.7827 -1.0713  2.4702
18310TIP3    H276422   5.337   4.150  15.112  0.7801 -1.1307  2.5355
18311TIP3   OH276423   2.424   5.451  12.422  0.2501 -0.2254 -0.2005
18311TIP3    H176424   2.504   5.451  12.369 -0.5954 -3.6443 -1.6659
18311TIP3    H276425   2.361   5.501  12.371  0.6681  0.0918 -0.4065
18312TIP3   OH276426   4.480   2.217  13.839 -0.2527  0.2231 -0.1558
18312TIP3    H176427   4.406   2.268  13.872 -1.0262 -0.2490 -1.1436
18312TIP3    H276428   4.440   2.144  13.791  0.8477 -0.6110  0.1779
18313TIP3   OH276429   2.491   2.408   4.734 -0.4009  0.7094  0.7778
18313TIP3    H176430   2.494   2.326   4.784  0.9733  0.3556  0.1238
18313TIP3    H276431   2.426   2.461   4.780 -0.0261 -0.0747  2.2551
18314TIP3   OH276432   3.864   4.394  11.868 -0.4815  0.0382  0.0294
18314TIP3    H176433   3.831   4.464  11.812  0.3226  0.5938  0.2459
18314TIP3    H276434   3.946   4.427  11.903  0.5180 -1.4831 -0.8163
18315TIP3   OH276435   4.139   4.563   2.130 -0.6510  0.1425  0.3754
18315TIP3    H176436   4.169   4.485   2.084  1.4150  1.4811 -0.6123
18315TIP3    H276437   4.189   4.564   2.211  1.5660  1.9826 -0.9434
18316TIP3   OH276438   5.621   2.918   1.600  0.1299  0.3465 -0.3384
18316TIP3    H176439   5.528   2.908   1.584  0.3421  0.0499 -1.4655
18316TIP3    H276440   5.653   2.828   1.614  0.2719  0.4264 -0.1477
18317TIP3   OH276441   5.507   5.364  13.611 -0.2424 -0.1137 -0.2916
18317TIP3    H176442   5.577   5.417  13.576  0.8640 -1.6270 -0.4300
18317TIP3    H276443   5.442   5.360  13.541  0.8616 -1.1197 -1.2815
18318TIP3   OH276444   3.798   2.515   0.343  0.3690 -0.4870  0.2706
18318TIP3    H176445   3.728   2.483   0.399  0.0672  0.4582  0.4529
18318TIP3    H276446   3.774   2.486   0.255 -0.2815 -0.1330  0.3263
18319TIP3   OH276447   1.043   3.326   6.182 -0.3466 -0.6327  0.7386
18319TIP3    H176448   0.958   3.354   6.149  0.4512  0.6041 -0.3255
18319TIP3    H276449   1.023   3.275   6.261 -2.0430 -0.1983  0.6062
18320TIP3   OH276450   6.740   1.076   5.835 -0.2516  0.2423 -0.4539
18320TIP3    H176451   6.722   1.089   5.928  1.2098 -0.6889 -0.0320
18320TIP3    H276452   6.683   1.139   5.791 -0.2719  1.3458  1.1084
18321TIP3   OH276453   2.974   6.734   3.387 -0.2466  0.3783  0.1867
18321TIP3    H176454   2.965   6.649   3.430 -0.6476  0.6874  0.7115
18321TIP3    H276455   3.067   6.753   3.392 -0.2010  0.1207  0.3581
18322TIP3   OH276456   3.908   1.108  12.498 -0.1535  0.8204 -0.3007
18322TIP3    H176457   3.899   1.074  12.587  1.2443 -0.4469 -0.6217
18322TIP3    H276458   3.841   1.176  12.491 -0.2338  0.9788  1.7365
18323TIP3   OH276459   5.731   0.996   1.810  0.0537 -0.2387 -0.2759
18323TIP3    H176460   5.687   1.040   1.883  0.1058 -1.6880  0.6388
18323TIP3    H276461   5.809   1.048   1.794 -1.4618  1.8160 -1.2742
18324TIP3   OH276462   0.562   5.491   3.232 -0.1109  0.7365  0.2054
18324TIP3    H176463   0.512   5.558   3.185  0.4027  1.6659  0.9737
18324TIP3    H276464   0.506   5.468   3.307 -0.6140 -0.2313 -0.4616
18325TIP3   OH276465   6.094   1.304  12.043  0.3476 -0.1046 -0.1004
18325TIP3    H176466   6.035   1.270  11.976  1.3469 -0.2213 -0.9307
18325TIP3    H276467   6.055   1.387  12.070  0.2159  0.1965 -1.2047
18326TIP3   OH276468   4.295   0.591   5.877 -0.1938  0.3203  0.6618
18326TIP3    H176469   4.348   0.660   5.917  0.3276  0.2119  0.1562
18326TIP3    H276470   4.213   0.593   5.926 -0.4202  1.7320  0.2531
18327TIP3   OH276471   1.859   3.067  15.758 -0.1667  0.0970 -0.2392
18327TIP3    H176472   1.835   3.159  15.746  0.7111  0.4139  0.3735
18327TIP3    H276473   1.914   3.046  15.682 -1.4400 -0.3034 -1.0567
18328TIP3   OH276474   0.136   0.030   3.791 -0.2461 -0.3334  0.0272
18328TIP3    H176475   0.223   0.055   3.820 -0.4972 -2.0880  2.4063
18328TIP3    H276476   0.151  -0.016   3.709  0.8327  1.3346 -0.7464
18329TIP3   OH276477   3.275   2.493   2.680 -0.8839  0.6607  0.2084
18329TIP3    H176478   3.254   2.412   2.726 -0.3619  0.3887 -0.0275
18329TIP3    H276479   3.207   2.554   2.707 -0.0171  0.7931  2.1188
18330TIP3   OH276480   5.607   1.604  16.841  0.4469  0.3806 -0.0245
18330TIP3    H176481   5.695   1.640  16.840 -0.0038  1.6623  2.1264
18330TIP3    H276482   5.552   1.677  16.871 -1.0744 -0.8919  0.3439
18331TIP3   OH276483   2.421   0.085   5.007  0.1426  0.6525 -0.1277
18331TIP3    H176484   2.337   0.052   5.037  0.6664 -0.2462  0.3852
18331TIP3    H276485   2.475   0.088   5.086  1.2405 -0.8155 -0.8073
18332TIP3   OH276486   2.798   1.607   1.050 -0.0345  0.0891 -0.1608
18332TIP3    H176487   2.816   1.521   1.011 -0.3478 -0.3191  0.5758
18332TIP3    H276488   2.881   1.633   1.090  0.2218  0.3997 -0.8928
18333TIP3   OH276489   3.255   4.275   0.995  0.0842  0.2658  0.3500
18333TIP3    H176490   3.226   4.246   0.908 -1.4939  0.8586  0.6579
18333TIP3    H276491   3.349   4.288   0.985 -0.0779  0.3708 -1.2956
18334TIP3   OH276492   5.448   3.472   0.487  0.0643  0.4307 -0.0082
18334TIP3    H176493   5.390   3.492   0.560 -2.4011  1.0269 -2.0619
18334TIP3    H276494   5.528   3.521   0.506 -1.0216  1.6033  1.6307
18335TIP3   OH276495   2.834   5.692   4.583 -0.3246  0.3033 -0.5010
18335TIP3    H176496   2.912   5.642   4.608  0.4237  1.3563 -0.6459
18335TIP3    H276497   2.791   5.639   4.516  0.1481 -0.4029 -0.2438
18336TIP3   OH276498   4.359   1.790  15.968  0.8491 -0.6312  0.2978
18336TIP3    H176499   4.355   1.702  15.931  0.3146 -0.8191  0.8042
18336TIP3    H276500   4.332   1.780  16.059  2.0970 -0.1554  0.7434
18337TIP3   OH276501   3.119   0.957  12.205  0.3156 -0.1448  0.6593
18337TIP3    H176502   3.059   0.891  12.238 -1.7434  2.6162  2.6741
18337TIP3    H276503   3.169   0.985  12.282  3.6583 -1.7993 -0.8294
18338TIP3   OH276504   0.955   4.116  14.174  0.0782  0.3046  0.3176
18338TIP3    H176505   0.951   4.204  14.211  1.3476  0.4913  0.0491
18338TIP3    H276506   0.893   4.065  14.225  0.4521  1.0014  1.4804
18339TIP3   OH276507   3.684   1.254   1.198  0.6337 -0.7593 -0.0145
18339TIP3    H176508   3.670   1.204   1.118 -0.3611 -1.6108  0.6826
18339TIP3    H276509   3.599   1.294   1.216  0.8909 -0.4598  0.5440
18340TIP3   OH276510   0.745   5.558   5.401 -0.4840  0.6418  0.5594
18340TIP3    H176511   0.722   5.625   5.336 -1.0035  1.6293  1.7463
18340TIP3    H276512   0.674   5.562   5.465  1.0835  1.1238  2.2959
18341TIP3   OH276513   2.096   4.711  14.399 -0.2087  0.6141  0.1347
18341TIP3    H176514   2.014   4.757  14.417 -0.3042  0.9089 -0.9950
18341TIP3    H276515   2.151   4.777  14.356 -0.8537 -0.6869 -2.7983
18342TIP3   OH276516   6.137   1.823   0.286  0.0929  0.4116  0.4065
18342TIP3    H176517   6.229   1.795   0.283 -0.1872 -0.5030  0.1326
18342TIP3    H276518   6.090   1.744   0.312 -0.8113  0.3837 -1.2289
18343TIP3   OH276519   6.639   5.611   4.590 -0.2602 -0.0052 -0.2293
18343TIP3    H176520   6.671   5.700   4.608 -1.7081  0.6751 -0.9227
18343TIP3    H276521   6.584   5.590   4.666  0.3229 -0.4261  0.0746
18344TIP3   OH276522   4.592   1.797  12.197  0.2097  0.0504  0.0340
18344TIP3    H176523   4.649   1.869  12.224 -0.9225  0.6783  0.7705
18344TIP3    H276524   4.542   1.833  12.124 -0.0812 -0.1163  0.1536
18345TIP3   OH276525   5.321   3.890   0.687  0.2426 -0.2869  0.0922
18345TIP3    H176526   5.295   3.906   0.778  0.7078 -1.0429  0.3660
18345TIP3    H276527   5.401   3.837   0.694 -0.3142 -1.2766 -0.7574
18346TIP3   OH276528   4.050   5.464   0.619 -0.1832  0.3157 -0.6264
18346TIP3    H176529   4.112   5.528   0.652 -0.2819  0.0997 -0.0240
18346TIP3    H276530   3.968   5.484   0.664 -0.0513 -0.6395  0.0614
18347TIP3   OH276531   4.160   0.969  12.589  0.5283  0.0336 -0.0485
18347TIP3    H176532   4.147   0.937  12.500 -1.1241  1.3796 -0.3093
18347TIP3    H276533   4.082   1.022  12.608  1.6071  1.1088  1.5920
18348TIP3   OH276534   0.824   3.247  13.876  0.2779 -0.5484  0.1541
18348TIP3    H176535   0.728   3.243  13.878  0.3213 -2.3329 -0.0139
18348TIP3    H276536   0.844   3.340  13.868 -1.4694 -0.2246 -0.7738
18349TIP3   OH276537   5.470   0.904   5.623  0.3552 -0.7427  0.7362
18349TIP3    H176538   5.516   0.860   5.551  0.0486 -1.4373  0.9554
18349TIP3    H276539   5.395   0.847   5.641 -0.9890  0.7489 -0.0962
18350TIP3   OH276540   2.385   0.285   2.870  0.5366 -0.4619 -0.2546
18350TIP3    H176541   2.437   0.275   2.791 -1.2139  1.0474 -1.6484
18350TIP3    H276542   2.351   0.198   2.889  1.4732 -0.9452 -0.7919
18351TIP3   OH276543   5.052   3.606  11.052  0.1457 -0.0762  0.3044
18351TIP3    H176544   5.057   3.637  10.961 -1.8845  0.2988  0.2851
18351TIP3    H276545   5.101   3.671  11.102  1.4401 -0.3835 -0.5466
18352TIP3   OH276546   4.376   6.556  10.405 -0.3758  0.0525  0.7078
18352TIP3    H176547   4.307   6.610  10.369 -0.9080 -1.0016  0.1342
18352TIP3    H276548   4.334   6.505  10.474  0.2882  0.8974  1.7690
18353TIP3   OH276549   4.259   3.884  12.470 -0.0536 -0.1254  0.3619
18353TIP3    H176550   4.259   3.894  12.375 -0.5146  0.3907  0.4124
18353TIP3    H276551   4.168   3.865  12.492 -0.0285  0.1956  0.7482
18354TIP3   OH276552   4.633   3.425  12.613  0.1831  0.2816 -0.0716
18354TIP3    H176553   4.695   3.379  12.670 -0.1151  0.2892  0.2571
18354TIP3    H276554   4.597   3.356  12.557  0.8198  0.3440 -0.5739
18355TIP3   OH276555   4.288   1.387  16.443 -0.1171  0.0165  0.9309
18355TIP3    H176556   4.316   1.477  16.424 -2.7452  0.5337 -0.6509
18355TIP3    H276557   4.225   1.396  16.515  0.1432 -0.6570  1.2532
18356TIP3   OH276558   3.883   4.757   3.891  0.2129  0.0908  0.2130
18356TIP3    H176559   3.839   4.835   3.857  1.1075 -0.0109 -1.2099
18356TIP3    H276560   3.813   4.704   3.929 -0.4480  1.4044  0.8463
18357TIP3   OH276561   6.525   1.843   0.120 -0.0449 -0.4871  0.6777
18357TIP3    H176562   6.596   1.813   0.063 -0.6807  0.4927 -0.6633
18357TIP3    H276563   6.539   1.796   0.202  2.7107  0.3940  0.7849
18358TIP3   OH276564   0.692   3.196  11.990  0.4461 -0.0134  0.1539
18358TIP3    H176565   0.686   3.162  11.901  0.2044  1.2259 -0.3127
18358TIP3    H276566   0.614   3.251  12.000  2.9742  3.9572 -0.6613
18359TIP3   OH276567   0.154   4.039   2.256  0.0546 -0.3589 -0.3503
18359TIP3    H176568   0.197   3.981   2.320 -0.8634 -1.0684 -0.3572
18359TIP3    H276569   0.206   4.119   2.258  0.8147 -0.8514  0.3329
18360TIP3   OH276570   4.246   6.349   1.063  0.4680  0.3185  0.0269
18360TIP3    H176571   4.231   6.284   1.132  0.5452  0.0796 -0.1817
18360TIP3    H276572   4.340   6.367   1.067 -0.3630  4.7910  4.0143
18361TIP3   OH276573   3.752   6.066  14.224 -0.4658 -0.4647 -0.4634
18361TIP3    H176574   3.805   6.146  14.227 -1.2673  0.0239  1.6512
18361TIP3    H276575   3.663   6.096  14.206 -0.8134 -0.8448  0.5721
18362TIP3   OH276576   4.067   4.144   0.696 -0.0385  0.1036  0.4108
18362TIP3    H176577   4.146   4.193   0.673 -0.7539  1.1844  0.2398
18362TIP3    H276578   4.054   4.083   0.623 -0.2105  0.9595 -0.2730
18363TIP3   OH276579   3.783   2.884  10.403 -0.4704  0.3015  0.1859
18363TIP3    H176580   3.867   2.909  10.442 -0.3026 -1.9857  1.4391
18363TIP3    H276581   3.720   2.946  10.440  0.5839  1.7364 -0.3894
18364TIP3   OH276582   5.747   0.253  14.797  0.8134 -0.3332  0.1839
18364TIP3    H176583   5.729   0.216  14.711 -1.9916 -0.3925  0.7513
18364TIP3    H276584   5.767   0.345  14.780  0.4373 -0.3870 -0.5554
18365TIP3   OH276585   3.011   5.076  11.910 -0.0259  0.5120  0.3842
18365TIP3    H176586   2.984   5.166  11.890  0.5958  1.0820  2.0019
18365TIP3    H276587   3.106   5.080  11.913  0.0323 -0.3591 -0.2000
18366TIP3   OH276588   1.836   5.435   0.279 -0.2599  0.1546  0.0558
18366TIP3    H176589   1.896   5.489   0.227  0.6025  0.5758  1.4593
18366TIP3    H276590   1.891   5.365   0.314 -0.7958  0.0001  0.5957
18367TIP3   OH276591   0.046   0.532   5.501 -0.1620 -0.1474  0.5233
18367TIP3    H176592  -0.006   0.578   5.434  0.5397  0.9454  0.7170
18367TIP3    H276593   0.078   0.453   5.456  1.1519  1.0882 -0.7678
18368TIP3   OH276594   0.489   3.637   1.022 -0.0697 -0.3073 -0.0242
18368TIP3    H176595   0.471   3.553   0.978 -0.2808 -0.4448  0.3235
18368TIP3    H276596   0.576   3.661   0.991 -0.4149 -0.1558 -0.9020
18369TIP3   OH276597   4.838   2.091   1.871 -0.0683 -0.3096 -0.0538
18369TIP3    H176598   4.830   2.056   1.782 -0.0918 -0.3008 -0.0550
18369TIP3    H276599   4.757   2.065   1.915  1.0146 -2.5558  0.7211
18370TIP3   OH276600   4.966   3.217  13.586  0.1538 -0.4798 -0.3050
18370TIP3    H176601   4.992   3.307  13.565  1.3873 -0.6622  0.3960
18370TIP3    H276602   5.001   3.202  13.674 -0.4209 -1.5045 -0.2443
18371TIP3   OH276603   2.433   1.369   2.365 -0.5886 -0.6998 -0.2202
18371TIP3    H176604   2.437   1.281   2.328 -0.2202 -1.0184  0.5682
18371TIP3    H276605   2.340   1.391   2.366 -0.6166 -0.7592 -1.1541
18372TIP3   OH276606   1.481   6.044  15.397 -0.3675 -0.2947 -0.0333
18372TIP3    H176607   1.537   5.981  15.443  1.9720 -0.1702 -2.5927
18372TIP3    H276608   1.483   6.016  15.306 -1.4689  1.9342 -0.7799
18373TIP3   OH276609   3.801   3.406  13.581  0.1179 -0.4998 -0.0605
18373TIP3    H176610   3.805   3.317  13.547 -0.7983 -0.2098 -0.9415
18373TIP3    H276611   3.792   3.395  13.676  0.3379 -1.3364 -0.1356
18374TIP3   OH276612   2.147   4.123   3.655 -0.0464  0.4981  0.2538
18374TIP3    H176613   2.108   4.076   3.582  0.7672  1.5129 -0.8445
18374TIP3    H276614   2.126   4.215   3.638  0.7237  0.8031  0.9413
18375TIP3   OH276615   3.834   1.452   3.823 -0.2743 -0.2798  0.1786
18375TIP3    H176616   3.841   1.527   3.884  0.8863  1.3600 -1.9119
18375TIP3    H276617   3.918   1.450   3.778 -1.1368 -1.4625 -1.4045
18376TIP3   OH276618   3.393   1.963  17.052  0.0352 -0.2014 -0.3666
18376TIP3    H176619   3.428   2.023  16.987  0.6522  0.4575  0.5667
18376TIP3    H276620   3.450   1.886  17.047  1.6880  0.9070  1.2146
18377TIP3   OH276621   6.677   5.364  13.829 -0.2770  0.3892 -0.5807
18377TIP3    H176622   6.612   5.429  13.802 -0.2619  0.2837 -0.8634
18377TIP3    H276623   6.737   5.356  13.755  1.5189  2.3331  0.5880
18378TIP3   OH276624   0.446   2.145   1.649  0.5101  0.7034  0.3718
18378TIP3    H176625   0.355   2.140   1.678  1.0434  0.8709  2.1270
18378TIP3    H276626   0.443   2.121   1.556 -1.1890 -0.3066  0.6649
18379TIP3   OH276627   3.067   3.548   1.845 -0.0695 -0.2186  0.2145
18379TIP3    H176628   3.110   3.602   1.911  1.3784 -0.0314 -0.8738
18379TIP3    H276629   2.987   3.517   1.888 -0.7000  2.4112  1.0104
18380TIP3   OH276630   6.512   0.001  16.819 -0.2558  0.2155  0.3940
18380TIP3    H176631   6.451  -0.072  16.816  0.0727 -0.0927  1.1037
18380TIP3    H276632   6.488   0.049  16.899  0.0183  0.4563  0.3349
18381TIP3   OH276633   4.417   4.868   0.090 -0.0459 -0.9223 -0.7891
18381TIP3    H176634   4.346   4.817   0.052 -0.0827 -1.0306 -0.5765
18381TIP3    H276635   4.393   4.878   0.182 -0.4289  0.1456 -0.9910
18382TIP3   OH276636   6.498   5.661  13.831  0.0611 -0.7075 -0.2116
18382TIP3    H176637   6.501   5.635  13.739 -1.1202 -0.0079 -0.4553
18382TIP3    H276638   6.541   5.747  13.833 -0.3637 -0.4949 -0.1931
18383TIP3   OH276639   3.456   1.213  11.983  0.0885  0.1999  0.1242
18383TIP3    H176640   3.441   1.298  11.941 -0.0493  1.4884  2.7174
18383TIP3    H276641   3.369   1.172  11.984 -0.2490  0.9181  0.7571
18384TIP3   OH276642   5.002   1.127  14.049 -0.1618 -0.2621 -0.0361
18384TIP3    H176643   5.059   1.083  14.112  1.3179  1.2355 -0.2866
18384TIP3    H276644   4.918   1.134  14.094  0.3009 -1.0439  0.9785
18385TIP3   OH276645   6.010   4.179  16.936 -0.0683  0.1586  0.2925
18385TIP3    H176646   5.997   4.272  16.954 -0.4418 -0.0257  0.9701
18385TIP3    H276647   5.922   4.143  16.932  0.0216  0.0971 -1.3827
18386TIP3   OH276648   6.143   3.301   2.389 -0.1564 -0.7697  0.5752
18386TIP3    H176649   6.222   3.285   2.338 -1.8558 -1.7466 -1.8384
18386TIP3    H276650   6.149   3.239   2.462  0.5440 -1.9663 -0.4751
18387TIP3   OH276651   1.978   1.943   0.061  0.3786  0.1052  0.7866
18387TIP3    H176652   2.071   1.959   0.073  0.2619 -0.4539  2.5326
18387TIP3    H276653   1.945   1.921   0.148 -1.8972  2.8528  0.7170
18388TIP3   OH276654   6.809   5.974   3.428 -1.0410  0.4806  0.4371
18388TIP3    H176655   6.820   6.035   3.501  0.8861 -0.3881  0.9053
18388TIP3    H276656   6.752   5.905   3.462 -0.2587  0.1506  1.0760
18389TIP3   OH276657   2.657   6.137  12.247 -0.3389 -0.3365 -0.3014
18389TIP3    H176658   2.607   6.076  12.302 -1.9550  0.3842 -0.9505
18389TIP3    H276659   2.611   6.137  12.163  0.4425  0.7524 -0.7356
18390TIP3   OH276660   5.514   1.492  15.169  0.4635  0.3835 -0.3388
18390TIP3    H176661   5.557   1.577  15.178  0.7031  0.2071  0.1584
18390TIP3    H276662   5.500   1.483  15.074 -1.2516  1.8111 -0.2568
18391TIP3   OH276663   3.535   5.487  13.697  0.1038  0.2555  0.6257
18391TIP3    H176664   3.588   5.564  13.714 -0.7196  0.5764  1.8181
18391TIP3    H276665   3.447   5.511  13.727 -1.0854  0.2438 -2.5535
18392TIP3   OH276666   5.463   3.594   3.244 -0.4813  0.0345 -0.1029
18392TIP3    H176667   5.433   3.589   3.334  2.3814 -0.6116  0.8784
18392TIP3    H276668   5.390   3.562   3.192 -1.0237 -2.7657  2.2550
18393TIP3   OH276669   4.435   3.329  16.546  0.0270  1.1710 -0.4100
18393TIP3    H176670   4.440   3.258  16.610  0.1187  0.6308 -1.0092
18393TIP3    H276671   4.350   3.370  16.562 -0.4348  0.3364 -0.6706
18394TIP3   OH276672   2.669   3.876   3.038 -0.3804 -0.1548  0.5068
18394TIP3    H176673   2.633   3.859   3.125 -3.1027  2.6923  0.0215
18394TIP3    H276674   2.602   3.846   2.977 -0.0745  1.1579 -0.5062
18395TIP3   OH276675   2.067   4.004  17.050 -0.0544 -0.3557 -0.3391
18395TIP3    H176676   2.016   4.051  16.985  0.9101 -0.1319 -0.9371
18395TIP3    H276677   2.008   3.936  17.083 -1.6739  1.6295  0.9742
18396TIP3   OH276678   1.770   4.895   4.160 -0.4577 -0.7030 -0.7775
18396TIP3    H176679   1.680   4.864   4.167 -0.8891  0.6956  0.1314
18396TIP3    H276680   1.763   4.981   4.119  0.0838  0.9790  2.4520
18397TIP3   OH276681   6.280   1.420  12.856  0.2996  0.5466 -0.0265
18397TIP3    H176682   6.196   1.421  12.902  0.2621 -1.1830 -0.0145
18397TIP3    H276683   6.341   1.379  12.919  0.6738 -0.0753 -0.7817
18398TIP3   OH276684   6.739   4.572   0.439  0.4583  0.1372 -0.3539
18398TIP3    H176685   6.701   4.626   0.509 -1.0084 -0.6743 -0.4920
18398TIP3    H276686   6.731   4.626   0.360  1.3012  0.7030 -0.0595
18399TIP3   OH276687   4.250   4.820   6.146 -0.0115  0.1950 -0.7035
18399TIP3    H176688   4.165   4.779   6.125  0.3994  0.0298 -2.1370
18399TIP3    H276689   4.284   4.769   6.219 -0.2341 -1.0587 -1.4541
18400TIP3   OH276690   0.938   1.389   0.511  0.9533 -0.9874  0.0617
18400TIP3    H176691   0.923   1.348   0.596 -0.4837  1.5427  1.0821
18400TIP3    H276692   0.976   1.475   0.532 -1.8526  0.7460 -1.6920
18401TIP3   OH276693   5.005   5.037  17.264  0.6861 -0.1511  0.6604
18401TIP3    H176694   4.916   5.022  17.297  1.0037 -0.2690  1.4680
18401TIP3    H276695   5.023   5.129  17.283 -0.1474  0.5137 -1.6417
18402TIP3   OH276696   4.105   3.423   1.400  0.3415 -0.2299 -0.1821
18402TIP3    H176697   4.154   3.502   1.378 -0.4715  0.5651  0.8304
18402TIP3    H276698   4.050   3.407   1.323  1.1520 -0.3351 -0.7499
18403TIP3   OH276699   2.637   1.835  12.411  0.9306  0.7422  0.3800
18403TIP3    H176700   2.549   1.799  12.425  0.5714  1.5508  0.2498
18403TIP3    H276701   2.690   1.760  12.386 -0.0705  0.4788 -1.0110
18404TIP3   OH276702   4.781   1.864   3.113 -0.2278 -0.5417  0.4367
18404TIP3    H176703   4.849   1.905   3.059 -1.6486  1.6644  0.2597
18404TIP3    H276704   4.720   1.827   3.049 -0.4224 -0.4332  0.5609
18405TIP3   OH276705   4.828   0.813  12.362 -0.0977 -0.6514  0.0946
18405TIP3    H176706   4.914   0.771  12.367 -0.1728 -1.1430 -2.0347
18405TIP3    H276707   4.844   0.904  12.384  0.6463 -1.1039  1.4929
18406TIP3   OH276708   2.868   3.165   2.529  0.6050  0.2777 -0.0424
18406TIP3    H176709   2.779   3.199   2.521  0.6257  0.2658 -0.3126
18406TIP3    H276710   2.889   3.175   2.622 -0.0438 -0.6309  0.2099
18407TIP3   OH276711   0.125   5.022   0.615  0.0529 -0.1853 -0.1297
18407TIP3    H176712   0.071   5.036   0.537  0.5430  0.1526 -0.4122
18407TIP3    H276713   0.195   4.964   0.584 -0.6942 -1.4437  0.4775
18408TIP3   OH276714   5.567   5.989  16.060  0.0517  0.0477 -0.0604
18408TIP3    H176715   5.584   6.083  16.051 -0.8667  0.6005  3.4647
18408TIP3    H276716   5.498   5.971  15.997 -0.7828  2.0395  0.2545
18409TIP3   OH276717   3.468   0.222   0.956  0.1643  0.1785 -0.1992
18409TIP3    H176718   3.453   0.143   0.903 -1.9370  1.6972 -1.9715
18409TIP3    H276719   3.563   0.232   0.956  0.3081 -0.7437 -2.4397
18410TIP3   OH276720   5.721   4.397  11.660  0.0906 -0.6788  0.3375
18410TIP3    H176721   5.629   4.386  11.682 -0.1241 -0.4185 -0.3935
18410TIP3    H276722   5.768   4.387  11.743 -0.7042  0.5808  0.9542
18411TIP3   OH276723   3.247   6.811   0.252 -0.4958 -0.2452  0.0844
18411TIP3    H176724   3.308   6.858   0.195 -0.0736  0.0829  0.8028
18411TIP3    H276725   3.162   6.821   0.209  0.1002 -1.6061 -1.4923
18412TIP3   OH276726   0.056   1.507   6.478 -0.0762  0.5131  0.4404
18412TIP3    H176727   0.042   1.565   6.553  0.6729  0.6063  0.5179
18412TIP3    H276728  -0.001   1.541   6.410 -2.1751 -0.6902  1.5414
18413TIP3   OH276729   4.929   4.827   2.878 -0.6900  0.0404  0.6285
18413TIP3    H176730   4.866   4.773   2.925 -1.6605  0.2672 -0.3948
18413TIP3    H276731   4.915   4.805   2.785 -0.9337  1.8626  0.2198
18414TIP3   OH276732   6.383   6.106   4.470 -0.4624  0.3554  0.0910
18414TIP3    H176733   6.317   6.135   4.408 -1.2195 -1.2259  0.1355
18414TIP3    H276734   6.467   6.132   4.431 -1.0952  2.4280  0.0723
18415TIP3   OH276735   3.345   4.473   5.290  0.1221 -0.6416  0.2177
18415TIP3    H176736   3.390   4.552   5.319 -0.2571 -0.8613  1.4240
18415TIP3    H276737   3.415   4.411   5.272  0.3562 -0.5360  0.7633
18416TIP3   OH276738   0.133   6.301   0.726 -0.1399 -0.2996 -0.0857
18416TIP3    H176739   0.045   6.327   0.697 -0.8788 -1.5104  1.0046
18416TIP3    H276740   0.171   6.381   0.762 -1.2112 -0.0167  0.4415
18417TIP3   OH276741   4.497   4.898  13.132  0.3423 -0.0406 -0.7101
18417TIP3    H176742   4.427   4.958  13.107  0.4132 -0.1422 -1.1647
18417TIP3    H276743   4.509   4.912  13.226 -0.0960  0.1766 -0.6857
18418TIP3   OH276744   4.252   4.960  16.282  0.3462 -0.3268  0.0107
18418TIP3    H176745   4.219   5.038  16.239 -0.4845 -0.7312 -0.0932
18418TIP3    H276746   4.176   4.924  16.328  1.2854  0.3042  2.1420
18419TIP3   OH276747   6.498   6.225  11.930 -0.4311 -0.1823  1.1780
18419TIP3    H176748   6.473   6.143  11.886 -0.0314 -0.1134  0.8189
18419TIP3    H276749   6.555   6.269  11.867  1.4765 -0.8299  2.4250
18420TIP3   OH276750   3.692   3.769  12.058 -0.5086 -0.1362  0.1507
18420TIP3    H176751   3.757   3.780  12.128  0.2479  2.5544 -0.9171
18420TIP3    H276752   3.618   3.726  12.101 -0.0244  1.3952  2.5825
18421TIP3   OH276753   4.633   0.725  11.781  0.0315  0.6214 -0.8556
18421TIP3    H176754   4.698   0.783  11.742 -0.0802  0.5046 -1.2216
18421TIP3    H276755   4.682   0.645  11.803  0.6317  1.6158  1.5688
18422TIP3   OH276756   0.491   3.577  16.316 -0.0164 -0.5034  0.0671
18422TIP3    H176757   0.556   3.518  16.354 -1.3120 -2.0253 -0.0148
18422TIP3    H276758   0.528   3.602  16.231  1.4459  0.4030  0.9645
18423TIP3   OH276759   5.718   4.750   5.304  0.2203 -0.1038  0.0892
18423TIP3    H176760   5.646   4.813   5.296  0.1594 -0.1281  0.4701
18423TIP3    H276761   5.774   4.785   5.373 -0.9314 -1.5528  1.7931
18424TIP3   OH276762   0.129   1.531  17.118 -0.1610  0.0354  0.1343
18424TIP3    H176763   0.137   1.472  17.193  0.4657 -0.4706 -0.3305
18424TIP3    H276764   0.206   1.587  17.122 -0.7787  0.8585  0.6048
18425TIP3   OH276765   4.151   2.818   0.803 -0.0145 -0.1245  0.6608
18425TIP3    H176766   4.182   2.829   0.713 -1.1749  0.9982  0.3871
18425TIP3    H276767   4.103   2.735   0.801 -1.4969  0.7175 -0.2000
18426TIP3   OH276768   3.662   2.871   4.839 -0.2108  0.4021  0.2842
18426TIP3    H176769   3.698   2.784   4.850 -0.9711  0.1829  1.1708
18426TIP3    H276770   3.582   2.858   4.788  0.2554  0.7220 -0.5416
18427TIP3   OH276771   0.775   1.260   3.036  0.2476 -0.1039 -0.0906
18427TIP3    H176772   0.801   1.352   3.033  0.3538 -0.0558  1.6621
18427TIP3    H276773   0.858   1.212   3.037  0.2174 -0.1547  0.2502
18428TIP3   OH276774   3.606   3.718   3.054  0.4744 -0.1037  0.1308
18428TIP3    H176775   3.521   3.679   3.075  0.3247 -0.8157 -1.7583
18428TIP3    H276776   3.606   3.801   3.102 -2.3500  1.1020 -1.8285
18429TIP3   OH276777   5.706   3.566  10.810 -0.0110 -0.2403  0.1783
18429TIP3    H176778   5.659   3.545  10.891  0.6856 -0.8987  0.4169
18429TIP3    H276779   5.738   3.481  10.779  2.6932  0.4067  1.0644
18430TIP3   OH276780   0.994   2.905  16.752 -0.1225 -0.4030 -0.1066
18430TIP3    H176781   0.969   2.985  16.797  2.3207  0.7550 -0.7248
18430TIP3    H276782   0.985   2.836  16.818 -0.8720  0.5859  0.8341
18431TIP3   OH276783   2.527   2.632  11.159  0.5143  0.2626 -0.0521
18431TIP3    H176784   2.577   2.676  11.089 -2.3826 -3.3726 -4.7228
18431TIP3    H276785   2.591   2.577  11.203  2.4403  2.6997  0.3164
18432TIP3   OH276786   0.883   4.635  13.735 -0.5878  0.1645  0.2205
18432TIP3    H176787   0.898   4.723  13.701  1.0009 -0.4653 -0.7810
18432TIP3    H276788   0.867   4.647  13.829 -1.3850  1.5954 -0.0925
18433TIP3   OH276789   0.683   2.244  16.455 -0.1100  0.0408 -0.1905
18433TIP3    H176790   0.712   2.153  16.458 -2.4449 -0.7215  0.7170
18433TIP3    H276791   0.672   2.268  16.547 -0.9921  0.7290 -0.4693
18434TIP3   OH276792   4.295   4.468  16.940  0.1167 -0.0747  0.1794
18434TIP3    H176793   4.345   4.493  17.018  0.4377  0.6031 -0.2488
18434TIP3    H276794   4.246   4.390  16.968  1.6248 -0.9249  0.5066
18435TIP3   OH276795   3.999   4.734  16.996  0.0957  0.0679  0.2471
18435TIP3    H176796   4.058   4.747  16.921 -0.2045  0.0077  0.0027
18435TIP3    H276797   4.004   4.817  17.044 -0.7353  0.5891 -0.5567
18436TIP3   OH276798   1.807   2.261   0.504 -0.0294  0.2629  0.0351
18436TIP3    H176799   1.793   2.312   0.583 -2.1097 -1.7268  0.9892
18436TIP3    H276800   1.732   2.281   0.448  0.3041 -0.0292 -0.5270
18437TIP3   OH276801   4.759   2.625  14.062  0.3789 -0.3479 -0.2271
18437TIP3    H176802   4.731   2.619  13.970 -0.4794  0.1568 -0.0046
18437TIP3    H276803   4.774   2.534  14.088 -0.6202 -0.6018 -0.4966
18438TIP3   OH276804   0.938   2.905   4.934 -0.3110 -0.4395 -0.1862
18438TIP3    H176805   0.875   2.912   4.863 -0.9945 -0.2974  0.4308
18438TIP3    H276806   0.890   2.866   5.006  0.7165 -1.7503 -0.1949
18439TIP3   OH276807   5.998   5.538   1.292  0.5809 -0.3916  0.3795
18439TIP3    H176808   5.907   5.528   1.318  0.0037  1.0154 -1.0526
18439TIP3    H276809   6.034   5.450   1.297 -0.6818 -0.8643  1.5425
18440TIP3   OH276810   1.890   0.396   5.701  0.5974 -0.0771 -0.2132
18440TIP3    H176811   1.920   0.486   5.687 -0.0702  0.3187  0.8895
18440TIP3    H276812   1.960   0.355   5.752  2.7588 -1.3521 -4.0053
18441TIP3   OH276813   2.515   0.951   1.930  0.1031 -0.3232  0.1673
18441TIP3    H176814   2.433   0.909   1.902 -0.8181  0.9820  0.8492
18441TIP3    H276815   2.533   0.915   2.016 -0.3663  0.2324  0.4989
18442TIP3   OH276816   3.274   1.797  11.570  0.4586  0.1075  0.5216
18442TIP3    H176817   3.360   1.813  11.533  0.5128 -0.6588  0.3167
18442TIP3    H276818   3.289   1.731  11.638 -0.0380 -0.3363  0.1966
18443TIP3   OH276819   0.237   6.691   6.134 -0.2895  0.7237  0.4102
18443TIP3    H176820   0.285   6.639   6.198 -0.5984  0.2392  0.2584
18443TIP3    H276821   0.296   6.762   6.110  1.1604 -1.0217 -1.3252
18444TIP3   OH276822   2.624   2.056   2.977 -0.7321  0.1743 -0.1748
18444TIP3    H176823   2.710   2.042   2.937 -1.6624  0.3976 -2.3262
18444TIP3    H276824   2.564   2.008   2.922 -2.2043  1.3578  0.3595
18445TIP3   OH276825   4.395   1.730  13.278  0.3125 -0.5520 -0.1273
18445TIP3    H176826   4.420   1.638  13.267  0.4415 -0.4425 -0.8016
18445TIP3    H276827   4.429   1.754  13.364  0.2348 -1.1493  0.0780
18446TIP3   OH276828   2.882   6.253  15.419 -0.2137 -0.7464  0.4949
18446TIP3    H176829   2.887   6.287  15.508 -1.5176  0.0857  0.2635
18446TIP3    H276830   2.960   6.199  15.410  0.5789  0.1505  1.7264
18447TIP3   OH276831   3.309   3.674  13.665 -0.7865  0.1711 -0.3376
18447TIP3    H176832   3.300   3.675  13.570  1.0653  0.4460 -0.5286
18447TIP3    H276833   3.241   3.613  13.695  0.2906 -1.9515 -2.0537
18448TIP3   OH276834   2.328   1.341   1.171  0.0171  0.7395 -0.3618
18448TIP3    H176835   2.347   1.368   1.260  0.1982 -0.2973 -0.0788
18448TIP3    H276836   2.236   1.315   1.173  0.1525  0.2624 -0.3655
18449TIP3   OH276837   5.280   6.370  13.495 -0.7140 -0.0488 -0.3626
18449TIP3    H176838   5.252   6.353  13.405 -1.3642  0.1968 -0.2020
18449TIP3    H276839   5.297   6.283  13.531  0.6954 -0.0965 -1.0857
18450TIP3   OH276840   0.932   0.407  14.347 -0.1777  0.3218 -0.2232
18450TIP3    H176841   0.918   0.343  14.277 -1.6954 -1.5956  1.7482
18450TIP3    H276842   0.861   0.470  14.337 -1.0099 -0.5358  0.1998
18451TIP3   OH276843   5.351   5.279   5.867 -0.3721 -0.1160  0.2087
18451TIP3    H176844   5.368   5.200   5.815  0.7276 -0.0378  0.4507
18451TIP3    H276845   5.371   5.351   5.807 -0.4598 -0.0199  0.2954
18452TIP3   OH276846   6.033   3.026   0.024  0.0082 -0.0842 -0.1747
18452TIP3    H176847   6.104   2.988   0.075  0.7065  1.2138 -0.1648
18452TIP3    H276848   6.038   2.981  -0.060  0.3224 -0.5870  0.1099
18453TIP3   OH276849   1.828   1.503  11.602 -0.1823  0.0812  0.2141
18453TIP3    H176850   1.833   1.410  11.580 -2.3297 -0.1971  0.7475
18453TIP3    H276851   1.745   1.532  11.565  1.9012  2.6122 -2.7644
18454TIP3   OH276852   5.588   2.489  13.003 -0.1225 -0.1560  0.0880
18454TIP3    H176853   5.671   2.458  13.039 -0.5536 -0.2502  0.9906
18454TIP3    H276854   5.526   2.419  13.021  0.2117 -1.3642 -3.1431
18455TIP3   OH276855   3.304   2.171   2.458 -0.1080 -0.1431 -0.6776
18455TIP3    H176856   3.341   2.113   2.524 -0.3119  0.3245 -0.1426
18455TIP3    H276857   3.360   2.249   2.461 -0.3338  0.0240 -0.8033
18456TIP3   OH276858   3.939   2.233   4.717  0.1068  0.2134  0.1193
18456TIP3    H176859   3.995   2.309   4.735 -0.7192  0.5575  1.2947
18456TIP3    H276860   3.854   2.256   4.755 -0.2734 -1.1253  0.1009
18457TIP3   OH276861   3.287   0.935   2.044 -0.5809 -1.0279  0.2952
18457TIP3    H176862   3.218   0.872   2.027 -1.5318  0.0245  0.1817
18457TIP3    H276863   3.296   0.984   1.962 -1.2734  0.3228  0.9982
18458TIP3   OH276864   3.711   0.599  12.772 -0.0101 -0.1387  0.5029
18458TIP3    H176865   3.730   0.549  12.692  0.0020  0.3724  0.1835
18458TIP3    H276866   3.618   0.619  12.765  0.3082  1.1800 -0.1115
18459TIP3   OH276867   4.555   1.389  17.195 -0.6385  0.6134  0.5277
18459TIP3    H176868   4.645   1.363  17.174 -0.7648  1.4495 -1.1304
18459TIP3    H276869   4.513   1.308  17.226  0.7278  0.2697  1.5071
18460TIP3   OH276870   3.598   4.719  12.183  0.2036 -0.3204  0.6320
18460TIP3    H176871   3.683   4.694  12.218 -0.0475 -2.9383 -0.5080
18460TIP3    H276872   3.608   4.811  12.159  2.9511 -0.8116 -0.2505
18461TIP3   OH276873   5.806   1.410  16.152 -0.4273  0.3338 -0.3628
18461TIP3    H176874   5.773   1.361  16.076 -0.4585 -1.1049  0.5511
18461TIP3    H276875   5.745   1.388  16.223 -0.0379  1.1627  0.2309
18462TIP3   OH276876   3.109   1.052   3.390 -0.2228 -0.4281  0.2322
18462TIP3    H176877   3.110   1.141   3.354  0.0490  0.6293  2.7802
18462TIP3    H276878   3.201   1.034   3.412 -0.1078 -1.7726 -1.2184
18463TIP3   OH276879   1.250   6.760   3.980  0.1167 -0.6275 -0.4703
18463TIP3    H176880   1.234   6.681   3.928 -0.1251 -0.4236 -0.7028
18463TIP3    H276881   1.230   6.734   4.070  0.5669 -0.9902 -0.4700
18464TIP3   OH276882   6.732   4.754  12.195 -0.1455  0.0923  0.3419
18464TIP3    H176883   6.652   4.785  12.154 -1.1651 -1.8896  0.7884
18464TIP3    H276884   6.800   4.770  12.129 -1.3796 -0.8962 -1.2119
18465TIP3   OH276885   0.800   2.805   2.529  0.3981  0.0212  0.3047
18465TIP3    H176886   0.815   2.764   2.444  0.5177  0.5818  0.0483
18465TIP3    H276887   0.882   2.849   2.549 -0.2450  1.5021 -0.2020
18466TIP3   OH276888   2.768   2.896   5.054  0.3232 -0.3244  0.1531
18466TIP3    H176889   2.849   2.894   5.104  0.4704 -0.4346 -0.0924
18466TIP3    H276890   2.795   2.882   4.964 -0.1830 -2.7765  0.3357
18467TIP3   OH276891   3.284   3.062  12.495  0.3940  0.0809  0.3805
18467TIP3    H176892   3.221   3.084  12.426  0.5996 -0.0217  0.1634
18467TIP3    H276893   3.368   3.057  12.451  0.2360 -1.9955  0.2595
18468TIP3   OH276894   2.638   3.552   3.678 -0.3315  0.0551 -0.6155
18468TIP3    H176895   2.691   3.616   3.725  1.3438 -0.3764 -1.8551
18468TIP3    H276896   2.653   3.470   3.725 -1.5175  0.3305  0.2489
18469TIP3   OH276897   6.126   4.815   3.986 -0.0517 -0.3586  1.1935
18469TIP3    H176898   6.206   4.832   4.035 -0.7130 -0.2456  2.2321
18469TIP3    H276899   6.071   4.765   4.046 -0.0080 -2.1330 -0.1682
18470TIP3   OH276900   2.149   4.939  10.708  0.2328  0.3595 -0.2177
18470TIP3    H176901   2.209   4.914  10.638 -0.4926 -0.1192 -0.6838
18470TIP3    H276902   2.147   4.863  10.766 -0.8062 -0.1052 -0.8295
18471TIP3   OH276903   3.038   1.010   0.677 -0.0324 -0.2946  0.4875
18471TIP3    H176904   3.104   1.075   0.656  0.1879 -0.3490  1.0020
18471TIP3    H276905   2.987   1.049   0.748 -0.2116 -0.4756  0.4591
18472TIP3   OH276906   5.995   1.164  13.653  0.0196 -0.2015 -0.4804
18472TIP3    H176907   6.087   1.151  13.630  0.7241 -1.0209  2.5615
18472TIP3    H276908   5.958   1.076  13.652  0.4337 -0.4554  2.7986
18473TIP3   OH276909   5.459   1.599  17.167 -0.0526  0.7934  0.0399
18473TIP3    H176910   5.531   1.660  17.151 -0.2244  1.5336  1.9484
18473TIP3    H276911   5.387   1.655  17.194  0.0864 -0.3088  2.8025
18474TIP3   OH276912   5.039   3.840   5.939  0.0949 -0.0185 -0.1047
18474TIP3    H176913   4.974   3.909   5.929 -2.1804 -1.9905  0.3884
18474TIP3    H276914   5.025   3.807   6.028  0.3580 -1.8152 -0.7077
18475TIP3   OH276915   2.900   5.657  11.593  0.7420  0.1239  0.0687
18475TIP3    H176916   2.892   5.578  11.646 -0.0878  0.6762  0.7879
18475TIP3    H276917   2.990   5.686  11.605  0.6742  0.0157  0.8478
18476TIP3   OH276918   0.856   3.171   2.621 -0.1539 -0.0794 -0.0837
18476TIP3    H176919   0.814   3.248   2.658  1.5932  0.9633 -0.2182
18476TIP3    H276920   0.906   3.133   2.693 -2.2923 -2.0669  0.4275
18477TIP3   OH276921   4.243   5.036  14.743 -0.0401 -0.0089 -0.0421
18477TIP3    H176922   4.303   4.966  14.719 -1.1576 -0.5406 -1.4306
18477TIP3    H276923   4.282   5.115  14.705  0.0405 -0.2770 -0.5267
18478TIP3   OH276924   0.353   0.821  14.042 -0.1814 -0.1490 -0.1432
18478TIP3    H176925   0.295   0.810  14.117  1.2108  0.0672  0.9963
18478TIP3    H276926   0.359   0.916  14.031  1.2569 -0.1123  0.8085
18479TIP3   OH276927   1.270   2.452  14.581 -0.6676  0.0523  0.2651
18479TIP3    H176928   1.232   2.531  14.543  0.1541 -0.4641 -1.6932
18479TIP3    H276929   1.278   2.391  14.507  0.4563 -1.1848  1.3751
18480TIP3   OH276930   5.235   3.085  11.569 -0.3665 -0.2393 -0.5983
18480TIP3    H176931   5.149   3.127  11.569 -0.4590 -0.4089  0.6676
18480TIP3    H276932   5.234   3.027  11.645  0.5256 -0.9749 -1.1248
18481TIP3   OH276933   2.066   2.494   2.608 -0.1588  0.1740 -0.6263
18481TIP3    H176934   2.112   2.540   2.678 -1.6781  0.3874  0.2320
18481TIP3    H276935   2.069   2.402   2.633  0.6885  0.0656 -1.0942
18482TIP3   OH276936   1.317   6.516  10.899 -0.1526 -0.2279 -0.5082
18482TIP3    H176937   1.327   6.605  10.866  1.9154 -0.2114  0.0644
18482TIP3    H276938   1.389   6.467  10.859  2.2810 -0.2578  3.6318
18483TIP3   OH276939   0.419   1.734  11.068 -0.2741 -0.8404  0.0474
18483TIP3    H176940   0.410   1.652  11.117  0.7194 -0.3629  1.0512
18483TIP3    H276941   0.397   1.711  10.978  1.9485 -2.6766 -0.0621
18484TIP3   OH276942   2.712   5.753  14.759  0.2833  0.2893  0.0618
18484TIP3    H176943   2.765   5.826  14.727  1.3831 -0.2652  0.6203
18484TIP3    H276944   2.644   5.795  14.812 -0.4019  1.0681 -1.3928
18485TIP3   OH276945   4.351   0.525   5.612 -0.0110  0.4868 -0.0286
18485TIP3    H176946   4.396   0.442   5.625 -1.3221 -0.3526 -0.7646
18485TIP3    H276947   4.313   0.545   5.698 -1.0239 -0.4819 -0.2378
18486TIP3   OH276948   2.686   1.418  11.882  0.0645 -0.5104 -0.3712
18486TIP3    H176949   2.743   1.492  11.861 -0.2715  0.7890  3.0581
18486TIP3    H276950   2.745   1.353  11.920 -0.2043 -0.6407 -0.1840
18487TIP3   OH276951   3.992   1.090   0.699  0.2524  0.7833 -0.2538
18487TIP3    H176952   3.938   1.120   0.626 -0.5137 -1.3536 -0.6072
18487TIP3    H276953   3.968   1.147   0.772 -0.3157  1.7569 -1.2072
18488TIP3   OH276954   3.867   2.981   5.265  0.3139 -0.2741 -0.2260
18488TIP3    H176955   3.869   3.014   5.354  0.2307 -1.1682  0.1183
18488TIP3    H276956   3.865   3.059   5.210  2.9147  0.3246  0.4764
18489TIP3   OH276957   1.002   4.119  15.221 -0.0403 -0.0360 -0.3661
18489TIP3    H176958   1.070   4.057  15.249 -0.6426  0.3344  2.0122
18489TIP3    H276959   1.040   4.205  15.235 -0.3742  0.1658 -0.6773
18490TIP3   OH276960   5.217   3.346   2.347  0.1719  0.1253 -0.1884
18490TIP3    H176961   5.171   3.300   2.417  0.7725  2.1281  1.5584
18490TIP3    H276962   5.149   3.392   2.299 -0.1257 -0.4142 -0.2864
18491TIP3   OH276963   1.310   5.250   1.266  0.4692  0.1451 -0.2814
18491TIP3    H176964   1.249   5.182   1.293  1.2123 -1.1361 -1.7832
18491TIP3    H276965   1.274   5.330   1.305 -1.0776 -0.8841  0.4865
18492TIP3   OH276966   6.771   5.737   2.538  0.5874  0.1158  0.1056
18492TIP3    H176967   6.765   5.801   2.467  0.4905  0.3713  0.3448
18492TIP3    H276968   6.791   5.654   2.494 -0.3579  0.1020 -0.2981
18493TIP3   OH276969   2.672   2.654   0.470 -0.2982 -0.3670  0.1981
18493TIP3    H176970   2.653   2.703   0.550 -0.5221 -2.7531  1.6294
18493TIP3    H276971   2.616   2.576   0.475  2.6724 -2.6049 -0.2712
18494TIP3   OH276972   4.509   2.072  16.640 -0.0968  0.5220  0.2730
18494TIP3    H176973   4.573   2.027  16.695  0.9969  0.4905 -0.9926
18494TIP3    H276974   4.542   2.061  16.551 -1.2475  1.5186 -0.2994
18495TIP3   OH276975   1.200   4.723   3.344  0.3164  0.1269 -0.0828
18495TIP3    H176976   1.116   4.706   3.302  0.5423  1.0240 -0.9053
18495TIP3    H276977   1.178   4.749   3.433 -0.1857 -1.3479  0.2361
18496TIP3   OH276978   3.407   1.201   1.844  0.4115  0.2340 -0.2194
18496TIP3    H176979   3.391   1.246   1.927  0.6090  0.6737 -0.4163
18496TIP3    H276980   3.492   1.157   1.856 -1.0114 -2.2873  0.9051
18497TIP3   OH276981   3.322   5.902  13.424  0.1794 -0.0306 -0.2088
18497TIP3    H176982   3.372   5.827  13.390  1.2019 -0.5351  2.2985
18497TIP3    H276983   3.232   5.885  13.396  0.2413 -2.6360  0.9743
18498TIP3   OH276984   1.333   1.403  16.233 -0.4080 -0.2443  0.5342
18498TIP3    H176985   1.347   1.403  16.138  0.1545 -1.2349  0.6094
18498TIP3    H276986   1.316   1.495  16.255  0.9775  0.2287 -0.3105
18499TIP3   OH276987   1.963   0.001  15.879  0.4208  0.4041 -0.2272
18499TIP3    H176988   1.928   0.075  15.930 -0.8616 -0.8048  0.6951
18499TIP3    H276989   2.030  -0.037  15.936 -1.2643 -1.1679  0.7630
18500TIP3   OH276990   1.585   4.621   4.034  0.0668  0.1140 -0.1757
18500TIP3    H176991   1.527   4.546   4.027  1.1251 -0.7661  0.4114
18500TIP3    H276992   1.545   4.676   4.102  0.2832 -0.8166  0.7171
18501TIP3   OH276993   0.744   2.948  17.087  0.2356 -0.2615 -0.7742
18501TIP3    H176994   0.836   2.946  17.113 -0.0021 -1.6762 -0.0173
18501TIP3    H276995   0.702   2.880  17.139 -1.3703  0.7746 -0.6643
18502TIP3   OH276996   1.736   6.026  17.184  0.3692  0.3703 -0.1962
18502TIP3    H176997   1.780   5.983  17.111 -0.1190  1.6213 -1.2588
18502TIP3    H276998   1.645   5.995  17.180  0.2817  0.6298 -0.2869
18503TIP3   OH276999   4.275   0.731   3.306 -0.4917  0.2573 -0.3839
18503TIP3    H177000   4.231   0.670   3.248 -3.4437  0.0716  1.9063
18503TIP3    H277001   4.340   0.679   3.352 -0.3442 -0.3051 -1.2330
18504TIP3   OH277002   6.442   4.708  14.146 -0.1601  0.2456 -0.2938
18504TIP3    H177003   6.366   4.673  14.193 -0.3939 -0.3257 -1.0826
18504TIP3    H277004   6.509   4.640  14.156  0.6713  1.2730  1.4337
18505TIP3   OH277005   0.726   2.435   2.222  0.0038  0.5629 -0.2393
18505TIP3    H177006   0.702   2.343   2.224  1.5858  0.1082 -1.2784
18505TIP3    H277007   0.642   2.482   2.220 -0.8045 -0.8645 -0.5785
18506TIP3   OH277008   2.190   1.144   4.493  0.2681 -0.3104 -0.1663
18506TIP3    H177009   2.109   1.168   4.448 -1.0918 -1.8781  1.3420
18506TIP3    H277010   2.240   1.095   4.428 -0.8141 -0.8967 -0.5666
18507TIP3   OH277011   4.029   0.350   1.560 -0.2570  0.4643  0.1309
18507TIP3    H177012   3.948   0.336   1.609  0.3231 -3.0778  0.2198
18507TIP3    H277013   4.083   0.404   1.618 -1.4164  0.3341  1.3674
18508TIP3   OH277014   5.166   3.957  13.872  0.3620  0.3210  0.1811
18508TIP3    H177015   5.191   3.932  13.961 -0.7233  0.5227  0.5501
18508TIP3    H277016   5.248   3.958  13.823  0.7977 -1.1821  0.8457
18509TIP3   OH277017   5.678   5.628   1.656  0.2682  0.3032 -0.4561
18509TIP3    H177018   5.602   5.648   1.710 -0.1363 -0.3635 -0.7834
18509TIP3    H277019   5.746   5.688   1.688 -0.2434  0.5593  0.1617
18510TIP3   OH277020   6.383   6.584  11.668  0.1340  0.7901 -0.3780
18510TIP3    H177021   6.448   6.650  11.694 -0.0994 -0.0546  2.5882
18510TIP3    H277022   6.301   6.616  11.706 -0.2645 -0.4736 -0.1800
18511TIP3   OH277023   5.246   1.723  16.993 -0.2857 -0.1103 -0.2419
18511TIP3    H177024   5.231   1.661  17.065  0.4552  0.8519  0.7618
18511TIP3    H277025   5.164   1.770  16.985  0.3026  1.2710  1.4610
18512TIP3   OH277026   2.947   6.107   2.586  0.0869 -0.6944  0.7260
18512TIP3    H177027   2.990   6.185   2.620  1.1030  0.1650 -2.3831
18512TIP3    H277028   3.019   6.053   2.552 -0.8141 -1.8491  0.6047
18513TIP3   OH277029   2.779   4.347   1.488 -0.0854 -0.7795 -0.1516
18513TIP3    H177030   2.859   4.298   1.465  0.3249  0.0811 -0.6205
18513TIP3    H277031   2.750   4.384   1.404  0.0918  0.4585  0.3167
18514TIP3   OH277032   1.231   5.645  11.407  1.0544  0.0673  0.0449
18514TIP3    H177033   1.198   5.567  11.450  0.0836  0.9586  0.9289
18514TIP3    H277034   1.298   5.612  11.346  0.7072 -1.4284  0.4550
18515TIP3   OH277035   3.966   4.169  16.157  0.1072  0.2399 -0.2994
18515TIP3    H177036   3.971   4.224  16.235 -1.1404 -0.7486  0.4906
18515TIP3    H277037   3.983   4.229  16.084 -2.4672  1.9248  0.4607
18516TIP3   OH277038   6.069   3.157   3.893 -0.1461  0.0620  0.5950
18516TIP3    H177039   6.077   3.079   3.839  1.8726  0.2705  0.5557
18516TIP3    H277040   6.003   3.134   3.959  1.8795 -2.4435  1.8430
18517TIP3   OH277041   4.235   2.087   0.386  0.2345  0.2591 -0.1485
18517TIP3    H177042   4.229   2.179   0.357  0.5195  0.5589  0.7395
18517TIP3    H277043   4.174   2.082   0.460  1.0228 -0.0110  0.4770
18518TIP3   OH277044   1.367   2.428  12.462 -0.2588 -0.5966  0.3909
18518TIP3    H177045   1.292   2.434  12.403  0.6421  0.9846 -0.6089
18518TIP3    H277046   1.436   2.478  12.419  0.8709 -0.6679  2.0780
18519TIP3   OH277047   6.600   0.234  16.026 -0.4053 -0.4086  0.2216
18519TIP3    H177048   6.538   0.304  16.049  0.0885  0.8541 -2.0530
18519TIP3    H277049   6.557   0.187  15.954 -0.8593 -2.6674  1.9267
18520TIP3   OH277050   0.135   1.593  11.339  0.0343 -0.2740 -0.5202
18520TIP3    H177051   0.105   1.681  11.320  0.7063 -0.1989 -1.2802
18520TIP3    H277052   0.056   1.540  11.340 -0.5511  0.5976  1.5023
18521TIP3   OH277053   3.326   0.174   1.747 -0.3789 -0.4814  0.4317
18521TIP3    H177054   3.270   0.201   1.820  1.2826  0.3479  1.4340
18521TIP3    H277055   3.414   0.174   1.783  0.3307 -1.3202 -1.2499
18522TIP3   OH277056   6.246   1.543   0.800  0.2354  0.4619  0.3613
18522TIP3    H177057   6.201   1.612   0.848  1.1876  0.1187  1.7922
18522TIP3    H277058   6.322   1.522   0.854  0.1219 -1.5017 -0.1996
18523TIP3   OH277059   5.542   3.880  12.552  0.0235  0.2282 -0.2047
18523TIP3    H177060   5.619   3.824  12.541 -0.2479  0.1990 -2.0105
18523TIP3    H277061   5.574   3.969  12.537  0.3647  0.5825  2.2599
18524TIP3   OH277062   5.899   1.548   5.761  0.3280 -0.4928 -0.3037
18524TIP3    H177063   5.964   1.571   5.826  0.5021 -2.4171  0.2511
18524TIP3    H277064   5.824   1.605   5.779  1.2313  0.5675  0.1058
18525TIP3   OH277065   4.396   0.231   3.364 -0.2219  0.5040 -0.1025
18525TIP3    H177066   4.469   0.185   3.322  1.8732  1.1627  2.7074
18525TIP3    H277067   4.322   0.170   3.356  0.8875 -0.6636 -1.9757
18526TIP3   OH277068   6.720   3.360   3.490 -0.0181 -0.0087  0.3238
18526TIP3    H177069   6.808   3.397   3.494 -0.3893  0.8950  0.2822
18526TIP3    H277070   6.674   3.399   3.564  0.1097 -1.8338  1.4103
18527TIP3   OH277071   1.053   6.658  16.151 -0.0361 -0.2057 -0.1868
18527TIP3    H177072   1.090   6.709  16.222  0.2492 -0.8902  0.1583
18527TIP3    H277073   1.102   6.685  16.073  0.9266 -0.8184  0.2007
18528TIP3   OH277074   2.965   2.208  16.870  0.4250  0.0134  0.0965
18528TIP3    H177075   2.984   2.290  16.824 -0.6444  0.5938  0.6767
18528TIP3    H277076   3.039   2.198  16.931  0.8049  0.2854 -0.3124
18529TIP3   OH277077   6.781   2.364  15.058  0.2701 -0.1314 -0.0600
18529TIP3    H177078   6.774   2.297  14.991 -0.6848 -0.5793  0.4716
18529TIP3    H277079   6.807   2.443  15.011 -1.8565 -0.0698 -1.1746
18530TIP3   OH277080   2.552   5.990   2.276  0.4865  0.5170 -0.9202
18530TIP3    H177081   2.605   6.043   2.335  0.5100 -2.8602  2.2938
18530TIP3    H277082   2.463   6.022   2.289  0.5404  0.0484  0.7679
18531TIP3   OH277083   5.346   2.862  11.725  0.8941 -0.2716  0.2684
18531TIP3    H177084   5.436   2.883  11.699  1.2910 -0.3881  1.5056
18531TIP3    H277085   5.349   2.857  11.821 -0.1965 -1.3359  0.2648
18532TIP3   OH277086   4.634   5.659  14.529  0.4448  0.5201  0.0331
18532TIP3    H177087   4.663   5.747  14.556 -0.6397  1.1553 -0.8286
18532TIP3    H277088   4.679   5.644  14.446  0.2142  0.4879 -0.0874
18533TIP3   OH277089   1.586   2.066  12.601  0.2173  0.3545  0.3626
18533TIP3    H177090   1.622   1.983  12.630  0.8460 -0.2780 -2.0964
18533TIP3    H277091   1.506   2.077  12.652  1.1138 -0.8378  2.0445
18534TIP3   OH277092   0.418   6.630   3.033  0.2893  0.6093 -0.0554
18534TIP3    H177093   0.478   6.601   2.964 -1.6324 -1.8068 -0.7890
18534TIP3    H277094   0.457   6.596   3.114  1.2947  1.3881 -0.1984
18535TIP3   OH277095   5.159   6.774   1.165 -0.1503 -0.3796 -0.1442
18535TIP3    H177096   5.099   6.699   1.169 -0.1905 -0.3569 -0.2893
18535TIP3    H277097   5.225   6.747   1.102  0.8386 -1.0066  1.1399
18536TIP3   OH277098   1.643   0.978  10.969  0.8370 -0.1242  0.2127
18536TIP3    H177099   1.591   1.021  10.901  0.3009 -0.3177  0.5017
18536TIP3    H277100   1.656   1.044  11.036  1.1971  0.0059  0.0167
18537TIP3   OH277101   2.652   3.201   0.587 -0.1334  0.1574 -0.2058
18537TIP3    H177102   2.602   3.275   0.552 -0.6593  0.2031  0.6102
18537TIP3    H277103   2.607   3.124   0.555 -0.6866  0.1991  0.4685
18538TIP3   OH277104   5.890   0.153  11.498  0.6794  0.4191  0.3808
18538TIP3    H177105   5.869   0.091  11.429  1.7380 -1.0839  1.3769
18538TIP3    H277106   5.964   0.203  11.464  0.2436  0.6952 -0.1632
18539TIP3   OH277107   4.097   0.179  12.644 -0.1215 -0.5099  0.1324
18539TIP3    H177108   4.087   0.190  12.549 -3.1430 -2.5965  0.1519
18539TIP3    H277109   4.014   0.206  12.681  1.7754  2.3945  2.4734
18540TIP3   OH277110   5.777   3.891  13.060 -0.2053 -0.3223  0.0424
18540TIP3    H177111   5.865   3.906  13.096 -0.1326 -0.1716 -0.1960
18540TIP3    H277112   5.770   3.954  12.989 -1.0936  0.7329  1.0412
18541TIP3   OH277113   2.027   2.011   3.441  0.0674  0.0085  0.2681
18541TIP3    H177114   1.967   2.016   3.366  0.9950 -0.2075 -0.5006
18541TIP3    H277115   2.006   1.926   3.481  0.5361 -0.5195 -0.5862
18542TIP3   OH277116   3.626   5.289  11.242  0.4192 -0.6024  0.0248
18542TIP3    H177117   3.571   5.348  11.294  0.2488 -2.6272  2.2230
18542TIP3    H277118   3.714   5.326  11.250  0.0622  0.2768 -0.0139
18543TIP3   OH277119   4.499   0.164  13.120  0.2269 -0.3834 -0.1240
18543TIP3    H177120   4.445   0.085  13.119 -1.1271  0.5250  0.1108
18543TIP3    H277121   4.545   0.161  13.204 -0.1711 -0.6732  0.0848
18544TIP3   OH277122   1.506   6.808  15.612 -0.0526  0.0533  0.2415
18544TIP3    H177123   1.534   6.825  15.521 -0.4115  1.4030  0.3727
18544TIP3    H277124   1.570   6.744  15.644 -0.5502 -1.2752 -1.2934
18545TIP3   OH277125   0.035   2.702   3.366 -0.9886  0.4018  0.4535
18545TIP3    H177126  -0.008   2.700   3.281 -1.3590  1.6502  0.6060
18545TIP3    H277127   0.029   2.793   3.395 -0.6449  0.0479  1.6989
18546TIP3   OH277128   6.167   0.541   1.099  1.0275  0.2594  0.0695
18546TIP3    H177129   6.145   0.606   1.166  0.0323  1.4117 -1.3710
18546TIP3    H277130   6.150   0.584   1.016  0.2535 -1.8725 -0.9195
18547TIP3   OH277131   4.011   6.455  11.111  0.0873 -0.1876  0.1199
18547TIP3    H177132   4.050   6.532  11.070  1.0431 -0.0872  1.1930
18547TIP3    H277133   3.988   6.397  11.038  1.6863  0.0274 -0.5637
18548TIP3   OH277134   4.968   5.375  15.996 -0.4287 -0.5062  0.1938
18548TIP3    H177135   5.038   5.439  15.993 -1.0078  0.1286  0.1669
18548TIP3    H277136   4.988   5.314  15.925  0.4636 -0.7227  0.6332
18549TIP3   OH277137   1.041   6.820  12.292 -0.2131  0.4259 -0.0554
18549TIP3    H177138   0.947   6.828  12.273 -0.3890  0.9448  0.9873
18549TIP3    H277139   1.062   6.728  12.272 -1.2250 -0.0281  0.9274
18550TIP3   OH277140   4.338   5.371  13.676 -0.2297  0.3693  0.7197
18550TIP3    H177141   4.295   5.452  13.649  0.2705  0.2040 -0.6059
18550TIP3    H277142   4.410   5.400  13.732  0.0634  0.8689  0.0963
18551TIP3   OH277143   2.776   0.071   5.326 -0.3045 -0.1459  0.6357
18551TIP3    H177144   2.756   0.122   5.405 -1.5246 -1.1983  1.0262
18551TIP3    H277145   2.744   0.125   5.254 -1.7469 -0.4273  1.0566
18552TIP3   OH277146   5.596   0.642   3.499 -0.4215 -0.4098 -0.3464
18552TIP3    H177147   5.623   0.623   3.588  3.1603  1.7719 -0.8915
18552TIP3    H277148   5.673   0.624   3.445 -2.0989 -0.4237 -2.8566
18553TIP3   OH277149   3.513   5.508   2.236 -1.2045 -0.7965  0.5954
18553TIP3    H177150   3.479   5.595   2.254  1.1725  0.4975 -0.9538
18553TIP3    H277151   3.539   5.473   2.321 -3.1156 -0.4313  1.3459
18554TIP3   OH277152   0.580   3.330   2.116 -0.2105  0.1199  0.2774
18554TIP3    H177153   0.503   3.294   2.073 -0.2123  0.7004 -0.2097
18554TIP3    H277154   0.545   3.388   2.184 -0.1984  0.3647  0.0723
18555TIP3   OH277155   2.658   5.036  16.488  0.3855  0.1447 -0.2561
18555TIP3    H177156   2.665   5.108  16.426  0.2141 -0.7206 -1.2936
18555TIP3    H277157   2.720   4.971  16.457  0.0636 -0.4318  0.2928
18556TIP3   OH277158   2.009   4.891  15.084  1.2296 -0.1183  0.0436
18556TIP3    H177159   2.061   4.876  15.005 -1.6018  1.0245 -2.1425
18556TIP3    H277160   2.047   4.969  15.123  0.5116  1.3637 -2.1275
18557TIP3   OH277161   1.677   0.921  13.372 -0.4234  0.1378  0.0885
18557TIP3    H177162   1.597   0.943  13.419 -0.0623  1.7273  0.0041
18557TIP3    H277163   1.743   0.912  13.441 -0.2742  0.7219  0.0278
18558TIP3   OH277164   0.599   2.556   2.859 -0.8726 -0.2502  0.0573
18558TIP3    H177165   0.584   2.647   2.835  0.2013  0.4023  1.8024
18558TIP3    H277166   0.637   2.559   2.946 -1.7799 -2.4297  0.5778
18559TIP3   OH277167   5.346   4.226   2.829 -0.2920  1.1421  0.1152
18559TIP3    H177168   5.418   4.250   2.771 -0.3603 -0.1924 -0.5498
18559TIP3    H277169   5.316   4.308   2.866  1.3628  1.7473  0.1343
18560TIP3   OH277170   3.542   4.636   1.191  0.3151  0.2326  0.1990
18560TIP3    H177171   3.465   4.685   1.163  0.4839  0.4802  0.1664
18560TIP3    H277172   3.523   4.545   1.168 -0.2206  0.2043  0.7451
18561TIP3   OH277173   1.373   3.131  11.587  0.2469 -0.4655 -0.0292
18561TIP3    H177174   1.304   3.185  11.549 -0.5794 -1.4925 -0.0161
18561TIP3    H277175   1.419   3.094  11.511  0.8775  0.3319 -0.0388
18562TIP3   OH277176   0.375   0.674  16.998  0.3767 -1.1137  0.2481
18562TIP3    H177177   0.384   0.750  17.056 -1.2089 -1.5770  1.1176
18562TIP3    H277178   0.450   0.681  16.938  0.6979  0.6841  0.8289
18563TIP3   OH277179   4.845   1.342  11.625  0.2292 -0.5014 -0.0074
18563TIP3    H177180   4.820   1.416  11.680  0.2407  0.6035 -1.4518
18563TIP3    H277181   4.826   1.265  11.678 -1.1672  0.4921  0.9585
18564TIP3   OH277182   1.118   4.879   2.245 -0.2319  0.1380 -0.3088
18564TIP3    H177183   1.197   4.877   2.191  2.7481 -2.0809  3.8831
18564TIP3    H277184   1.064   4.808   2.210  1.2901 -0.7598 -0.9006
18565TIP3   OH277185   6.275   2.529  11.705 -0.4140 -0.2477  0.5565
18565TIP3    H177186   6.294   2.500  11.616 -0.8360  0.1310  0.3454
18565TIP3    H277187   6.356   2.511  11.753 -0.5802 -1.5275  0.3733
18566TIP3   OH277188   4.233   6.637   4.807  0.1008  0.0181 -0.0239
18566TIP3    H177189   4.275   6.606   4.888  0.5454  0.9605  0.1161
18566TIP3    H277190   4.224   6.559   4.753 -1.0852 -0.8022  1.3185
18567TIP3   OH277191   6.029   0.359   4.716 -0.0536  0.1894 -0.4270
18567TIP3    H177192   5.976   0.406   4.780  0.1642 -0.2695  0.0941
18567TIP3    H277193   6.118   0.394   4.729  0.0231 -0.0320 -0.3559
18568TIP3   OH277194   6.069   2.077   5.791 -0.3343  0.3176  0.5674
18568TIP3    H177195   6.056   2.171   5.806 -0.2500  0.0463  2.4637
18568TIP3    H277196   5.997   2.035   5.838 -1.1179 -0.5163 -1.3643
18569TIP3   OH277197   3.256   0.848  14.912 -0.2259 -0.0340  0.3847
18569TIP3    H177198   3.190   0.918  14.911  1.1526  1.3165  1.7326
18569TIP3    H277199   3.232   0.792  14.838 -2.2536  1.0138  0.1957
18570TIP3   OH277200   0.518   2.050   3.800  0.3420  0.1667 -0.3919
18570TIP3    H177201   0.487   2.112   3.866 -2.3157 -2.4076  0.8659
18570TIP3    H277202   0.474   2.078   3.719 -1.8688 -0.8115  0.4447
18571TIP3   OH277203   2.012   0.259   3.472 -0.0676  0.0411  0.1485
18571TIP3    H177204   2.071   0.199   3.520 -1.0998 -1.5946 -0.5747
18571TIP3    H277205   2.063   0.287   3.397 -0.1295 -1.2746 -0.4085
18572TIP3   OH277206   5.325   0.632   4.387 -0.4992  0.8138  0.0278
18572TIP3    H177207   5.413   0.668   4.379 -0.9554  1.5572 -1.9211
18572TIP3    H277208   5.275   0.699   4.434 -0.6583  1.5532 -1.1729
18573TIP3   OH277209   6.056   3.813  14.790 -0.1528 -0.4237  0.4069
18573TIP3    H177210   5.979   3.869  14.779 -0.5101 -0.7934  0.9840
18573TIP3    H277211   6.027   3.727  14.758 -0.4867 -0.9482  2.0805
18574TIP3   OH277212   3.988   3.334   2.120  0.7662 -0.1496  0.2612
18574TIP3    H177213   3.894   3.319   2.116  0.5904  0.1525  2.4578
18574TIP3    H277214   4.014   3.302   2.206  2.6673 -0.1308 -0.2699
18575TIP3   OH277215   3.902   5.670  12.288  0.2820 -0.0405  0.2070
18575TIP3    H177216   3.994   5.649  12.301  0.1041 -0.7809  0.3015
18575TIP3    H277217   3.900   5.719  12.206  0.7243 -0.2647  0.0619
18576TIP3   OH277218   1.632   3.791   3.430  0.0837 -0.7419  0.4545
18576TIP3    H177219   1.599   3.711   3.471  0.0736 -0.8203  0.2937
18576TIP3    H277220   1.657   3.847   3.504  2.9150 -2.0618  0.5472
18577TIP3   OH277221   2.798   1.693   2.502  0.2214  0.3293  0.3361
18577TIP3    H177222   2.866   1.644   2.456  1.0602  1.0779  0.7674
18577TIP3    H277223   2.845   1.759   2.552 -0.7169  0.0039  1.7067
18578TIP3   OH277224   1.958   0.251  11.774  0.0743  0.2649 -0.0992
18578TIP3    H177225   1.878   0.281  11.816  0.5709 -0.8897  1.7301
18578TIP3    H277226   2.029   0.287  11.826  0.7183 -0.4259 -0.4696
18579TIP3   OH277227   0.803   0.616  11.205  0.1737 -0.0826  0.1176
18579TIP3    H177228   0.880   0.644  11.155 -0.0497 -1.3374 -0.9453
18579TIP3    H277229   0.755   0.559  11.146 -1.1038 -0.0520  1.1054
18580TIP3   OH277230   2.576   6.060   0.017  0.1169  0.9633  0.2515
18580TIP3    H177231   2.577   5.968  -0.010 -1.2799  0.4256  1.9248
18580TIP3    H277232   2.647   6.100  -0.033  0.0549 -0.7852 -1.3202
18581TIP3   OH277233   1.938   3.225  11.675  0.5760  0.2119  0.7360
18581TIP3    H177234   1.975   3.154  11.726  0.8334 -1.8711 -2.2191
18581TIP3    H277235   1.856   3.189  11.640  0.0908  1.7860  0.2091
18582TIP3   OH277236   5.654   4.926  13.082  0.1134  0.2134  0.4932
18582TIP3    H177237   5.667   4.836  13.109 -0.7818 -0.3330 -0.8721
18582TIP3    H277238   5.667   4.977  13.162  0.0821 -1.1553  1.3850
18583TIP3   OH277239   2.172   3.527  12.199  0.2030 -0.0458  0.4188
18583TIP3    H177240   2.155   3.499  12.289 -0.7401 -0.3177  0.1650
18583TIP3    H277241   2.086   3.555  12.167  1.2016  3.9335  0.9209
18584TIP3   OH277242   6.645   4.376   5.774  0.5331  0.2731  0.8075
18584TIP3    H177243   6.617   4.305   5.833 -1.5932 -0.3103 -0.8302
18584TIP3    H277244   6.600   4.453   5.807  1.4523  0.5146  1.5243
18585TIP3   OH277245   3.345   2.733  15.435  0.5157  0.8986  0.1028
18585TIP3    H177246   3.261   2.743  15.480 -0.0458  0.0778 -0.7639
18585TIP3    H277247   3.403   2.795  15.480 -0.5834  1.5833  0.6100
18586TIP3   OH277248   5.209   3.448  14.151  0.7020  0.3494 -0.4804
18586TIP3    H177249   5.172   3.500  14.079 -0.1735 -1.5764 -1.4552
18586TIP3    H277250   5.171   3.485  14.230 -2.2532 -0.6428 -1.3558
18587TIP3   OH277251   3.389   1.933  13.291 -0.0980 -0.0224 -0.8503
18587TIP3    H177252   3.454   1.890  13.236  0.3513 -0.6377  0.1460
18587TIP3    H277253   3.439   1.970  13.364 -0.5464  1.7741 -1.4170
18588TIP3   OH277254   5.038   5.259   3.666 -0.2474  0.4332 -0.2190
18588TIP3    H177255   4.964   5.297   3.713  1.0376  0.0294  2.2201
18588TIP3    H277256   5.039   5.167   3.693  0.0242 -0.0293 -1.7281
18589TIP3   OH277257   6.334   0.625  17.217 -0.3925 -0.5435  0.0680
18589TIP3    H177258   6.394   0.555  17.195  0.5457  0.3461 -0.2304
18589TIP3    H277259   6.355   0.647  17.308 -0.9084 -0.8657  0.2689
18590TIP3   OH277260   5.801   4.428  13.264  0.0289 -0.5686 -0.3213
18590TIP3    H177261   5.811   4.333  13.266  0.9450 -0.4657  0.2452
18590TIP3    H277262   5.875   4.461  13.315 -0.2610  0.4495 -0.5486
18591TIP3   OH277263   0.301   5.705  15.197 -0.3519  0.7217  0.3997
18591TIP3    H177264   0.347   5.718  15.280 -1.9532 -0.0775  1.4300
18591TIP3    H277265   0.213   5.677  15.222 -1.1767  1.4777 -1.5641
18592TIP3   OH277266   2.397   5.360   4.382  0.4063  0.2851 -0.3780
18592TIP3    H177267   2.330   5.360   4.314  0.0928 -2.4676 -0.1285
18592TIP3    H277268   2.480   5.351   4.335  0.3243  0.0670 -0.4788
18593TIP3   OH277269   1.977   3.496  14.531  0.0413 -0.1753 -0.0572
18593TIP3    H177270   1.887   3.523  14.512 -0.8397 -1.5794  1.8812
18593TIP3    H277271   2.002   3.548  14.607  0.5525 -0.3984 -0.0729
18594TIP3   OH277272   1.984   4.793  11.909  0.7617  0.7708 -0.1982
18594TIP3    H177273   2.054   4.789  11.974 -1.4916  1.5791  2.3802
18594TIP3    H277274   1.980   4.705  11.873  1.5286  0.1003  1.3195
18595TIP3   OH277275   5.115   2.961  11.041 -0.5954 -0.1446  0.4368
18595TIP3    H177276   5.114   2.867  11.025 -0.6551  0.1366 -1.3452
18595TIP3    H277277   5.194   2.992  10.995 -1.6183  0.9248 -0.6338
18596TIP3   OH277278   2.957   3.882   4.278  0.3889 -0.5893  0.1946
18596TIP3    H177279   3.024   3.897   4.345  1.0302 -0.4095 -0.4799
18596TIP3    H277280   2.882   3.934   4.306  0.6041 -0.6395  0.8560
18597TIP3   OH277281   2.111   0.353  11.970  0.4871  0.5980 -0.2972
18597TIP3    H177282   2.175   0.288  11.944 -0.0176  0.4701 -1.2302
18597TIP3    H277283   2.159   0.435  11.972  0.8143  0.4082 -0.4281
18598TIP3   OH277284   2.676   5.366  15.783  0.1134  0.1328 -0.1351
18598TIP3    H177285   2.656   5.286  15.832  1.0490  0.2135  0.4117
18598TIP3    H277286   2.757   5.345  15.736  0.3476  0.7488 -0.0082
18599TIP3   OH277287   3.692   6.447   2.652 -0.1954 -0.6866  0.4033
18599TIP3    H177288   3.714   6.360   2.685  0.5305 -0.6233  0.1002
18599TIP3    H277289   3.630   6.430   2.581 -1.1403 -0.8691  1.2685
18600TIP3   OH277290   0.647   1.196  12.688 -0.1112  0.3523  0.2053
18600TIP3    H177291   0.638   1.164  12.599 -3.1160  0.0057  0.5957
18600TIP3    H277292   0.601   1.132  12.742  0.9098  1.0204  1.9178
18601TIP3   OH277293   4.770   6.703  15.685  0.1162 -0.2510  0.2356
18601TIP3    H177294   4.813   6.724  15.602  2.0335  2.4487  1.8315
18601TIP3    H277295   4.687   6.751  15.681 -0.1663 -0.8038 -0.4780
18602TIP3   OH277296   4.822   1.002   3.673 -0.1239 -0.1219  1.5526
18602TIP3    H177297   4.786   0.994   3.762 -0.2132 -0.0996  1.5184
18602TIP3    H277298   4.780   0.932   3.623 -0.8129  0.4781  1.2852
18603TIP3   OH277299   3.510   0.228   1.963  0.0105  0.1195  0.4549
18603TIP3    H177300   3.463   0.307   1.934 -2.0961 -1.3876 -0.3881
18603TIP3    H277301   3.548   0.252   2.047  3.0213  3.3827 -1.7014
18604TIP3   OH277302   6.595   3.386   5.290  0.0257  0.2977  0.5092
18604TIP3    H177303   6.535   3.343   5.230  0.8296  0.0101 -0.1032
18604TIP3    H277304   6.657   3.318   5.316 -2.2530 -0.4604  4.2916
18605TIP3   OH277305   5.636   6.077  15.420  0.4502  0.3626 -0.2334
18605TIP3    H177306   5.555   6.033  15.448  1.1195  0.7547  2.4565
18605TIP3    H277307   5.700   6.006  15.413 -0.0276  0.0827 -2.1517
18606TIP3   OH277308   2.633   1.087  16.998 -0.0059  0.7506 -0.0408
18606TIP3    H177309   2.643   0.993  16.982 -0.7981  0.4119  1.3244
18606TIP3    H277310   2.588   1.092  17.083  0.8042  2.3694  0.3192
18607TIP3   OH277311   2.408   1.372  16.293 -0.0931 -0.2359  0.1065
18607TIP3    H177312   2.377   1.380  16.383  1.8290 -0.5986  0.8302
18607TIP3    H277313   2.400   1.460  16.256 -1.1979 -0.1599  0.5278
18608TIP3   OH277314   0.684   6.057  12.163  0.7936 -0.1257  0.4317
18608TIP3    H177315   0.742   5.981  12.166  1.6823  0.5258  0.0556
18608TIP3    H277316   0.731   6.121  12.108  0.2014  0.7993  0.9874
18609TIP3   OH277317   5.064   3.495  11.408 -0.1176  0.1014  0.1785
18609TIP3    H177318   4.993   3.461  11.354 -1.3723 -0.1471  1.9664
18609TIP3    H277319   5.143   3.482  11.354 -1.1358 -1.5502 -0.9685
18610TIP3   OH277320   2.161   6.415   0.009 -0.1916 -0.0484 -0.5637
18610TIP3    H177321   2.255   6.409   0.027 -0.3716 -2.2062 -0.2338
18610TIP3    H277322   2.157   6.428  -0.086  0.4467  1.0925 -0.4544
18611TIP3   OH277323   3.118   3.982  15.845 -0.3780  0.0501  0.4466
18611TIP3    H177324   3.121   4.031  15.928  1.6343  0.5706  0.1062
18611TIP3    H277325   3.206   3.946  15.836 -0.3682  0.5874 -1.8142
18612TIP3   OH277326   0.284   1.213   3.779 -0.5865  0.1580  0.0406
18612TIP3    H177327   0.331   1.292   3.750 -0.4355  0.2270  0.4726
18612TIP3    H277328   0.244   1.238   3.862  0.4077 -0.5695  0.7464
18613TIP3   OH277329   0.691   6.421  12.359 -0.1740 -0.4086  0.0478
18613TIP3    H177330   0.706   6.333  12.324 -2.1741 -1.0371  0.6666
18613TIP3    H277331   0.718   6.414  12.451  1.9849  0.3288 -0.5076
18614TIP3   OH277332   0.372   1.674  16.187  0.6947 -0.5531 -0.0177
18614TIP3    H177333   0.451   1.672  16.134  2.1256 -3.3344  2.1280
18614TIP3    H277334   0.353   1.583  16.207 -2.3673  0.1351  0.5938
18615TIP3   OH277335   0.928   0.482   1.112  0.2567 -0.7265  0.1822
18615TIP3    H177336   0.843   0.521   1.091 -0.1569 -2.1106 -0.7751
18615TIP3    H277337   0.991   0.534   1.061 -0.0082  0.2600  0.8457
18616TIP3   OH277338   4.794   1.912   3.420 -0.8809 -0.0364 -0.1666
18616TIP3    H177339   4.815   1.840   3.480 -0.6624 -0.4888 -0.7908
18616TIP3    H277340   4.854   1.902   3.347 -0.7151  0.9035 -0.1661
18617TIP3   OH277341   3.513   5.666   4.838 -0.0360 -0.0336  0.4507
18617TIP3    H177342   3.508   5.588   4.784  0.8806 -0.7585  1.3900
18617TIP3    H277343   3.607   5.685   4.844 -0.1369  0.1360  1.6215
18618TIP3   OH277344   0.219   5.630   0.254  0.1527 -0.3688 -0.0954
18618TIP3    H177345   0.225   5.719   0.219 -2.5650 -0.1441 -0.0874
18618TIP3    H277346   0.267   5.633   0.337  1.4942  0.6424 -0.9030
18619TIP3   OH277347   0.574   3.918  12.115 -0.0697  0.7908 -0.3451
18619TIP3    H177348   0.654   3.875  12.084 -2.0775 -3.9167  0.4584
18619TIP3    H277349   0.590   3.935  12.208 -0.3961 -1.3298  0.1265
18620TIP3   OH277350   4.034   4.830  11.045  0.1144 -0.2057 -0.1556
18620TIP3    H177351   3.958   4.878  11.077 -0.5995 -0.9430 -0.6993
18620TIP3    H277352   4.027   4.835  10.949  1.7126  1.2005 -0.2253
18621TIP3   OH277353   4.851   1.030   5.006  0.4935 -0.1404 -0.2399
18621TIP3    H177354   4.892   1.107   4.968 -2.0656  1.6586  0.5617
18621TIP3    H277355   4.896   1.017   5.089  1.6891 -0.2127 -0.8904
18622TIP3   OH277356   4.478   3.882  17.180 -0.2389 -0.4654  0.2264
18622TIP3    H177357   4.502   3.885  17.088  0.3953 -1.4872  0.3401
18622TIP3    H277358   4.389   3.848  17.181  0.9628 -3.8404  0.1171
18623TIP3   OH277359   3.230   4.357   5.737 -0.5264  0.1594  0.2367
18623TIP3    H177360   3.212   4.449   5.720 -0.4290  0.1570  0.1166
18623TIP3    H277361   3.284   4.357   5.816 -1.4682  0.1366  0.8811
18624TIP3   OH277362   2.058   0.719  12.410  0.3409  0.4316  0.2898
18624TIP3    H177363   2.070   0.658  12.338  0.2871  1.8930 -0.9734
18624TIP3    H277364   2.134   0.778  12.405 -0.3611  1.3763  0.5888
18625TIP3   OH277365   3.438   6.408  13.513  0.0074  0.5633  0.1191
18625TIP3    H177366   3.499   6.379  13.582 -0.4546  0.7283  0.5998
18625TIP3    H277367   3.474   6.491  13.484  1.4726 -0.5823 -1.4329
18626TIP3   OH277368   0.286   4.006  12.235  0.1059 -0.1515 -0.0875
18626TIP3    H177369   0.241   3.959  12.305  0.4413  0.4879  0.5612
18626TIP3    H277370   0.335   4.075  12.279  0.1684  0.3809 -0.9681
18627TIP3   OH277371   5.650   5.082  11.623 -0.4216 -0.8397  0.2045
18627TIP3    H177372   5.586   5.100  11.554 -1.1835  1.9754  1.5633
18627TIP3    H277373   5.601   5.094  11.705  0.8597 -2.5690  1.2596
18628TIP3   OH277374   5.402   4.034  11.071  0.1142  0.0524 -0.0588
18628TIP3    H177375   5.456   3.988  11.006 -0.2399 -1.8061  0.9103
18628TIP3    H277376   5.319   4.050  11.027  0.8370  1.3407 -0.9808
18629TIP3   OH277377   0.683   1.114  16.216  0.2840  0.1075 -0.6924
18629TIP3    H177378   0.659   1.161  16.296 -0.6727 -0.8262 -0.4174
18629TIP3    H277379   0.729   1.036  16.247  1.0071  0.3628 -1.1070
18630TIP3   OH277380   5.602   5.400  13.875  0.0947 -0.2488 -0.1233
18630TIP3    H177381   5.553   5.382  13.795 -2.8915  4.1897  0.4891
18630TIP3    H277382   5.668   5.464  13.848 -0.2218  0.4440  0.7254
18631TIP3   OH277383   3.987   1.869  12.458  0.0737 -0.1976  0.3110
18631TIP3    H177384   3.978   1.946  12.513  0.1806 -0.3466  0.5350
18631TIP3    H277385   3.919   1.880  12.391 -0.2036 -0.1309  0.6017
18632TIP3   OH277386   4.546   2.109  14.561 -0.1772  0.7583 -0.2231
18632TIP3    H177387   4.535   2.201  14.586  0.7208  0.5652  0.9104
18632TIP3    H277388   4.521   2.059  14.639 -0.2657  0.0501 -0.7003
18633TIP3   OH277389   0.355   5.323  14.303 -0.4789 -0.6618 -0.0760
18633TIP3    H177390   0.325   5.367  14.224  0.9329 -0.6880 -0.6513
18633TIP3    H277391   0.341   5.230  14.286  0.2376 -0.6974 -0.4817
18634TIP3   OH277392   2.754   3.701  14.788  0.5155 -0.1186 -0.0071
18634TIP3    H177393   2.708   3.651  14.855 -1.2063 -1.1341 -1.9268
18634TIP3    H277394   2.749   3.792  14.819  0.6891 -0.6931  1.7661
18635TIP3   OH277395   4.385   4.829   6.580  0.1433  0.6168 -0.2697
18635TIP3    H177396   4.297   4.852   6.551 -0.5236  1.0505  2.0447
18635TIP3    H277397   4.416   4.905   6.629  0.6487 -0.6714  1.4661
18636TIP3   OH277398   2.416   3.271  14.755 -0.0048 -0.0150  0.2915
18636TIP3    H177399   2.381   3.254  14.667  0.6328  0.0584  0.0186
18636TIP3    H277400   2.345   3.247  14.814 -0.0168 -1.2031 -0.1981
18637TIP3   OH277401   0.974   0.234   1.677 -0.1358 -0.1891  0.6588
18637TIP3    H177402   1.004   0.277   1.757  0.7882 -0.6596  0.5717
18637TIP3    H277403   1.054   0.220   1.626 -0.7355  0.2597 -0.4243
18638TIP3   OH277404   4.307   2.177  15.293  0.0515 -0.0421  0.2965
18638TIP3    H177405   4.382   2.228  15.323  0.5682 -1.0265  0.6951
18638TIP3    H277406   4.231   2.225  15.325  0.4892  1.2747 -0.6063
18639TIP3   OH277407   4.785   2.012   0.765 -0.3639 -0.8544 -0.2089
18639TIP3    H177408   4.805   2.061   0.844 -2.7658 -0.9899  0.5412
18639TIP3    H277409   4.870   1.984   0.731  0.7608  0.1442  1.7049
18640TIP3   OH277410   0.555   1.815  12.017 -0.0176  0.8231  0.8619
18640TIP3    H177411   0.583   1.782  11.931  0.1229  0.4711  1.0409
18640TIP3    H277412   0.519   1.738  12.061  0.9421  0.7477  1.5449
18641TIP3   OH277413   2.506   2.562  14.862 -0.7562  0.3205 -0.5980
18641TIP3    H177414   2.470   2.650  14.877  0.2434  1.1604 -2.9075
18641TIP3    H277415   2.434   2.514  14.822 -1.6544 -0.2626  1.6711
18642TIP3   OH277416   0.307   2.519   4.459  0.1673  0.3457 -0.2752
18642TIP3    H177417   0.265   2.549   4.540  1.7414  1.2835  0.2239
18642TIP3    H277418   0.291   2.589   4.396  0.0559  0.2016 -0.4096
18643TIP3   OH277419   6.391   0.204  11.382 -0.1027 -0.7879 -0.2505
18643TIP3    H177420   6.313   0.250  11.415 -0.4162 -1.1221 -0.5318
18643TIP3    H277421   6.380   0.203  11.287 -0.3853 -1.9749 -0.2095
18644TIP3   OH277422   4.555   3.198  11.169  0.3711  0.2977  0.1683
18644TIP3    H177423   4.632   3.224  11.117 -0.0438  0.8326 -0.1874
18644TIP3    H277424   4.566   3.104  11.182  1.5447  0.5146  0.8789
18645TIP3   OH277425   5.616   0.055   3.457  0.1128 -0.0410 -0.4381
18645TIP3    H177426   5.662  -0.028   3.445 -0.7436 -0.2962 -2.0955
18645TIP3    H277427   5.595   0.084   3.368 -0.5803  1.4032  0.1783
18646TIP3   OH277428   4.542   2.595  16.967 -0.6371  0.2939 -0.0802
18646TIP3    H177429   4.524   2.504  16.990 -1.5809 -0.4580 -3.4746
18646TIP3    H277430   4.636   2.605  16.977 -0.3680 -1.4099 -0.7910
18647TIP3   OH277431   3.424   2.141   3.202  0.1032  0.1085 -0.2269
18647TIP3    H177432   3.349   2.196   3.177 -0.1787  0.7870  1.9739
18647TIP3    H277433   3.443   2.089   3.124 -1.9605  0.7279 -1.1765
18648TIP3   OH277434   2.567   2.972  11.918  0.1233  0.4522  0.3392
18648TIP3    H177435   2.555   2.887  11.961 -1.8382  0.1839 -0.7016
18648TIP3    H277436   2.614   2.951  11.838  1.5721  0.6465  1.1135
18649TIP3   OH277437   6.370   4.088   4.143  0.3051  0.4802 -0.0501
18649TIP3    H177438   6.284   4.128   4.156 -0.1454 -0.4555 -0.0938
18649TIP3    H277439   6.400   4.123   4.059  0.7600  2.2020  0.8274
18650TIP3   OH277440   0.432   0.598  11.477  0.2469 -0.1185  0.1768
18650TIP3    H177441   0.385   0.673  11.514  0.6006 -1.1608  2.8871
18650TIP3    H277442   0.369   0.557  11.419 -0.2878  1.7042 -0.5674
18651TIP3   OH277443   4.395   2.599  10.687 -0.2739  0.4724  0.0712
18651TIP3    H177444   4.348   2.659  10.747  1.7980  2.0979  0.1269
18651TIP3    H277445   4.435   2.657  10.623  1.7652 -0.8797  0.1054
18652TIP3   OH277446   6.026   0.679  14.992 -0.2592  0.0822 -0.3974
18652TIP3    H177447   5.977   0.610  15.036  0.6359 -0.5849 -0.4311
18652TIP3    H277448   6.113   0.642  14.978 -0.0405  0.8857 -1.2393
18653TIP3   OH277449   0.611   4.463   4.612  0.2634  0.6836  0.5042
18653TIP3    H177450   0.584   4.466   4.521 -0.2305 -0.6309  0.6017
18653TIP3    H277451   0.615   4.370   4.633  1.4310  0.9449  1.5100
18654TIP3   OH277452   3.231   6.230  12.349 -0.0032  0.1622 -0.1366
18654TIP3    H177453   3.282   6.165  12.299 -0.5937  1.1899 -2.1354
18654TIP3    H277454   3.143   6.193  12.352  0.0285  0.1097  0.1312
18655TIP3   OH277455   6.657   5.314   0.480 -0.2082 -0.0388  0.9204
18655TIP3    H177456   6.730   5.343   0.425 -1.0241 -0.9214 -0.6761
18655TIP3    H277457   6.697   5.257   0.545  0.7323  0.7556  1.0553
18656TIP3   OH277458   3.667   3.392  13.843 -0.2107 -0.1556  0.4014
18656TIP3    H177459   3.601   3.461  13.839 -0.3773 -0.2901  0.7993
18656TIP3    H277460   3.716   3.409  13.924  1.5810  1.1409 -0.9152
18657TIP3   OH277461   6.158   5.437   6.336  0.2006  0.5586  0.0993
18657TIP3    H177462   6.105   5.517   6.331 -0.2977  0.1867 -0.6928
18657TIP3    H277463   6.238   5.465   6.380 -0.3577  1.2875  0.6853
18658TIP3   OH277464   5.940   3.270  17.227 -0.1095  0.7534  0.3238
18658TIP3    H177465   5.970   3.275  17.136  0.5528 -0.2260  0.4855
18658TIP3    H277466   5.964   3.182  17.256 -0.6259  0.9395  1.3416
18659TIP3   OH277467   3.228   3.663  16.323 -0.1425 -0.5983  0.6223
18659TIP3    H177468   3.157   3.603  16.349 -1.8246  1.0047 -0.1704
18659TIP3    H277469   3.225   3.663  16.228  1.3527 -0.9901  0.5655
18660TIP3   OH277470   4.179   5.056   3.949 -0.2824 -0.1165  0.2030
18660TIP3    H177471   4.239   5.065   4.022  1.0441 -0.2602 -0.8587
18660TIP3    H277472   4.109   5.119   3.968  1.5705  2.0229  0.0910
18661TIP3   OH277473   3.500   1.137  14.298  0.1515 -0.3284  0.4565
18661TIP3    H177474   3.490   1.043  14.317 -0.2726 -0.5242 -0.6707
18661TIP3    H277475   3.459   1.148  14.212  1.2897  0.6770  0.0382
18662TIP3   OH277476   3.256   3.922  16.323  0.1971 -0.5378 -0.0091
18662TIP3    H177477   3.234   3.833  16.348 -0.9098 -0.8173 -1.8419
18662TIP3    H277478   3.351   3.925  16.324  0.3052 -2.2553 -1.5150
18663TIP3   OH277479   3.795   6.206   2.795  0.0560 -0.6247 -0.2709
18663TIP3    H177480   3.711   6.186   2.837 -0.6353  0.1141 -1.2555
18663TIP3    H277481   3.796   6.150   2.717 -0.8359  1.4306 -1.7944
18664TIP3   OH277482   0.151   4.429   5.223  0.2651  0.2629  0.3848
18664TIP3    H177483   0.216   4.365   5.192  1.4928  1.7252 -0.1249
18664TIP3    H277484   0.124   4.395   5.308 -0.1383 -1.6694 -0.4916
18665TIP3   OH277485   2.051   1.328  12.863  0.6231 -0.3861  0.4591
18665TIP3    H177486   1.997   1.296  12.791  1.0299 -1.8871  0.8102
18665TIP3    H277487   2.028   1.421  12.870 -0.4258 -0.5371 -0.6994
18666TIP3   OH277488   0.465   3.096   6.714 -0.6007 -0.0424  0.3035
18666TIP3    H177489   0.544   3.150   6.725 -0.5337 -0.2783  1.0547
18666TIP3    H277490   0.481   3.020   6.771 -1.5264  0.0922  0.7455
18667TIP3   OH277491   0.519   1.469  16.560  0.2150  0.1684 -0.4982
18667TIP3    H177492   0.443   1.462  16.503  0.3984 -0.5092 -0.6594
18667TIP3    H277493   0.525   1.563  16.581 -1.5237  0.0234  0.6971
18668TIP3   OH277494   0.179   0.801  14.296  0.9439  0.5216  0.2256
18668TIP3    H177495   0.119   0.873  14.276  0.4090 -0.5572 -2.3420
18668TIP3    H277496   0.180   0.796  14.391 -2.6016  0.9749  0.3648
18669TIP3   OH277497   4.908   0.158   5.981 -0.1482  0.2087 -0.7071
18669TIP3    H177498   4.857   0.232   5.947  1.0701  0.9032 -1.0411
18669TIP3    H277499   4.850   0.116   6.045 -0.2094  2.4911  0.7702
18670TIP3   OH277500   0.334   1.962   1.932  0.6616  0.4896 -0.1402
18670TIP3    H177501   0.302   2.007   2.011  0.0387 -1.2105  0.6094
18670TIP3    H277502   0.326   2.026   1.862 -2.1006  0.9223  0.5239
18671TIP3   OH277503   1.568   2.410   1.540  1.0315  0.0591  0.6761
18671TIP3    H177504   1.499   2.346   1.557  0.7974 -0.2754 -1.4410
18671TIP3    H277505   1.574   2.460   1.621 -1.8574  0.2550  0.8206
18672TIP3   OH277506   1.427   0.774  12.673 -0.6015  0.8043  0.3122
18672TIP3    H177507   1.344   0.813  12.643 -0.7495  1.6209  1.7498
18672TIP3    H277508   1.434   0.800  12.765  0.1971 -1.0927  0.8099
18673TIP3   OH277509   4.018   5.516   5.709 -0.4221 -0.2822  0.1310
18673TIP3    H177510   3.938   5.569   5.700  0.7814  1.5661 -0.1188
18673TIP3    H277511   4.069   5.561   5.776  1.6900  0.2892 -1.7707
18674TIP3   OH277512   3.192   0.422   4.681 -0.0889  0.3131  0.2531
18674TIP3    H177513   3.155   0.392   4.764 -0.4550  1.9894  0.7287
18674TIP3    H277514   3.197   0.344   4.627 -2.7016 -0.3008  0.7959
18675TIP3   OH277515   5.132   2.401  12.891  0.5633  0.8801  0.1341
18675TIP3    H177516   5.111   2.494  12.896  0.3862  0.7998  0.9984
18675TIP3    H277517   5.086   2.371  12.813 -3.2225  0.5729  2.3063
18676TIP3   OH277518   0.499   3.803  13.265 -0.4062 -0.0388 -0.4744
18676TIP3    H177519   0.527   3.895  13.265  1.6226 -0.6388 -0.5133
18676TIP3    H277520   0.558   3.760  13.203 -1.9378 -1.2100 -1.1332
18677TIP3   OH277521   5.416   2.712  13.799  0.0147 -0.1730 -0.2284
18677TIP3    H177522   5.493   2.734  13.747  0.3588  0.9021  0.7191
18677TIP3    H277523   5.364   2.793  13.800 -1.4958 -1.1020 -1.4893
18678TIP3   OH277524   3.748   1.853  10.991  0.0941 -0.2364  0.1941
18678TIP3    H177525   3.731   1.839  10.898 -1.8952  0.5095  0.4156
18678TIP3    H277526   3.842   1.838  11.001  0.1784 -1.1263 -1.7771
18679TIP3   OH277527   1.444   5.056   5.353 -0.2157 -0.4325 -0.2287
18679TIP3    H177528   1.453   5.052   5.448  0.2282 -0.5298 -0.2742
18679TIP3    H277529   1.351   5.038   5.337 -0.4344  0.2567  0.2217
18680TIP3   OH277530   3.550   4.675  11.043 -0.1669 -0.2856  0.7231
18680TIP3    H177531   3.464   4.662  11.005 -0.6199 -0.8714  1.9229
18680TIP3    H277532   3.609   4.687  10.968 -1.7987  3.4340 -0.0717
18681TIP3   OH277533   6.601   2.479  10.421  0.1873 -0.1546  0.2439
18681TIP3    H177534   6.541   2.444  10.486 -0.7952  3.4030  1.3277
18681TIP3    H277535   6.646   2.402  10.386 -2.2793 -2.5097  2.0959
18682TIP3   OH277536   1.606   2.986  12.267 -0.6133  0.5605  0.3265
18682TIP3    H177537   1.546   3.047  12.224 -0.2234  1.1968  0.6709
18682TIP3    H277538   1.591   2.998  12.360  1.1448  1.8773  0.4754
18683TIP3   OH277539   6.407   0.580  15.534 -0.2461 -0.1428 -0.2123
18683TIP3    H177540   6.496   0.590  15.568  0.8054  0.5658 -3.0251
18683TIP3    H277541   6.360   0.655  15.569  1.3052  1.6177 -1.8357
18684TIP3   OH277542   5.444   3.340  15.361  0.5433 -0.4266 -0.1249
18684TIP3    H177543   5.404   3.401  15.299  1.0506  1.6734  1.5495
18684TIP3    H277544   5.493   3.396  15.421  2.2044 -2.6164  0.6060
18685TIP3   OH277545   0.889   0.863   3.575  0.2342  0.1238  0.3653
18685TIP3    H177546   0.883   0.879   3.481  1.2936  0.5358  0.3569
18685TIP3    H277547   0.799   0.869   3.607  0.0642  1.6110 -0.3653
18686TIP3   OH277548   1.177   6.788   4.275  0.0287  0.1151  0.6333
18686TIP3    H177549   1.111   6.852   4.251  0.5334  0.6996  0.7829
18686TIP3    H277550   1.259   6.825   4.242  0.1950 -0.9228 -0.1627
18687TIP3   OH277551   3.842   1.073   2.976 -0.4320  0.5116  0.4006
18687TIP3    H177552   3.918   1.019   3.000 -0.3750  0.4127  0.0044
18687TIP3    H277553   3.804   1.099   3.059  0.6428  1.4228  0.6208
18688TIP3   OH277554   4.181   0.742  11.076  0.3037  0.1647 -0.4900
18688TIP3    H177555   4.153   0.806  11.141 -0.7196 -1.5448  0.8020
18688TIP3    H277556   4.217   0.794  11.005 -0.2809  2.1531  0.6308
18689TIP3   OH277557   1.505   1.526  14.449 -0.1838  0.2830  0.1012
18689TIP3    H177558   1.534   1.554  14.536  1.8183  2.8140 -1.3184
18689TIP3    H277559   1.578   1.547  14.391 -1.1354 -2.1364 -2.1154
18690TIP3   OH277560   4.109   6.368  15.042 -0.3898 -0.1431 -0.5555
18690TIP3    H177561   4.165   6.314  15.098 -1.0354 -1.1642 -0.8966
18690TIP3    H277562   4.020   6.351  15.073 -0.5183  1.6572  0.1426
18691TIP3   OH277563   3.932   3.203   0.411 -0.0524 -0.2348 -0.0167
18691TIP3    H177564   3.879   3.281   0.395  0.1083 -0.1574 -0.1722
18691TIP3    H277565   3.868   3.132   0.420 -0.2159 -0.0308  0.4543
18692TIP3   OH277566   2.651   3.676   1.326 -0.3480 -0.7577 -0.0037
18692TIP3    H177567   2.732   3.640   1.362  0.8667  0.2873 -1.6306
18692TIP3    H277568   2.634   3.755   1.378 -0.4217 -1.0855  0.4648
18693TIP3   OH277569   5.773   4.558  16.863  0.1149 -0.4410  0.0050
18693TIP3    H177570   5.725   4.516  16.935  0.5658  1.2646  1.3381
18693TIP3    H277571   5.865   4.548  16.887  0.2077  2.0258  0.7848
18694TIP3   OH277572   5.342   3.691   5.827  0.8029 -0.5448 -0.6474
18694TIP3    H177573   5.358   3.772   5.779  0.1557  0.5841  1.0279
18694TIP3    H277574   5.252   3.666   5.804  0.7837 -0.4582 -0.6634
18695TIP3   OH277575   5.204   5.386  12.762  0.3342  0.0020  0.1389
18695TIP3    H177576   5.109   5.396  12.767  0.2095 -1.4818  0.7843
18695TIP3    H277577   5.218   5.298  12.728  1.4786  0.6948 -1.2689
18696TIP3   OH277578   4.026   5.451  13.236  0.9085  0.4463  0.1146
18696TIP3    H177579   4.025   5.360  13.265 -2.8756  1.1474  2.6365
18696TIP3    H277580   4.068   5.498  13.309 -2.3104  1.3453  1.4828
18697TIP3   OH277581   4.643   0.523   5.991 -0.0153  0.0575  0.0183
18697TIP3    H177582   4.681   0.557   6.072  0.3885  0.1620 -0.2146
18697TIP3    H277583   4.557   0.564   5.985 -0.6113 -0.9955  1.1058
18698TIP3   OH277584   1.945   0.611  16.333 -0.2895  0.1584  0.2555
18698TIP3    H177585   1.860   0.643  16.362 -0.5993 -0.8151  0.4431
18698TIP3    H277586   2.008   0.669  16.376 -0.8721  1.4505 -0.6005
18699TIP3   OH277587   6.781   1.838   1.826 -0.5410  0.0234  0.1421
18699TIP3    H177588   6.797   1.887   1.746  1.4740 -0.1487  0.4099
18699TIP3    H277589   6.868   1.807   1.853 -0.7774  2.3740  3.8801
18700TIP3   OH277590   4.051   0.277  16.524 -0.1150 -0.3989 -0.2654
18700TIP3    H177591   3.984   0.268  16.591 -0.3463  0.3461 -0.3962
18700TIP3    H277592   4.068   0.187  16.495 -1.0071 -0.5970 -0.1869
18701TIP3   OH277593   4.094   1.764   4.236 -0.0303 -0.2722 -0.0709
18701TIP3    H177594   4.132   1.852   4.229  0.7268 -0.4866  1.1695
18701TIP3    H277595   4.001   1.777   4.215 -0.0962  0.9648  0.9001
18702TIP3   OH277596   2.586   0.280   1.311 -0.1998  0.7151 -0.7134
18702TIP3    H177597   2.636   0.203   1.283  0.6832  0.3725  1.6201
18702TIP3    H277598   2.517   0.243   1.367  1.6561  1.7106  2.3826
18703TIP3   OH277599   1.829   3.089  15.416  0.1689  0.5627 -0.6248
18703TIP3    H177600   1.808   3.181  15.433 -0.6222 -0.0513  1.8600
18703TIP3    H277601   1.911   3.073  15.463 -0.8167 -0.5486  0.7530
18704TIP3   OH277602   3.192   4.943   4.920  0.0549  0.1973 -0.6191
18704TIP3    H177603   3.260   4.883   4.951  0.7790  0.9008 -0.8240
18704TIP3    H277604   3.121   4.933   4.983 -0.0858 -1.3250 -0.9972
18705TIP3   OH277605   4.556   0.885  16.892 -0.2590  0.0717  0.3337
18705TIP3    H177606   4.524   0.795  16.883  0.4661 -0.1968  0.4120
18705TIP3    H277607   4.595   0.906  16.808 -0.3971  0.2984  0.3272
18706TIP3   OH277608   2.486   3.590  16.481  0.7993 -0.2416 -0.7640
18706TIP3    H177609   2.407   3.590  16.426 -0.3869  0.3700  0.9229
18706TIP3    H277610   2.537   3.664  16.448 -0.0372  0.2998 -0.8785
18707TIP3   OH277611   5.899   5.214   4.843  0.0656  0.3028  0.0746
18707TIP3    H177612   5.852   5.234   4.762 -0.8661 -2.3670 -0.0788
18707TIP3    H277613   5.986   5.250   4.829 -0.1717  0.1319 -2.0197
18708TIP3   OH277614   4.575   0.973   1.568 -0.2069 -0.1206  0.6180
18708TIP3    H177615   4.654   0.996   1.618 -0.8601 -1.2979  2.2506
18708TIP3    H277616   4.511   0.949   1.635 -1.3328 -1.0911 -0.7766
18709TIP3   OH277617   0.134   3.464  15.226  0.2174 -0.8669  0.8004
18709TIP3    H177618   0.175   3.518  15.158 -0.4051  0.5386  1.5159
18709TIP3    H277619   0.170   3.498  15.308  1.7436 -3.2198  1.1472
18710TIP3   OH277620   4.680   0.673  14.443  0.7178 -0.4244  0.4043
18710TIP3    H177621   4.627   0.751  14.427 -1.5827 -1.9808  0.2049
18710TIP3    H277622   4.752   0.679  14.380 -0.5247  0.5435 -0.9458
18711TIP3   OH277623   3.581   2.246  12.365 -0.1019 -0.0980  0.2684
18711TIP3    H177624   3.595   2.211  12.453 -1.0858  0.6182  0.7191
18711TIP3    H277625   3.486   2.256  12.358 -0.1865 -1.7156 -1.4952
18712TIP3   OH277626   0.145   2.035  11.806  0.4697  0.3690 -0.1589
18712TIP3    H177627   0.135   2.129  11.824  2.0711  0.5536 -0.2032
18712TIP3    H277628   0.057   1.999  11.817 -0.1894  1.9117 -0.3252
18713TIP3   OH277629   3.913   1.128   2.488  0.1910 -0.2573  0.0646
18713TIP3    H177630   3.865   1.132   2.570  0.6721 -1.1426  0.3941
18713TIP3    H277631   3.997   1.170   2.507 -0.2390  0.8169 -0.3679
18714TIP3   OH277632   2.942   0.655  17.194 -0.2322 -0.5190  0.7140
18714TIP3    H177633   3.019   0.600  17.210  1.2844  2.1920  3.3558
18714TIP3    H277634   2.881   0.631  17.264  0.0826  0.4936  1.3455
18715TIP3   OH277635   4.897   1.273  12.871 -0.4086 -0.3977  0.1038
18715TIP3    H177636   4.802   1.276  12.855 -0.2821  1.2235 -0.4296
18715TIP3    H277637   4.905   1.227  12.955 -1.5215 -2.4386 -0.8514
18716TIP3   OH277638   6.045   5.357  15.604 -0.1939 -0.0883  0.0983
18716TIP3    H177639   6.089   5.425  15.555 -0.7042 -0.4735 -0.9103
18716TIP3    H277640   6.086   5.275  15.575 -3.0238 -0.6696 -2.5307
18717TIP3   OH277641   5.855   6.728   1.333  0.0640  0.2396 -0.1528
18717TIP3    H177642   5.934   6.749   1.382 -0.9774  0.1492  1.5845
18717TIP3    H277643   5.861   6.634   1.317 -0.3603 -0.0338  1.2152
18718TIP3   OH277644   5.100   1.204   1.681  0.2648  0.3085  0.2632
18718TIP3    H177645   5.058   1.132   1.634  1.3440 -1.2456  1.6403
18718TIP3    H277646   5.052   1.210   1.763  1.0624  0.2736  0.7277
18719TIP3   OH277647   0.833   3.640   5.696  0.2518  0.2297  0.1310
18719TIP3    H177648   0.770   3.647   5.624  1.5833 -1.9752 -1.3229
18719TIP3    H277649   0.918   3.631   5.652  1.0602 -1.4895  1.9659
18720TIP3   OH277650   2.467   4.158   0.288  0.0365 -0.6490 -0.7928
18720TIP3    H177651   2.458   4.094   0.358  0.2679 -0.3807 -0.5132
18720TIP3    H277652   2.524   4.116   0.223  0.3274 -0.6553 -0.5312
18721TIP3   OH277653   5.734   5.950   0.597 -0.0152  0.3011  0.5331
18721TIP3    H177654   5.762   5.984   0.511 -0.1860 -2.0894 -0.5103
18721TIP3    H277655   5.691   6.024   0.639  1.6716  2.0494 -0.6977
18722TIP3   OH277656   0.158   1.339  15.996 -0.3215 -0.0287  0.2383
18722TIP3    H177657   0.098   1.379  16.060 -1.3536  0.0002 -0.7233
18722TIP3    H277658   0.191   1.261  16.040 -0.5629  0.3064  1.0352
18723TIP3   OH277659   2.760   1.096   6.045 -0.2065  0.2477  0.5459
18723TIP3    H177660   2.786   1.011   6.010 -0.2735 -0.0515  1.2174
18723TIP3    H277661   2.665   1.092   6.052 -0.0877 -0.1717  1.9833
18724TIP3   OH277662   4.249   1.256  15.966  0.1340  0.5162 -0.0392
18724TIP3    H177663   4.322   1.196  15.949 -0.2680  0.0465 -0.1188
18724TIP3    H277664   4.170   1.203  15.952 -0.2547  1.7101 -2.4930
18725TIP3   OH277665   1.190   5.728   1.624  0.0367 -0.2885  0.3453
18725TIP3    H177666   1.116   5.772   1.582 -0.4411 -1.4188 -0.0443
18725TIP3    H277667   1.252   5.798   1.644 -0.7592  0.5654 -0.1191
18726TIP3   OH277668   2.556   1.558  12.459 -0.3193 -0.1498 -0.0298
18726TIP3    H177669   2.613   1.568  12.535  0.8059 -0.5640 -0.8090
18726TIP3    H277670   2.566   1.467  12.432  0.5919  0.4018 -1.6722
18727TIP3   OH277671   4.854   0.964  12.964 -0.4299  0.0772  0.7541
18727TIP3    H177672   4.833   1.017  12.888  0.5364  1.0469  1.1413
18727TIP3    H277673   4.785   0.899  12.968 -2.2811  1.9968  0.9126
18728TIP3   OH277674   0.191   4.710  11.141  0.1105  0.4969 -0.1714
18728TIP3    H177675   0.277   4.739  11.112  0.3334 -0.2414 -0.2714
18728TIP3    H277676   0.163   4.647  11.074 -0.6680  1.0160 -0.3358
18729TIP3   OH277677   6.611   2.451  15.229  0.8585 -0.4620  0.6763
18729TIP3    H177678   6.663   2.487  15.301  0.7269 -0.2330  0.6577
18729TIP3    H277679   6.675   2.414  15.169  1.0344  0.4294  0.3196
18730TIP3   OH277680   3.109   3.578   5.384  0.4588 -0.0500 -0.1694
18730TIP3    H177681   3.182   3.631   5.415 -0.3303  1.9314 -1.6091
18730TIP3    H277682   3.147   3.518   5.321  1.1278 -0.2626  0.4327
18731TIP3   OH277683   0.877   2.461   3.457 -0.5854  0.2640 -0.6996
18731TIP3    H177684   0.894   2.389   3.396 -0.2341  0.6406 -1.0458
18731TIP3    H277685   0.863   2.537   3.401  1.0542  0.8898 -0.2894
18732TIP3   OH277686   5.813   5.877  15.493  0.4520 -0.6359 -0.2355
18732TIP3    H177687   5.738   5.818  15.504 -1.2394  1.5459  0.2671
18732TIP3    H277688   5.883   5.821  15.461 -0.8831 -3.0748  0.9685
18733TIP3   OH277689   1.627   6.243  11.125 -0.1456  0.2174  0.2511
18733TIP3    H177690   1.610   6.216  11.035 -3.9685  0.4276  0.8373
18733TIP3    H277691   1.663   6.165  11.167 -1.1501 -0.7807 -0.7087
18734TIP3   OH277692   3.285   4.963  12.847  0.2428 -0.0599  0.3004
18734TIP3    H177693   3.234   4.943  12.926  2.3630 -0.8102  1.5135
18734TIP3    H277694   3.223   5.008  12.790 -1.9929 -1.6015  1.4325
18735TIP3   OH277695   6.275   4.730  16.030  0.5820 -0.0832 -0.0804
18735TIP3    H177696   6.303   4.784  15.956  1.6915 -0.2012  0.2536
18735TIP3    H277697   6.280   4.640  15.998 -1.4918 -0.0066 -0.7146
18736TIP3   OH277698   2.115   5.692  12.549 -0.0991 -0.3947 -0.6896
18736TIP3    H177699   2.071   5.771  12.518  0.7970  0.4987  0.2477
18736TIP3    H277700   2.188   5.725  12.603 -0.1818 -1.8582  0.3566
18737TIP3   OH277701   4.787   3.317   0.908 -0.1979 -0.0726  0.0218
18737TIP3    H177702   4.783   3.411   0.928 -1.5266 -0.3357  1.0780
18737TIP3    H277703   4.806   3.276   0.992 -1.5101 -0.8800 -0.0621
18738TIP3   OH277704   2.469   3.211   4.111 -0.2015 -0.4826  0.1828
18738TIP3    H177705   2.556   3.173   4.105 -0.0144 -0.1002  0.4339
18738TIP3    H277706   2.452   3.218   4.205  0.2730  1.1828  0.1607
18739TIP3   OH277707   5.954   6.700  13.063  0.9864  0.1864  0.3809
18739TIP3    H177708   5.947   6.694  12.967 -0.9820 -0.9537  0.5554
18739TIP3    H277709   6.020   6.634  13.086  2.2915  1.2576 -0.2787
18740TIP3   OH277710   6.019   4.745   2.017  0.2127  0.0333 -0.2629
18740TIP3    H177711   6.063   4.785   1.942  1.0233  1.9890  1.2228
18740TIP3    H277712   5.927   4.746   1.994  0.7084 -2.0318 -2.4513
18741TIP3   OH277713   2.943   4.238  12.538  0.1393  0.2388  0.2522
18741TIP3    H177714   3.035   4.225  12.515  0.2921 -0.4146  1.2042
18741TIP3    H277715   2.894   4.185  12.475  0.3997  0.7136 -0.3552
18742TIP3   OH277716   2.529   1.666  14.005  0.4304  0.0419  0.1143
18742TIP3    H177717   2.511   1.746  14.054  1.4951  1.0686 -1.1178
18742TIP3    H277718   2.443   1.626  13.991 -0.1717  1.2724  0.2380
18743TIP3   OH277719   6.756   3.964   5.649 -0.3663  0.3551 -0.2491
18743TIP3    H177720   6.790   4.053   5.650  0.5278  0.0172  0.4799
18743TIP3    H277721   6.668   3.972   5.613 -0.0596  1.4439 -0.7665
18744TIP3   OH277722   4.687   1.320  12.002  0.3345  0.1225 -0.6160
18744TIP3    H177723   4.723   1.407  11.987 -1.7965  0.8795 -1.4859
18744TIP3    H277724   4.593   1.331  11.991 -0.0121 -2.1653 -0.0924
18745TIP3   OH277725   5.287   3.695  14.263 -0.2067 -0.1593  0.0959
18745TIP3    H177726   5.304   3.622  14.203 -0.7200  0.0583 -0.3223
18745TIP3    H277727   5.369   3.708  14.309  0.6265  0.5906 -1.5540
18746TIP3   OH277728   6.316   3.816   2.822 -0.3481 -0.4273  0.0030
18746TIP3    H177729   6.396   3.788   2.777  0.1236  0.8873 -0.0101
18746TIP3    H277730   6.292   3.742   2.878  1.0535 -0.7150  0.2417
18747TIP3   OH277731   2.441   1.196   0.365 -0.1353  0.1097  0.8690
18747TIP3    H177732   2.512   1.257   0.343  0.3734 -0.9913 -0.5767
18747TIP3    H277733   2.361   1.248   0.359  0.3800  0.8794  0.6444
18748TIP3   OH277734   4.959   3.893   1.941 -0.0762  0.2873  0.8438
18748TIP3    H177735   4.876   3.881   1.894 -1.0557  2.2780  1.9951
18748TIP3    H277736   5.022   3.914   1.872 -1.1327  1.5000  0.2139
18749TIP3   OH277737   0.737   6.583  16.622 -0.8145  0.1618 -0.4699
18749TIP3    H177738   0.820   6.609  16.582 -0.4867  1.3024  0.9295
18749TIP3    H277739   0.690   6.666  16.634 -0.6756 -0.1099  2.0161
18750TIP3   OH277740   5.813   6.641  13.357  0.6712  0.1100 -0.4121
18750TIP3    H177741   5.839   6.703  13.289  1.8432  1.5328  1.2933
18750TIP3    H277742   5.880   6.650  13.425 -1.2123 -0.2547  1.5462
18751TIP3   OH277743   6.174   5.742  14.137  0.0394 -0.4422 -0.2253
18751TIP3    H177744   6.226   5.735  14.217 -0.7574  0.1759  0.3571
18751TIP3    H277745   6.239   5.743  14.066  0.7300 -1.4826  0.3733
18752TIP3   OH277746   5.541   0.408   2.071  0.3683  0.2191 -0.0458
18752TIP3    H177747   5.525   0.384   2.162 -2.0629  0.8087 -0.2914
18752TIP3    H277748   5.512   0.499   2.065 -1.1386 -0.3479 -1.7925
18753TIP3   OH277749   1.095   3.519  14.680  0.1870 -0.3022 -0.1310
18753TIP3    H177750   1.140   3.582  14.736  0.8417 -1.3273  0.5211
18753TIP3    H277751   1.059   3.455  14.741 -1.4256  0.0245 -0.7069
18754TIP3   OH277752   5.384   2.500   0.032 -0.0578  0.2854  0.2082
18754TIP3    H177753   5.346   2.421   0.071 -0.2591  0.8866  1.2511
18754TIP3    H277754   5.310   2.560   0.022 -0.2673 -0.3536 -2.4197
18755TIP3   OH277755   0.177   5.578   6.433  0.0031 -0.3718  0.3767
18755TIP3    H177756   0.090   5.611   6.410  1.2018  2.3638 -0.4467
18755TIP3    H277757   0.218   5.650   6.481  1.9401 -1.4885  0.4397
18756TIP3   OH277758   2.271   4.318   5.480 -0.5012  0.6071 -0.0439
18756TIP3    H177759   2.338   4.355   5.422  0.0522 -1.3942 -0.7142
18756TIP3    H277760   2.208   4.277   5.421 -0.7450 -0.1173  0.7148
18757TIP3   OH277761   2.008   2.304  16.039  0.6399 -0.4556  0.0849
18757TIP3    H177762   1.941   2.357  15.997  1.3119 -0.6611 -1.2907
18757TIP3    H277763   1.984   2.303  16.132  0.1812  1.5740  0.0004
18758TIP3   OH277764   6.481   3.770  12.929 -0.4478  0.1517 -0.4216
18758TIP3    H177765   6.391   3.800  12.938 -1.0371 -1.9372  1.1828
18758TIP3    H277766   6.474   3.684  12.888  0.8699  0.3088 -1.0041
18759TIP3   OH277767   6.314   0.988  17.252 -0.0264  0.8516  0.3056
18759TIP3    H177768   6.240   0.991  17.313 -0.2011  3.5046  0.0308
18759TIP3    H277769   6.281   0.939  17.177  0.4615 -3.2309  2.6080
18760TIP3   OH277770   2.034   3.972   3.005  0.3017  0.8466 -0.0593
18760TIP3    H177771   2.003   3.887   3.037 -0.5799  0.8599 -0.8906
18760TIP3    H277772   1.972   3.997   2.937  0.8579  1.9185 -0.1828
18761TIP3   OH277773   6.792   6.329  15.781 -0.1869 -0.0202  0.4387
18761TIP3    H177774   6.845   6.256  15.811  0.0182  0.1989  0.6167
18761TIP3    H277775   6.736   6.350  15.857 -0.2794 -0.0254  0.3720
18762TIP3   OH277776   0.278   2.478   1.256  0.2437 -0.0348 -0.0546
18762TIP3    H177777   0.370   2.497   1.239  0.8644 -1.7175  1.2422
18762TIP3    H277778   0.268   2.491   1.351 -0.8122 -0.0282 -0.1582
18763TIP3   OH277779   5.388   4.465  11.908  0.7695  0.3097 -0.1724
18763TIP3    H177780   5.402   4.507  11.823 -1.1984 -1.1963 -1.3057
18763TIP3    H277781   5.427   4.378  11.897  1.1608  0.3695  0.7399
18764TIP3   OH277782   4.918   0.766  11.931 -0.1283  0.0010  0.2687
18764TIP3    H177783   4.886   0.679  11.908  2.4774 -1.1460  0.8730
18764TIP3    H277784   4.992   0.781  11.873  1.1033  0.7016  1.9801
18765TIP3   OH277785   1.017   4.659  12.162  0.2216 -0.2665  0.0476
18765TIP3    H177786   0.969   4.583  12.127 -1.0582 -0.2396  1.6577
18765TIP3    H277787   0.986   4.732  12.109 -1.2009 -0.3290  0.7575
18766TIP3   OH277788   1.676   1.546   3.162 -0.0971  0.1469 -0.7201
18766TIP3    H177789   1.755   1.493   3.155  1.1298  1.4443  2.4437
18766TIP3    H277790   1.647   1.558   3.071  1.5598 -2.9139 -1.7248
18767TIP3   OH277791   2.119   5.657  14.527 -0.1349  0.0507 -0.1263
18767TIP3    H177792   2.134   5.673  14.621 -0.7205  2.5201 -0.4161
18767TIP3    H277793   2.029   5.624  14.523 -1.0563  2.4103 -0.0039
18768TIP3   OH277794   3.758   3.579  15.004 -0.0112  0.1043 -0.0380
18768TIP3    H177795   3.797   3.511  14.950 -0.2434 -1.5330  1.7861
18768TIP3    H277796   3.824   3.598  15.071  0.4849  2.4671 -1.1749
18769TIP3   OH277797   0.091   2.974   2.719 -0.2690  0.1403  0.6884
18769TIP3    H177798   0.038   2.898   2.743  1.4925 -0.7786  1.8025
18769TIP3    H277799   0.166   2.937   2.671  0.8273  1.0918  1.6208
18770TIP3   OH277800   6.219   6.261  15.205  0.1210 -0.4875  0.5220
18770TIP3    H177801   6.310   6.233  15.213  0.4467  0.0847 -1.0388
18770TIP3    H277802   6.168   6.185  15.233  1.0282 -1.8028 -1.2629
18771TIP3   OH277803   5.577   1.824  11.791  0.1769  0.0173  0.0905
18771TIP3    H177804   5.490   1.784  11.803  0.5835 -0.5189  1.3147
18771TIP3    H277805   5.637   1.749  11.787  0.5187  0.3607 -1.3965
18772TIP3   OH277806   2.859   1.870   1.958 -0.0956 -0.0990  0.2008
18772TIP3    H177807   2.824   1.937   1.900  2.5567  1.3560  0.1932
18772TIP3    H277808   2.823   1.892   2.045  0.3605  1.0451  0.1073
18773TIP3   OH277809   0.163   3.894   5.971  0.2643 -0.0131  0.3141
18773TIP3    H177810   0.182   3.852   6.054  0.1171  0.1299  0.4194
18773TIP3    H277811   0.122   3.977   5.994 -1.1105 -0.6159  0.0843
18774TIP3   OH277812   1.932   5.613   1.493 -0.3822 -0.4232  0.5842
18774TIP3    H177813   1.852   5.644   1.450 -0.3903 -1.4373 -0.1692
18774TIP3    H277814   1.966   5.689   1.540 -0.9722  0.4181 -0.3405
18775TIP3   OH277815   1.500   1.359  16.436  0.2274  0.1679 -0.5709
18775TIP3    H177816   1.544   1.281  16.403 -0.5074 -0.5390  0.0809
18775TIP3    H277817   1.426   1.372  16.376  0.6057  0.6196 -0.9385
18776TIP3   OH277818   3.715   2.699  15.958  0.2539 -0.0326 -0.1503
18776TIP3    H177819   3.681   2.666  15.875  2.0708  0.2511 -1.0461
18776TIP3    H277820   3.729   2.620  16.011 -0.3421 -0.2668 -0.3415
18777TIP3   OH277821   1.644   0.091  12.333 -0.5259  0.3898 -0.1970
18777TIP3    H177822   1.573   0.084  12.397 -0.2937 -1.1720 -0.0988
18777TIP3    H277823   1.724   0.078  12.384 -0.2478  0.7542 -0.5379
18778TIP3   OH277824   5.421   0.716  12.789 -0.1361  0.4223 -0.2151
18778TIP3    H177825   5.401   0.686  12.700 -3.0673  0.1158  0.5007
18778TIP3    H277826   5.461   0.641  12.832  1.8556  0.7583 -1.4237
18779TIP3   OH277827   6.256   6.224  16.522 -0.1414  0.0478  0.3782
18779TIP3    H177828   6.187   6.178  16.569 -0.4244 -0.8575 -0.8762
18779TIP3    H277829   6.223   6.233  16.432  0.9137  0.5634  0.0229
18780TIP3   OH277830   4.918   6.623   4.528  0.3048  0.2759  0.2249
18780TIP3    H177831   4.880   6.702   4.490  0.7982  0.6705  0.5482
18780TIP3    H277832   5.001   6.652   4.565  0.1505 -0.2470  0.9951
18781TIP3   OH277833   2.096   4.223   5.262 -0.3544  0.0501 -0.5778
18781TIP3    H177834   2.179   4.253   5.225 -0.8401  1.4274 -0.5852
18781TIP3    H277835   2.095   4.129   5.245  0.2033  0.3797 -2.5556
18782TIP3   OH277836   3.358   0.344   3.285  0.2328 -0.1123 -0.5458
18782TIP3    H177837   3.448   0.356   3.254 -0.3019 -0.0196 -2.1480
18782TIP3    H277838   3.327   0.268   3.235 -0.9236  0.5385 -0.8212
18783TIP3   OH277839   6.562   5.002   5.515 -0.1138  0.0587 -0.3837
18783TIP3    H177840   6.652   4.991   5.543 -0.1630  0.0125 -0.2425
18783TIP3    H277841   6.513   4.934   5.562 -0.0060 -0.8132 -1.5116
18784TIP3   OH277842   4.741   1.340   1.525 -0.3937  0.8946  0.2302
18784TIP3    H177843   4.762   1.433   1.511 -1.5729  0.9107 -1.6213
18784TIP3    H277844   4.796   1.294   1.461 -0.9190  0.4279  0.1189
18785TIP3   OH277845   4.665   3.047  15.344 -0.2948 -0.0244  0.1517
18785TIP3    H177846   4.668   3.034  15.439  0.7599  0.9015  0.2525
18785TIP3    H277847   4.736   2.993  15.310 -1.7024 -1.6363 -0.2737
18786TIP3   OH277848   6.398   4.774   0.964  0.0820 -0.2177  0.0249
18786TIP3    H177849   6.387   4.714   0.890  0.2598 -0.2110 -0.0091
18786TIP3    H277850   6.315   4.821   0.971 -0.4277 -1.1997  0.6971
18787TIP3   OH277851   0.261   4.728  13.539 -0.1618  0.0961  0.4103
18787TIP3    H177852   0.342   4.771  13.515 -0.1445 -0.0198  0.2640
18787TIP3    H277853   0.200   4.750  13.468 -0.9147  2.0559  1.6228
18788TIP3   OH277854   5.654   2.365   1.288 -0.5354 -0.2257 -1.1251
18788TIP3    H177855   5.620   2.427   1.224 -1.0778 -0.0518 -0.6682
18788TIP3    H277856   5.585   2.356   1.353 -0.5773 -1.5280 -1.3274
18789TIP3   OH277857   6.525   3.085   5.688  0.3471 -0.1870  0.5197
18789TIP3    H177858   6.569   3.006   5.657  1.3250  0.4728  0.2194
18789TIP3    H277859   6.465   3.108   5.617  0.0266 -0.6765  0.6274
18790TIP3   OH277860   3.577   2.591  15.309  0.3719  0.2634 -0.2643
18790TIP3    H177861   3.509   2.647  15.271 -0.4116 -0.0620  0.6285
18790TIP3    H277862   3.628   2.650  15.365  0.1954  0.3021 -0.1430
18791TIP3   OH277863   3.270   5.736   5.747  0.0821  0.0506  0.0306
18791TIP3    H177864   3.283   5.749   5.841  0.6110 -0.2905  0.0086
18791TIP3    H277865   3.229   5.650   5.740  0.8849 -0.3317 -0.0983
18792TIP3   OH277866   6.610   2.944  15.357  0.5495 -0.3570 -0.0418
18792TIP3    H177867   6.610   3.010  15.288  1.2475  0.8348  1.0846
18792TIP3    H277868   6.694   2.900  15.349  0.2292 -0.8755 -0.5692
18793TIP3   OH277869   2.764   2.089  14.491  0.7677  0.4572  0.2675
18793TIP3    H177870   2.818   2.021  14.451 -0.6123  0.8042 -2.3123
18793TIP3    H277871   2.816   2.169  14.481  0.8159  0.3923 -0.0029
18794TIP3   OH277872   2.043   1.432   5.216 -0.0642 -0.1773  0.1624
18794TIP3    H177873   2.032   1.338   5.202 -1.9152  0.3162 -1.9610
18794TIP3    H277874   2.040   1.443   5.311 -0.9459 -2.1354  0.3776
18795TIP3   OH277875   2.974   2.641   4.407 -0.1324 -0.5896  0.4927
18795TIP3    H177876   3.057   2.654   4.361 -0.1511  2.1299  1.1301
18795TIP3    H277877   2.907   2.641   4.338  0.1660 -0.1301  0.2044
18796TIP3   OH277878   6.381   5.270   4.273 -0.1793  1.0471 -0.2628
18796TIP3    H177879   6.287   5.268   4.253 -0.0615 -1.2725 -0.7588
18796TIP3    H277880   6.419   5.329   4.207 -1.3110  2.2133  0.1139
18797TIP3   OH277881   6.676   2.727  11.962  0.0352 -0.6503  0.2237
18797TIP3    H177882   6.722   2.786  11.901 -1.2648  1.1958  0.9798
18797TIP3    H277883   6.706   2.755  12.048 -1.8254 -0.0069  0.6682
18798TIP3   OH277884   6.136   4.753   4.960  0.0145  0.3967  0.1772
18798TIP3    H177885   6.115   4.754   5.053  1.5421  0.6284  0.5264
18798TIP3    H277886   6.084   4.824   4.923 -0.9183  0.0337  0.7785
18799TIP3   OH277887   1.302   1.622   4.225 -0.1962 -0.1835  0.2108
18799TIP3    H177888   1.272   1.623   4.134  0.8775 -0.0299 -0.1509
18799TIP3    H277889   1.247   1.687   4.268 -0.4476  0.0374 -0.4237
18800TIP3   OH277890   3.828   4.346  15.107 -0.6960 -0.7681  0.5686
18800TIP3    H177891   3.913   4.358  15.065 -0.1173  2.1821  2.4405
18800TIP3    H277892   3.834   4.262  15.152  1.2858 -0.5478  0.7462
18801TIP3   OH277893   1.533   0.980   1.432  0.4706 -0.0172  0.1055
18801TIP3    H177894   1.556   1.038   1.504 -0.7485  0.6364 -0.0211
18801TIP3    H277895   1.573   1.021   1.355  1.9659 -0.8363  0.4250
18802TIP3   OH277896   1.567   6.199  14.184  0.2982  1.1871  0.0852
18802TIP3    H177897   1.501   6.131  14.199  1.1961  0.3212  0.1432
18802TIP3    H277898   1.647   6.163  14.220  1.1159  1.6610 -1.2289
18803TIP3   OH277899   3.895   1.830   4.954  0.7426  0.0830 -0.3340
18803TIP3    H177900   3.941   1.753   4.987  1.4361 -0.4100 -2.3925
18803TIP3    H277901   3.965   1.887   4.922  0.0655  0.2395 -1.5799
18804TIP3   OH277902   0.134   4.038   1.544 -0.3374 -0.3742 -0.4431
18804TIP3    H177903   0.225   4.026   1.570  0.0813 -0.8177 -2.0108
18804TIP3    H277904   0.139   4.072   1.455 -1.7060  0.7642 -0.1021
18805TIP3   OH277905   0.514   6.415  16.613 -0.2613  0.1603  0.4463
18805TIP3    H177906   0.430   6.462  16.617 -0.4314 -0.1764  0.9975
18805TIP3    H277907   0.579   6.482  16.633 -0.4746  0.2439  0.8888
18806TIP3   OH277908   4.859   3.168   6.174 -0.4461  0.4264  0.4188
18806TIP3    H177909   4.907   3.109   6.232 -0.5707 -0.7877 -0.6788
18806TIP3    H277910   4.927   3.218   6.128 -0.3478  1.3789  1.5792
18807TIP3   OH277911   4.100   2.066   4.175 -0.4211  0.1303 -0.1106
18807TIP3    H177912   4.009   2.091   4.182 -0.2553  1.3475 -1.8944
18807TIP3    H277913   4.147   2.148   4.160  0.6600 -0.7364 -1.6062
18808TIP3   OH277914   2.403   4.536  16.530  0.7656  0.1307  0.4495
18808TIP3    H177915   2.439   4.614  16.488  1.8819  0.3690  1.8002
18808TIP3    H277916   2.338   4.570  16.592 -0.5914 -0.1950 -0.7486
18809TIP3   OH277917   6.275   4.775  12.731 -0.1369 -0.4101 -0.8482
18809TIP3    H177918   6.215   4.777  12.806  1.1744  1.3689  0.2237
18809TIP3    H277919   6.361   4.793  12.770  0.6468 -0.0135 -2.7218
18810TIP3   OH277920   1.254   5.947   1.929  0.6204 -0.2100  0.4346
18810TIP3    H177921   1.282   6.038   1.934  3.2103 -1.0594  1.9843
18810TIP3    H277922   1.164   5.952   1.896  0.1942  2.9715  1.8859
18811TIP3   OH277923   2.896   1.085   5.265  0.2707 -0.0927  0.3227
18811TIP3    H177924   2.851   1.022   5.210 -3.0390  1.8884  0.6262
18811TIP3    H277925   2.911   1.160   5.209  0.0748  0.5748  1.1468
18812TIP3   OH277926   4.604   5.634   1.211  0.2073  0.1591  0.3358
18812TIP3    H177927   4.593   5.546   1.175  1.7902 -0.3160  0.9564
18812TIP3    H277928   4.543   5.637   1.284 -0.0563 -0.3298  0.1435
18813TIP3   OH277929   3.652   0.381  17.113  0.2785  0.4406  0.2909
18813TIP3    H177930   3.690   0.465  17.138 -0.1796  0.7983 -0.2095
18813TIP3    H277931   3.613   0.396  17.027 -1.3946  0.2031  0.9866
18814TIP3   OH277932   4.824   6.149   3.718  0.0352  0.0843 -0.4395
18814TIP3    H177933   4.769   6.166   3.795 -0.4731  1.2702 -1.0546
18814TIP3    H277934   4.900   6.103   3.753 -0.9528 -0.8281  0.5445
18815TIP3   OH277935   3.403   4.769  15.758 -0.1003 -0.2175 -1.2886
18815TIP3    H177936   3.470   4.726  15.705  0.1934  0.3922 -1.4151
18815TIP3    H277937   3.345   4.697  15.787 -0.1942 -0.5649 -2.3238
18816TIP3   OH277938   1.459   3.155   1.231  0.6723 -0.6523 -0.4902
18816TIP3    H177939   1.419   3.111   1.307 -0.4278 -0.0783 -0.7313
18816TIP3    H277940   1.442   3.248   1.246  3.5557 -0.1979  0.3468
18817TIP3   OH277941   3.921   1.056  13.693 -0.3498  0.4443  0.0931
18817TIP3    H177942   3.875   1.094  13.767  0.9086  1.9594  0.1211
18817TIP3    H277943   3.902   1.115  13.620  0.6142  0.4733 -0.1508
18818TIP3   OH277944   5.591   0.576  13.111 -0.2642  0.6921 -0.1507
18818TIP3    H177945   5.678   0.541  13.093 -0.6094  0.9955 -2.5814
18818TIP3    H277946   5.604   0.669  13.125 -0.1744  0.7246 -0.4436
18819TIP3   OH277947   0.744   6.746  16.338  0.2992  0.0802  0.0560
18819TIP3    H177948   0.784   6.662  16.362 -2.9536 -1.6285 -0.2890
18819TIP3    H277949   0.738   6.743  16.243 -0.1504  0.5638  0.0699
18820TIP3   OH277950   0.377   5.514   3.414  0.3122 -0.0930  0.1161
18820TIP3    H177951   0.421   5.598   3.427 -0.4772  0.2456  0.6212
18820TIP3    H277952   0.311   5.510   3.483  1.3729 -1.8335  1.0868
18821TIP3   OH277953   0.550   3.635   4.933  0.4509 -0.0171  0.4832
18821TIP3    H177954   0.454   3.631   4.933  0.5073 -1.7827 -0.1944
18821TIP3    H277955   0.572   3.686   5.011 -1.0745  1.4634 -0.0306
18822TIP3   OH277956   2.743   3.607  11.240 -0.0636 -0.2549 -0.0713
18822TIP3    H177957   2.833   3.580  11.255 -0.5132 -1.0342  1.2626
18822TIP3    H277958   2.707   3.623  11.327 -1.2988 -0.2293 -0.5725
18823TIP3   OH277959   2.048   3.443   6.094 -0.2271 -0.7145 -0.3193
18823TIP3    H177960   1.960   3.446   6.130  0.4511  1.9115  1.2988
18823TIP3    H277961   2.063   3.532   6.061  1.8226 -1.1149 -0.5334
18824TIP3   OH277962   1.214   3.584  10.629  0.3969  0.0083 -0.1764
18824TIP3    H177963   1.247   3.517  10.570 -0.1976  0.3626 -0.9184
18824TIP3    H277964   1.226   3.547  10.717  0.8932 -0.6916 -0.5362
18825TIP3   OH277965   5.907   3.333  11.977 -0.3229  0.1135 -0.4735
18825TIP3    H177966   5.963   3.293  12.045 -0.8345  0.0220 -0.1049
18825TIP3    H277967   5.876   3.259  11.925  0.7590  0.2577 -1.3404
18826TIP3   OH277968   2.024   2.340  12.507 -0.2895 -0.6853  0.0645
18826TIP3    H177969   1.938   2.301  12.489 -0.3627 -0.8145  0.6897
18826TIP3    H277970   2.084   2.290  12.451 -0.1273 -2.8558  2.1036
18827TIP3   OH277971   1.430   0.615  14.037  0.1746  0.1168  0.3444
18827TIP3    H177972   1.399   0.525  14.024  1.7250 -0.1367 -1.8481
18827TIP3    H277973   1.421   0.656  13.951  2.4915  1.0960  0.5434
18828TIP3   OH277974   1.031   3.223  14.046  0.9302 -0.2644  0.1600
18828TIP3    H177975   1.092   3.174  13.991 -0.2489 -2.1786  0.4946
18828TIP3    H277976   0.946   3.212  14.003  0.1797 -0.8781  1.7514
18829TIP3   OH277977   2.305   2.132   2.668  0.1658 -0.1528 -0.0475
18829TIP3    H177978   2.218   2.161   2.640  0.5108  0.4624 -0.5068
18829TIP3    H277979   2.365   2.177   2.608  0.9013  0.8166  1.4062
18830TIP3   OH277980   5.961   4.247  14.732 -0.4147  0.3686 -0.7134
18830TIP3    H177981   5.928   4.311  14.795  0.2023  0.5237 -0.5522
18830TIP3    H277982   5.987   4.299  14.656  0.2492  0.3273 -0.5141
18831TIP3   OH277983   0.487   4.577  11.336 -0.3103 -0.3445 -0.2061
18831TIP3    H177984   0.513   4.573  11.244  1.0543 -1.3314  0.2051
18831TIP3    H277985   0.531   4.502  11.377  0.4381  1.0350  1.5817
18832TIP3   OH277986   0.848   1.646  13.786  0.3822 -0.1664  0.2470
18832TIP3    H177987   0.869   1.676  13.697 -0.8752  1.9754  0.6163
18832TIP3    H277988   0.755   1.625  13.782  0.3971 -0.3767  0.9696
18833TIP3   OH277989   1.481   0.532   0.531  0.1817  0.3437 -0.4369
18833TIP3    H177990   1.530   0.583   0.596 -1.0270 -0.8422  1.4491
18833TIP3    H277991   1.548   0.490   0.478  1.1969  0.4925  0.7151
18834TIP3   OH277992   0.987   5.609  15.138  0.3307  0.1861  0.1082
18834TIP3    H177993   0.957   5.690  15.096  0.6955  0.6448  0.7284
18834TIP3    H277994   1.065   5.634  15.187 -0.2423 -0.2782  1.2893
18835TIP3   OH277995   1.901   1.988   1.980  0.3928  0.5740  0.1171
18835TIP3    H177996   1.921   2.048   1.908 -0.0760  0.3060 -0.2386
18835TIP3    H277997   1.965   1.917   1.971 -0.6866 -0.2660 -0.9981
18836TIP3   OH277998   5.544   1.061  17.127 -0.7202 -0.9999 -0.1362
18836TIP3    H177999   5.487   1.138  17.122 -0.3083 -0.7848 -1.5271
18836TIP3    H278000   5.631   1.095  17.106 -0.5138 -1.8333 -0.6099
18837TIP3   OH278001   1.354   5.984  12.864  0.2311 -0.2621  0.0180
18837TIP3    H178002   1.423   6.027  12.914  0.8408 -1.2087  0.0050
18837TIP3    H278003   1.397   5.908  12.825 -0.4990 -0.1161 -1.0769
18838TIP3   OH278004   4.929   2.079  16.820  0.0260 -0.6186 -0.3305
18838TIP3    H178005   4.964   2.140  16.885 -0.1760 -1.6680  0.7632
18838TIP3    H278006   4.944   2.123  16.736  2.7553 -0.4566  0.2107
18839TIP3   OH278007   1.260   3.726   1.317  0.0611 -0.4757 -0.2989
18839TIP3    H178008   1.262   3.671   1.396 -2.5890 -1.7923 -1.0700
18839TIP3    H278009   1.201   3.798   1.341 -2.1473 -1.7932 -1.5654
18840TIP3   OH278010   2.952   6.393  16.471 -0.4156  0.1097  0.5326
18840TIP3    H178011   2.912   6.358  16.391  0.4845  0.2443  0.0090
18840TIP3    H278012   2.977   6.316  16.522 -1.6850  0.0293  1.0426
18841TIP3   OH278013   2.975   2.082  16.598  0.5878 -0.2213  0.2960
18841TIP3    H178014   2.964   2.107  16.690  0.3127 -0.1496  0.2455
18841TIP3    H278015   2.965   2.164  16.549 -1.3296 -0.5574  0.0578
18842TIP3   OH278016   4.274   2.780   4.317  0.2672  0.5538 -0.2099
18842TIP3    H178017   4.231   2.813   4.238  1.0806 -1.0464 -1.3447
18842TIP3    H278018   4.365   2.807   4.308  0.1972  1.1127  0.6281
18843TIP3   OH278019   2.155   3.694  16.850  0.1700 -0.2384 -0.2428
18843TIP3    H178020   2.158   3.600  16.834 -0.1542 -0.3378  0.2755
18843TIP3    H278021   2.127   3.703  16.941 -2.5488  0.4002 -1.0823
18844TIP3   OH278022   2.182   4.298   6.482  0.4674  0.4477  0.0550
18844TIP3    H178023   2.240   4.222   6.481 -0.2093 -0.0601 -0.7069
18844TIP3    H278024   2.111   4.275   6.422 -1.2958  0.4760  2.0597
18845TIP3   OH278025   1.653   0.002   4.802  0.4800 -0.1373  0.3486
18845TIP3    H178026   1.619   0.082   4.842  0.9100 -0.4366  1.3542
18845TIP3    H278027   1.590  -0.066   4.828 -0.7058  0.1082 -1.7542
18846TIP3   OH278028   4.509   6.655   2.050 -0.0005  0.5715  0.5280
18846TIP3    H178029   4.454   6.688   1.979  0.2794 -1.5630 -0.7467
18846TIP3    H278030   4.448   6.636   2.121 -0.7749 -0.6005 -0.4264
18847TIP3   OH278031   5.654   0.739  14.969 -0.3306 -0.4961 -0.2373
18847TIP3    H178032   5.705   0.703  15.042 -3.8990 -1.7470  1.7840
18847TIP3    H278033   5.661   0.834  14.980  0.8996 -0.6575  0.4754
18848TIP3   OH278034   5.360   6.291  10.780 -0.6921  0.2140  0.6737
18848TIP3    H178035   5.372   6.201  10.748 -2.1231  0.1434  0.3326
18848TIP3    H278036   5.369   6.284  10.875 -1.5432 -0.4096  0.7066
18849TIP3   OH278037   6.284   2.386  11.020 -0.3260  0.1519  0.0824
18849TIP3    H178038   6.246   2.408  11.105 -1.6040  1.4066 -0.7927
18849TIP3    H278039   6.308   2.471  10.982 -0.5339 -0.3328 -1.1442
18850TIP3   OH278040   6.554   2.544  12.372  0.0492  0.1735 -0.0263
18850TIP3    H178041   6.531   2.495  12.450  1.5067  0.9530  0.9077
18850TIP3    H278042   6.647   2.564  12.382  0.2635  0.2574 -1.9705
18851TIP3   OH278043   3.481   3.647  12.215 -0.0238  0.0066  0.2826
18851TIP3    H178044   3.503   3.620  12.305  1.5742 -0.7743 -0.3259
18851TIP3    H278045   3.402   3.700  12.225 -0.1538 -0.4831  2.1017
18852TIP3   OH278046   6.089   4.583   0.623 -0.6346 -0.0179  0.2243
18852TIP3    H178047   6.180   4.611   0.635 -0.7259  0.5001 -0.2498
18852TIP3    H278048   6.041   4.630   0.691 -0.8000  1.0739 -0.6237
18853TIP3   OH278049   4.596   5.967  16.744  0.9067  0.0820  0.3198
18853TIP3    H178050   4.541   5.998  16.671 -0.1974  0.9780  1.5034
18853TIP3    H278051   4.666   5.917  16.702  0.1836  0.4370 -1.3470
18854TIP3   OH278052   6.517   0.528  11.199  0.5986 -0.9992  0.5721
18854TIP3    H178053   6.583   0.460  11.187  0.7360 -0.9155  0.8683
18854TIP3    H278054   6.563   0.610  11.182  0.0537 -1.0644 -1.4097
18855TIP3   OH278055   0.208   0.590   3.790  0.6791  0.3939 -0.1858
18855TIP3    H178056   0.179   0.560   3.876  0.8257 -1.0762 -0.6430
18855TIP3    H278057   0.151   0.664   3.770 -1.4548 -1.2387 -0.2161
18856TIP3   OH278058   1.515   2.477   3.028 -0.4006  0.1536  0.1569
18856TIP3    H178059   1.483   2.508   2.943 -0.6986 -2.7306 -0.8551
18856TIP3    H278060   1.448   2.505   3.090  0.3427  3.2141 -0.3608
18857TIP3   OH278061   5.969   3.181   5.877 -0.3807 -0.5761 -0.1914
18857TIP3    H178062   5.942   3.104   5.827 -1.4768 -0.8368  0.7798
18857TIP3    H278063   5.948   3.255   5.820 -0.4383 -0.9367 -0.6387
18858TIP3   OH278064   4.809   5.830   4.294  0.0616 -0.0487  0.0797
18858TIP3    H178065   4.716   5.837   4.317  0.4993  1.8846  1.4222
18858TIP3    H278066   4.842   5.760   4.351 -0.1876  0.5183  0.9299
18859TIP3   OH278067   1.451   5.789   1.856 -0.5614  0.0001  0.3077
18859TIP3    H178068   1.506   5.772   1.933  1.0335  1.9159 -0.3728
18859TIP3    H278069   1.372   5.829   1.892  0.8582  2.3881  0.8469
18860TIP3   OH278070   1.455   1.472  12.556  0.3469 -0.3684 -0.1048
18860TIP3    H178071   1.501   1.443  12.634  0.3667  1.3832  0.5538
18860TIP3    H278072   1.523   1.478  12.489  0.5727 -0.4798  0.1145
18861TIP3   OH278073   2.878   3.997   6.242 -0.3112 -0.5516  0.1287
18861TIP3    H178074   2.903   4.075   6.192 -2.8251  1.6031  2.0552
18861TIP3    H278075   2.805   3.960   6.193 -0.5081 -0.4526  0.3473
18862TIP3   OH278076   3.544   3.977  14.711 -0.5365 -0.3723 -0.2999
18862TIP3    H178077   3.550   4.024  14.628  1.6363 -0.0440 -0.0072
18862TIP3    H278078   3.636   3.966  14.738 -1.1873 -1.2027  1.6381
18863TIP3   OH278079   0.661   2.862   0.199  0.3055  0.8809 -0.0622
18863TIP3    H178080   0.627   2.921   0.267 -1.0328  0.6866 -0.5447
18863TIP3    H278081   0.748   2.896   0.178 -0.5323  2.8082 -0.4832
18864TIP3   OH278082   6.247   4.956   3.414 -0.3124  0.1056  0.3283
18864TIP3    H178083   6.213   5.040   3.445  0.6507  0.3720  0.6766
18864TIP3    H278084   6.283   4.915   3.493  3.3321  1.3413 -0.5990
18865TIP3   OH278085   4.448   2.497  11.334  0.2562 -0.1700 -0.0511
18865TIP3    H178086   4.512   2.438  11.373 -0.1298  0.0784  0.9579
18865TIP3    H278087   4.454   2.577  11.386 -1.3979 -0.3995  0.5041
18866TIP3   OH278088   6.150   3.543   3.481 -0.8316  0.1771 -0.1915
18866TIP3    H178089   6.217   3.587   3.429  0.4459 -0.2585  1.0397
18866TIP3    H278090   6.163   3.449   3.463 -0.2957  0.0171  0.9957
18867TIP3   OH278091   0.679   4.401  16.186 -0.2709  0.5182 -0.1199
18867TIP3    H178092   0.626   4.323  16.168 -0.8845  1.0019 -0.4437
18867TIP3    H278093   0.724   4.382  16.268 -0.3801 -0.1971 -0.2275
18868TIP3   OH278094   2.007   0.861  13.356 -0.1557 -0.1943 -0.0909
18868TIP3    H178095   1.973   0.786  13.404 -3.2951  0.5889 -0.9515
18868TIP3    H278096   1.970   0.938  13.400 -0.9588  0.6223 -2.0803
18869TIP3   OH278097   2.592   3.282  12.490 -0.2557  0.1183 -0.0203
18869TIP3    H178098   2.631   3.283  12.403 -0.7248 -4.3891 -0.4284
18869TIP3    H278099   2.665   3.303  12.549  0.7354  0.3896 -1.3201
18870TIP3   OH278100   1.583   2.696  16.592  0.4770 -0.2082  0.2421
18870TIP3    H178101   1.562   2.722  16.502 -1.8811  1.0243  1.0964
18870TIP3    H278102   1.519   2.628  16.613  1.7042 -1.2625  0.6520
18871TIP3   OH278103   4.849   6.008  13.984  0.5029  0.1192 -0.3751
18871TIP3    H178104   4.851   5.988  13.891 -0.8378 -1.7296 -0.0340
18871TIP3    H278105   4.926   6.063  13.998 -0.6481  2.5640 -3.0083
18872TIP3   OH278106   4.383   4.587  14.772 -0.2698  0.4292 -0.0606
18872TIP3    H178107   4.467   4.580  14.726  0.0526  2.2358  0.2409
18872TIP3    H278108   4.332   4.514  14.737  1.0242 -0.0281 -1.0805
18873TIP3   OH278109   2.363   0.661   0.201  0.5812 -0.1906  0.6559
18873TIP3    H178110   2.375   0.752   0.229  2.5265 -0.4993  0.9242
18873TIP3    H278111   2.406   0.658   0.115 -2.5507 -0.0207 -0.9738
18874TIP3   OH278112   5.510   5.731  14.895 -0.0384  0.5090 -0.6581
18874TIP3    H178113   5.478   5.813  14.858 -0.9386  0.3245 -0.3184
18874TIP3    H278114   5.529   5.675  14.820  1.2693  1.2812 -0.9052
18875TIP3   OH278115   4.852   1.476  14.791 -0.3951 -0.2485 -0.5845
18875TIP3    H178116   4.800   1.442  14.718  0.4362 -2.1503 -0.3248
18875TIP3    H278117   4.932   1.509  14.751  0.1154 -1.4044 -0.5510
18876TIP3   OH278118   0.907   1.497   1.296 -0.7778 -0.0083 -0.3049
18876TIP3    H178119   0.965   1.512   1.221  0.1389 -0.8208  0.2323
18876TIP3    H278120   0.913   1.403   1.313 -0.0820  0.3491  1.4960
18877TIP3   OH278121   2.642   5.217   4.273  0.2970 -0.9793  0.3593
18877TIP3    H178122   2.577   5.176   4.216 -1.6379  3.1150 -0.4965
18877TIP3    H278123   2.726   5.191   4.236 -0.9021 -1.3819 -2.1713
18878TIP3   OH278124   0.409   5.825   0.946 -0.4336  0.5523  0.5502
18878TIP3    H178125   0.393   5.738   0.983  1.7810  0.3164  1.0348
18878TIP3    H278126   0.471   5.810   0.875  1.7512  1.9740  2.0893
18879TIP3   OH278127   3.882   2.916   4.657 -1.0284 -0.6960  0.3439
18879TIP3    H178128   3.786   2.915   4.659 -1.0747 -1.4330 -1.7555
18879TIP3    H278129   3.906   2.845   4.598  0.8202 -0.2973  0.5895
18880TIP3   OH278130   2.223   0.126  12.905 -0.0007 -0.2377 -0.0391
18880TIP3    H178131   2.156   0.067  12.937  1.5450 -1.2597  1.3818
18880TIP3    H278132   2.233   0.103  12.812  0.9299 -2.5800  0.6056
18881TIP3   OH278133   6.102   5.704  14.444 -0.2464  0.0475  0.0041
18881TIP3    H178134   6.191   5.671  14.454 -0.6214 -1.1334 -0.3806
18881TIP3    H278135   6.094   5.722  14.350 -0.1965  0.7705  0.1434
18882TIP3   OH278136   0.997   1.457  16.277  0.2280  0.4338  0.1940
18882TIP3    H178137   1.056   1.390  16.243  0.4142  0.8402 -0.2966
18882TIP3    H278138   1.042   1.540  16.259 -0.2190  0.7133  0.3575
18883TIP3   OH278139   6.305   1.584  15.784  0.5649  0.7661  0.0139
18883TIP3    H178140   6.372   1.575  15.852 -0.7888 -0.7604  1.1554
18883TIP3    H278141   6.295   1.497  15.747 -0.6826  1.0127 -0.2659
18884TIP3   OH278142   5.605   6.331   0.195 -0.5341  0.1815 -0.0387
18884TIP3    H178143   5.524   6.308   0.148 -0.6427 -1.7620  1.0362
18884TIP3    H278144   5.581   6.323   0.288  0.8465 -0.3078  0.2854
18885TIP3   OH278145   5.593   1.944  14.933  0.0919 -0.9045 -0.2444
18885TIP3    H178146   5.641   2.004  14.875 -1.7505 -1.0938 -2.0069
18885TIP3    H278147   5.515   1.992  14.958  1.5378 -0.2664  3.3323
18886TIP3   OH278148   3.363   0.570  10.750 -0.3781  0.2211  0.6426
18886TIP3    H178149   3.301   0.642  10.748 -0.0435  0.5068 -2.9377
18886TIP3    H278150   3.447   0.609  10.724  0.2232 -1.0632  0.5907
18887TIP3   OH278151   0.055   3.150  11.937 -0.0354 -0.0246 -0.0315
18887TIP3    H178152  -0.003   3.161  11.861 -0.6016 -0.1976  0.3707
18887TIP3    H278153   0.133   3.200  11.915 -1.1052  1.8303  0.2321
18888TIP3   OH278154   3.389   4.014   0.246  0.1929 -0.0331 -0.6166
18888TIP3    H178155   3.405   4.033   0.154 -2.7063  0.3902 -1.0849
18888TIP3    H278156   3.381   4.101   0.287 -0.6604 -0.2142 -0.3887
18889TIP3   OH278157   5.970   1.856   4.151 -0.7646  0.1039  0.2789
18889TIP3    H178158   5.973   1.788   4.084 -0.1665  1.7804 -1.4354
18889TIP3    H278159   5.915   1.819   4.220 -0.1936 -2.2311 -0.4722
18890TIP3   OH278160   2.144   0.697   3.786 -0.0336 -0.3480  0.0510
18890TIP3    H178161   2.230   0.731   3.760  0.8796  0.0165  3.3198
18890TIP3    H278162   2.152   0.602   3.773  0.2480 -0.1449 -1.3307
18891TIP3   OH278163   5.750   5.835  16.198  0.2262  0.6784  0.2540
18891TIP3    H178164   5.680   5.886  16.157  0.5640  0.9356 -0.0073
18891TIP3    H278165   5.737   5.746  16.165  0.3886  0.8481 -0.2842
18892TIP3   OH278166   5.864   3.665   4.456  0.1348  0.5229  0.1248
18892TIP3    H178167   5.927   3.737   4.458  0.9132 -0.1539  0.6260
18892TIP3    H278168   5.918   3.587   4.441 -0.8162  0.1689 -1.5560
18893TIP3   OH278169   4.202   4.995   3.683  0.2103  0.1316  0.0373
18893TIP3    H178170   4.212   5.082   3.645  0.5943 -0.1295 -0.4687
18893TIP3    H278171   4.215   5.007   3.777 -1.0646  0.8445  0.1381
18894TIP3   OH278172   0.086   2.256   4.323 -0.4156  0.1954  0.2359
18894TIP3    H178173   0.019   2.238   4.257  1.1339  0.5630 -1.4791
18894TIP3    H278174   0.168   2.249   4.276  0.6792  1.6107  1.8858
18895TIP3   OH278175   0.886   2.189  14.332 -0.1381 -0.5441  0.1689
18895TIP3    H178176   0.958   2.193  14.396 -1.0082 -0.6199  1.1732
18895TIP3    H278177   0.821   2.133  14.374 -1.7659  1.3921  0.3027
18896TIP3   OH278178   6.705   0.008   0.528  0.2620 -0.4162 -0.1339
18896TIP3    H178179   6.710  -0.029   0.439 -0.4994  1.7143 -1.1006
18896TIP3    H278180   6.741   0.096   0.518 -0.1080 -0.0618  1.6348
18897TIP3   OH278181   1.971   2.972  13.926 -0.1581  0.0164 -0.0225
18897TIP3    H178182   2.029   2.908  13.885 -0.3926 -0.7996  0.9127
18897TIP3    H278183   1.885   2.929  13.927 -0.3967  0.4980  0.2728
18898TIP3   OH278184   0.715   2.361   1.490  0.2189 -0.3879 -0.0456
18898TIP3    H178185   0.639   2.406   1.528  1.3053  0.3874  1.2598
18898TIP3    H278186   0.779   2.431   1.475  1.3895 -1.2843  0.6571
18899TIP3   OH278187   6.084   1.930  11.418  0.4749  0.0882 -0.1097
18899TIP3    H178188   5.991   1.913  11.404  0.4981  0.7115 -1.0496
18899TIP3    H278189   6.092   1.944  11.513 -0.2036 -1.0429  0.1305
18900TIP3   OH278190   0.363   4.303   3.047 -0.0009  0.6746 -0.1094
18900TIP3    H178191   0.308   4.316   2.970  1.7458 -0.0782 -1.5085
18900TIP3    H278192   0.336   4.372   3.108 -1.9625  0.7631 -1.0575
18901TIP3   OH278193   2.373   2.366   2.917 -0.3144 -0.0287 -0.2858
18901TIP3    H178194   2.383   2.323   2.831  0.0576  0.5437 -0.5326
18901TIP3    H278195   2.321   2.444   2.899 -2.6053 -1.3264  0.4793
18902TIP3   OH278196   1.162   6.145  11.507 -0.8317  0.3587 -0.2353
18902TIP3    H178197   1.239   6.200  11.521 -0.7954  0.1293  0.5239
18902TIP3    H278198   1.126   6.174  11.424  0.0272  0.5285 -0.5547
18903TIP3   OH278199   4.923   1.533   4.693 -0.2728 -0.1550 -0.3551
18903TIP3    H178200   4.979   1.456   4.703 -1.0130 -0.7409 -0.6919
18903TIP3    H278201   4.984   1.606   4.685  0.4332 -0.7055 -0.0299
18904TIP3   OH278202   5.628   1.776  14.006 -0.5656 -0.5759  0.3414
18904TIP3    H178203   5.653   1.684  14.001  0.4740 -0.3639  1.5806
18904TIP3    H278204   5.608   1.791  14.098  2.2050  1.1885  0.7003
18905TIP3   OH278205   2.182   4.768  16.649  0.2794 -0.0494  0.3796
18905TIP3    H178206   2.160   4.739  16.737  1.1528  1.5594  1.1540
18905TIP3    H278207   2.273   4.798  16.656  0.1731  0.6210 -0.9211
18906TIP3   OH278208   4.063   0.634   0.684  0.1764  0.3438 -0.5724
18906TIP3    H178209   4.009   0.639   0.763  0.5454 -1.2363 -0.1948
18906TIP3    H278210   4.092   0.724   0.669 -1.0486  0.9014  0.2736
18907TIP3   OH278211   5.403   4.158   4.439  0.1803  0.9061  0.5494
18907TIP3    H178212   5.317   4.157   4.397  1.4352 -2.4997 -2.2695
18907TIP3    H278213   5.391   4.107   4.519 -0.1486 -1.0142 -0.6722
18908TIP3   OH278214   0.901   0.626  13.016 -0.6904 -0.8777 -0.1749
18908TIP3    H178215   0.881   0.532  13.022  0.9290 -1.1560  1.5615
18908TIP3    H278216   0.955   0.643  13.093  0.0055  1.2380 -1.1014
18909TIP3   OH278217   1.529   2.054  15.611  0.5848  0.2857  0.1438
18909TIP3    H178218   1.449   2.002  15.620 -0.6706  2.1053 -0.2779
18909TIP3    H278219   1.504   2.128  15.556  2.2971  1.4779  0.9136
18910TIP3   OH278220   1.382   3.947  14.955 -0.4639  0.6088 -0.3673
18910TIP3    H178221   1.471   3.947  14.919 -0.7148 -0.4384 -1.0343
18910TIP3    H278222   1.332   4.001  14.894 -0.3951  0.7491 -0.2973
18911TIP3   OH278223   6.033   4.190  13.013  0.2542 -0.2245  0.5358
18911TIP3    H178224   6.065   4.192  12.923 -0.4453  1.2305  0.3069
18911TIP3    H278225   5.953   4.243  13.012  0.8994  0.8249  2.2555
18912TIP3   OH278226   3.652   4.786  12.957  0.1034 -0.0945 -0.4076
18912TIP3    H178227   3.626   4.809  13.046 -0.1768 -0.7423 -0.3195
18912TIP3    H278228   3.746   4.804  12.954 -0.1477  1.2423 -0.4065
18913TIP3   OH278229   6.047   5.780  15.073 -0.7049 -0.3127  0.1552
18913TIP3    H178230   5.983   5.846  15.099 -0.6022 -0.2908  0.3588
18913TIP3    H278231   5.996   5.712  15.028 -0.8439 -0.2095  0.1590
18914TIP3   OH278232   4.822   3.402  16.646 -0.3061  0.1813 -0.0303
18914TIP3    H178233   4.837   3.318  16.603 -2.2744 -0.7537  1.0429
18914TIP3    H278234   4.831   3.467  16.576 -0.9137 -1.1079 -1.3356
18915TIP3   OH278235   6.511   2.375  13.435 -0.1466 -0.6665 -0.2604
18915TIP3    H178236   6.542   2.453  13.481 -3.1647 -0.0549  0.7890
18915TIP3    H278237   6.553   2.380  13.349  1.4993  0.8796  0.6005
18916TIP3   OH278238   3.722   2.333  14.616  0.6277  1.1748 -0.4268
18916TIP3    H178239   3.803   2.381  14.635  1.2254  0.1178 -0.2611
18916TIP3    H278240   3.684   2.314  14.702  0.8885  0.5268 -0.4491
18917TIP3   OH278241   1.115   2.697   6.539 -0.0041 -0.3785 -0.1656
18917TIP3    H178242   1.060   2.719   6.614  0.0800 -2.1751  0.4551
18917TIP3    H278243   1.053   2.681   6.467 -0.2292 -1.1260  0.1906
18918TIP3   OH278244   5.000   1.706  11.789 -0.3133 -0.1520  0.1754
18918TIP3    H178245   5.073   1.662  11.744  0.4288  0.4631  0.7693
18918TIP3    H278246   5.032   1.721  11.878 -0.5704  1.5061  0.0110
18919TIP3   OH278247   6.593   5.467   5.319 -0.4995 -0.0017  0.1788
18919TIP3    H178248   6.548   5.392   5.357  0.4543 -0.9733 -0.5830
18919TIP3    H278249   6.635   5.510   5.393 -2.5776  0.8938  0.9032
18920TIP3   OH278250   0.718   6.034   1.526  0.5824  0.3398  0.9886
18920TIP3    H178251   0.628   6.064   1.520 -0.0166 -0.8720  3.1246
18920TIP3    H278252   0.765   6.105   1.570 -0.0477 -0.3207  2.7713
18921TIP3   OH278253   0.650   6.766   3.296  0.4136 -0.1600 -0.9604
18921TIP3    H178254   0.617   6.752   3.385 -0.0233 -2.2457 -1.4405
18921TIP3    H278255   0.673   6.859   3.294  0.6542 -0.1377  1.4091
18922TIP3   OH278256   4.840   5.489  13.766 -0.0434 -0.2626 -0.3994
18922TIP3    H178257   4.833   5.583  13.780  1.3601 -0.0370 -1.1405
18922TIP3    H278258   4.842   5.452  13.855 -1.3842  0.3225 -0.1079
18923TIP3   OH278259   1.165   3.691   0.349  0.6696  0.5277  0.2964
18923TIP3    H178260   1.256   3.720   0.358  1.9515 -3.0131 -0.6866
18923TIP3    H278261   1.138   3.669   0.438  2.1088 -2.1416  0.1110
18924TIP3   OH278262   3.964   6.279   1.209 -0.4803 -0.4260  0.2731
18924TIP3    H178263   3.892   6.232   1.251 -0.5995  0.6531  1.3050
18924TIP3    H278264   4.040   6.222   1.219 -0.9344 -1.0433  0.2187
18925TIP3   OH278265   4.359   0.906  13.026 -0.5408 -0.3344  0.1703
18925TIP3    H178266   4.307   0.857  13.090 -0.0619 -1.6473 -0.4311
18925TIP3    H278267   4.450   0.882  13.047 -0.3635 -0.5196 -0.7902
18926TIP3   OH278268   0.029   2.142  14.336  0.2023  0.0811 -0.3787
18926TIP3    H178269   0.015   2.180  14.423  0.9858  0.1296 -0.2691
18926TIP3    H278270  -0.054   2.100  14.315  0.6327 -1.7124  1.2874
18927TIP3   OH278271   3.109   3.413   0.180  0.7218  0.0956  0.0478
18927TIP3    H178272   3.016   3.435   0.188  0.2654 -2.1252  1.4783
18927TIP3    H278273   3.129   3.369   0.263  2.2018 -2.3337 -1.5542
18928TIP3   OH278274   6.552   2.635   2.874  0.2169 -0.2659 -0.3245
18928TIP3    H178275   6.502   2.560   2.907  0.6074 -0.3360  0.1102
18928TIP3    H278276   6.486   2.692   2.834  0.0024 -1.1378 -1.2007
18929TIP3   OH278277   3.080   5.140   6.237  0.0482  0.4510  0.6378
18929TIP3    H178278   3.127   5.203   6.293  0.3313  0.2828  0.5887
18929TIP3    H278279   3.149   5.094   6.190 -0.1471 -0.0700  0.8552
18930TIP3   OH278280   1.218   4.048   0.965  0.2879 -0.0973  0.1296
18930TIP3    H178281   1.131   4.019   0.937  1.4086 -1.8974 -1.6251
18930TIP3    H278282   1.279   3.989   0.920  2.4313  1.1596  1.2844
18931TIP3   OH278283   4.659   4.408  12.690  0.6927  0.1541  0.0672
18931TIP3    H178284   4.748   4.376  12.674  0.2103 -1.5196  0.6163
18931TIP3    H278285   4.650   4.485  12.634  2.9313  1.1203  0.9669
18932TIP3   OH278286   1.405   1.682   0.648 -0.3097  0.2504 -0.2643
18932TIP3    H178287   1.460   1.644   0.716 -2.2231 -1.7450  0.2190
18932TIP3    H278288   1.466   1.711   0.580  1.3887 -0.7283  0.8384
18933TIP3   OH278289   6.664   5.997  15.954  0.4564 -0.8157 -0.1456
18933TIP3    H178290   6.649   6.091  15.947 -1.3181 -0.9182  1.8929
18933TIP3    H278291   6.588   5.957  15.912  1.0958 -1.3856 -0.8042
18934TIP3   OH278292   3.840   0.137  16.664 -0.1793  0.4983  0.2131
18934TIP3    H178293   3.846   0.047  16.696  0.6644  0.7540  0.8075
18934TIP3    H278294   3.774   0.134  16.595  0.5139 -0.7638 -0.4088
18935TIP3   OH278295   2.153   2.744  15.972  0.2968  0.0224 -0.4484
18935TIP3    H178296   2.138   2.807  16.042  0.1542 -0.0295 -0.4305
18935TIP3    H278297   2.065   2.719  15.943  0.3578  0.1927 -0.7811
18936TIP3   OH278298   6.537   5.068   0.619  0.0985  0.7443  0.1811
18936TIP3    H178299   6.593   5.033   0.550 -1.8469 -0.4610 -0.8321
18936TIP3    H278300   6.595   5.079   0.694  1.6154 -0.7955 -0.7332
18937TIP3   OH278301   5.882   4.278  14.073  0.2386  0.1469 -0.3455
18937TIP3    H178302   5.832   4.198  14.058  2.7509 -1.4134 -0.6801
18937TIP3    H278303   5.948   4.254  14.138  0.4553  2.1951  0.2414
18938TIP3   OH278304   6.155   5.351   4.861 -0.0540 -0.8439  0.0807
18938TIP3    H178305   6.199   5.335   4.778  1.3286 -1.7457  0.9839
18938TIP3    H278306   6.214   5.409   4.909 -0.1228 -1.5878  1.0623
18939TIP3   OH278307   2.302   4.685  14.664  0.3191 -0.2048 -0.3354
18939TIP3    H178308   2.348   4.768  14.648 -0.0780  0.0812 -0.0099
18939TIP3    H278309   2.371   4.619  14.665  0.7678  0.2597  0.4583
18940TIP3   OH278310   3.979   5.556   4.743  0.0493 -0.3244  0.3793
18940TIP3    H178311   4.036   5.565   4.666 -1.2358  0.5147 -0.5094
18940TIP3    H278312   4.036   5.520   4.811  1.1307 -1.4183 -1.0645
18941TIP3   OH278313   4.510   0.981   0.080  0.5274  0.3744  0.4230
18941TIP3    H178314   4.437   1.031   0.045 -0.5139 -0.6655  1.0623
18941TIP3    H278315   4.544   0.931   0.005 -0.4235 -0.3258  0.4500
18942TIP3   OH278316   3.382   5.862   0.666  0.3016 -0.4394 -0.3039
18942TIP3    H178317   3.301   5.912   0.653 -0.0521 -0.6546  0.9449
18942TIP3    H278318   3.449   5.929   0.680 -0.0457 -0.2836  0.6856
18943TIP3   OH278319   0.105   0.203   3.409 -0.0905 -0.4375  0.1053
18943TIP3    H178320   0.188   0.190   3.456  0.6296  0.1521 -0.9720
18943TIP3    H278321   0.058   0.268   3.460  1.2878  1.2394 -0.7291
18944TIP3   OH278322   5.354   6.314   4.796 -0.8931 -0.5820 -0.3914
18944TIP3    H178323   5.394   6.238   4.753 -0.4442 -0.7780  0.3480
18944TIP3    H278324   5.417   6.385   4.782 -1.6076 -0.1848 -1.6219
18945TIP3   OH278325   6.015   4.929  17.018  0.6564  0.5649  0.4566
18945TIP3    H178326   6.083   4.913  16.953 -0.8364 -0.0645 -0.9784
18945TIP3    H278327   6.022   5.023  17.037  1.3396  0.6855 -0.3528
18946TIP3   OH278328   1.370   5.497  14.187  1.0187 -0.0688 -0.1194
18946TIP3    H178329   1.300   5.487  14.122  0.2945 -0.0798  0.6547
18946TIP3    H278330   1.325   5.496  14.271  1.9063  0.4317  0.3650
18947TIP3   OH278331   2.869   3.979   0.370 -0.1535 -0.5592 -0.6479
18947TIP3    H178332   2.871   3.999   0.464  0.5316 -0.7259 -0.6270
18947TIP3    H278333   2.958   3.952   0.349 -0.4681 -1.1907 -1.2037
18948TIP3   OH278334   4.702   0.150  14.553  0.1857 -0.2858 -0.3232
18948TIP3    H178335   4.645   0.102  14.612  0.6488 -0.6549 -0.1759
18948TIP3    H278336   4.675   0.241  14.562  0.0862 -0.3744  0.2638
18949TIP3   OH278337   2.303   3.363   5.253  0.2577  0.2644  0.3169
18949TIP3    H178338   2.286   3.444   5.300  2.2597  0.8746  0.0070
18949TIP3    H278339   2.246   3.367   5.176 -0.5672  0.7743  0.9441
18950TIP3   OH278340   5.452   1.791   5.678  0.4920 -0.2498  0.3954
18950TIP3    H178341   5.510   1.834   5.615  0.4500 -0.0816  0.4711
18950TIP3    H278342   5.433   1.858   5.743 -3.1914  1.0137 -1.8388
18951TIP3   OH278343   3.142   4.125  16.467  0.1665  0.0688 -0.9390
18951TIP3    H178344   3.156   4.213  16.431  2.0349 -0.2706 -1.1226
18951TIP3    H278345   3.187   4.067  16.405 -0.3325 -0.9303 -0.3718
18952TIP3   OH278346   4.942   0.400  15.476  0.3020 -0.4734  0.5828
18952TIP3    H178347   4.906   0.450  15.403  0.5370  2.3532  2.3615
18952TIP3    H278348   4.868   0.349  15.509 -0.8327  1.4709  1.0513
18953TIP3   OH278349   5.514   4.601  14.680  0.2063  0.1244  0.1929
18953TIP3    H178350   5.567   4.647  14.615  1.7756 -2.5085 -0.4795
18953TIP3    H278351   5.578   4.562  14.740 -0.7313 -4.5978 -1.6388
18954TIP3   OH278352   2.517   4.718   0.371 -0.2772 -0.0087  0.6197
18954TIP3    H178353   2.468   4.642   0.340 -1.8590  0.9277  0.7660
18954TIP3    H278354   2.452   4.788   0.376  0.9335  1.0782  1.5038
18955TIP3   OH278355   3.588   2.424   0.869  0.9917 -0.1089 -0.3704
18955TIP3    H178356   3.509   2.372   0.854  1.2025 -0.0211 -1.8698
18955TIP3    H278357   3.626   2.388   0.949  0.2711 -1.1832 -0.5032
18956TIP3   OH278358   5.472   5.736   4.435  0.0962  0.4481 -0.2537
18956TIP3    H178359   5.517   5.674   4.377 -0.2181  0.7031 -0.7711
18956TIP3    H278360   5.431   5.799   4.376 -1.6864 -0.2932  0.1639
18957TIP3   OH278361   6.051   4.321   2.027  0.1286 -0.2676 -0.3371
18957TIP3    H178362   6.102   4.389   2.071  1.0596 -0.1134 -1.6134
18957TIP3    H278363   6.043   4.352   1.936 -1.5116 -0.7042 -0.3715
18958TIP3   OH278364   0.875   0.572   3.873 -0.1184 -0.3773 -0.2015
18958TIP3    H178365   0.868   0.478   3.891 -0.7907 -0.4271 -0.6954
18958TIP3    H278366   0.821   0.585   3.795 -0.0477  0.4251 -0.1170
18959TIP3   OH278367   2.263   4.077  16.558 -0.0272 -0.1297  0.1674
18959TIP3    H178368   2.286   4.056  16.649  1.6344  2.6405  0.4533
18959TIP3    H278369   2.211   4.157  16.565  1.0321  0.7094 -1.3713
18960TIP3   OH278370   1.120   3.762   6.278 -0.2716  0.2259  0.5652
18960TIP3    H178371   1.095   3.686   6.331  3.4356 -0.7837  0.9798
18960TIP3    H278372   1.080   3.746   6.192 -0.7483 -1.4196  1.0866
18961TIP3   OH278373   3.088   2.113  13.662 -0.6390 -0.3884 -0.2752
18961TIP3    H178374   2.998   2.120  13.631 -1.3078 -0.7699  1.5492
18961TIP3    H278375   3.141   2.141  13.587 -2.3009  0.8609 -1.0227
18962TIP3   OH278376   1.661   0.169  13.557  0.5766 -0.7130 -0.0246
18962TIP3    H178377   1.636   0.081  13.586 -1.3671 -0.6347 -1.3804
18962TIP3    H278378   1.654   0.166  13.462  0.5408  0.9084 -0.0823
18963TIP3   OH278379   2.092   0.065  14.681  0.1819 -0.7018  0.2430
18963TIP3    H178380   2.072   0.148  14.637  1.4013  0.4511  1.7968
18963TIP3    H278381   2.176   0.037  14.644  0.1031 -0.9093  0.2169
18964TIP3   OH278382   5.596   3.873  14.447  0.0113 -1.4089 -0.1221
18964TIP3    H178383   5.527   3.820  14.485 -0.3691 -0.6964  0.1825
18964TIP3    H278384   5.562   3.899  14.361 -1.1623  1.0243  1.0386
18965TIP3   OH278385   2.268   3.567  15.680 -0.7990 -0.4701  0.2765
18965TIP3    H178386   2.221   3.621  15.743  0.7232 -0.5142  1.4720
18965TIP3    H278387   2.199   3.524  15.629 -2.0333  0.4153  1.1754
18966TIP3   OH278388   3.959   4.108   3.021 -0.1331  0.0508  0.1893
18966TIP3    H178389   3.970   4.202   3.015  0.4493 -0.0315 -0.0133
18966TIP3    H278390   3.898   4.095   3.094 -0.1702  0.5770  0.2488
18967TIP3   OH278391   5.585   2.560  15.422  0.1044 -0.0406 -0.4888
18967TIP3    H178392   5.627   2.632  15.469  0.6680 -1.6802  1.5730
18967TIP3    H278393   5.658   2.504  15.393 -0.2852  0.4615 -2.5652
18968TIP3   OH278394   0.222   5.366   2.286  0.2564  0.3678  0.1733
18968TIP3    H178395   0.268   5.448   2.300 -1.9814  1.4975  1.1912
18968TIP3    H278396   0.268   5.303   2.341  2.1798  0.8382 -0.8568
18969TIP3   OH278397   4.775   1.806  14.220  0.1849 -0.3776 -0.0188
18969TIP3    H178398   4.833   1.868  14.178  0.7625 -0.6145  0.4173
18969TIP3    H278399   4.832   1.736  14.250 -0.1946 -0.1584  1.2542
18970TIP3   OH278400   2.542   4.778   1.437  0.1403  0.0022 -0.3562
18970TIP3    H178401   2.613   4.717   1.416 -0.5256 -1.4523  1.5427
18970TIP3    H278402   2.581   4.841   1.496  0.4244  0.5128 -1.0840
18971TIP3   OH278403   0.273   6.653   1.332 -0.6516  0.3730  0.1695
18971TIP3    H178404   0.215   6.578   1.340 -0.6223  0.2101 -1.1060
18971TIP3    H278405   0.217   6.729   1.352 -0.8574  0.0785  0.7205
18972TIP3   OH278406   5.083   4.070  11.357 -0.2515  0.1053 -0.0414
18972TIP3    H178407   5.014   4.067  11.423 -0.1866 -0.6918 -0.0072
18972TIP3    H278408   5.050   4.132  11.292 -1.8545 -1.6716 -0.9737
18973TIP3   OH278409   1.447   1.823  12.069 -0.1756  0.9210  0.0045
18973TIP3    H178410   1.528   1.831  12.019  0.3168 -1.4561  0.3542
18973TIP3    H278411   1.475   1.832  12.160 -0.0122 -1.6857  0.2322
18974TIP3   OH278412   2.440   6.399   0.882  0.5313 -0.2801 -0.1963
18974TIP3    H178413   2.430   6.305   0.866  1.7745 -0.7232  1.4523
18974TIP3    H278414   2.500   6.429   0.814  0.6814 -0.8305 -0.3089
18975TIP3   OH278415   1.151   3.068   1.048 -0.2655  0.1521  0.9606
18975TIP3    H178416   1.143   3.156   1.012 -2.6990 -0.9145 -1.3086
18975TIP3    H278417   1.244   3.047   1.042  0.3163  2.4816  1.3752
18976TIP3   OH278418   6.670   4.956   4.380 -0.4271 -0.0516 -0.2511
18976TIP3    H178419   6.736   4.887   4.376  0.7406  0.9426  1.0847
18976TIP3    H278420   6.711   5.025   4.433 -2.9606  0.1306  1.5616
18977TIP3   OH278421   0.268   3.968  14.805  0.4477  0.3375 -0.2286
18977TIP3    H178422   0.267   4.062  14.787  0.2897  0.7216  1.6835
18977TIP3    H278423   0.196   3.954  14.866  1.3117 -0.7985  0.5530
18978TIP3   OH278424   2.683   6.073  11.528  0.5781 -0.5054  0.4945
18978TIP3    H178425   2.779   6.071  11.530  0.5724 -1.1662  0.0880
18978TIP3    H278426   2.657   5.981  11.529 -0.1015 -0.2996  2.3632
18979TIP3   OH278427   6.255   0.434  11.627  0.3454  0.1870  0.4495
18979TIP3    H178428   6.285   0.441  11.717  0.3103 -0.1641  0.4872
18979TIP3    H278429   6.283   0.516  11.586  0.4226  0.3152  0.7587
18980TIP3   OH278430   1.725   1.173  16.888 -0.3867  0.5005 -0.3548
18980TIP3    H178431   1.726   1.151  16.981  0.3841  1.2812 -0.1636
18980TIP3    H278432   1.741   1.267  16.886 -1.3977  0.6653 -1.2364
18981TIP3   OH278433   1.207   2.464  13.433 -0.0467  0.2976 -0.1509
18981TIP3    H178434   1.176   2.382  13.472  1.0494 -0.6445 -1.2316
18981TIP3    H278435   1.269   2.499  13.497  0.5821 -0.4581 -0.3394
18982TIP3   OH278436   2.349   2.569  13.791 -0.2712 -0.3415 -0.5270
18982TIP3    H178437   2.387   2.483  13.811 -0.2461 -0.1653  0.2125
18982TIP3    H278438   2.405   2.631  13.838 -2.7385 -0.2345  2.4553
18983TIP3   OH278439   3.815   4.349  16.818 -0.3614  0.6570 -0.3932
18983TIP3    H178440   3.744   4.411  16.801 -0.0381  1.6781  1.8830
18983TIP3    H278441   3.776   4.281  16.872 -0.1424  0.0280 -1.0075
18984TIP3   OH278442   1.854   5.580   6.606  0.5290 -0.1061  0.0348
18984TIP3    H178443   1.785   5.559   6.542  0.2784 -2.2043  0.9366
18984TIP3    H278444   1.830   5.665   6.641 -0.0501  0.4731 -1.7049
18985TIP3   OH278445   4.543   0.820  15.265 -0.3074 -0.1715 -0.1543
18985TIP3    H178446   4.574   0.773  15.188  2.5955  2.4738 -0.7004
18985TIP3    H278447   4.619   0.826  15.322 -2.0461 -0.8369  2.3007
18986TIP3   OH278448   3.257   4.003   4.620  0.0402  0.1332 -0.7060
18986TIP3    H178449   3.177   4.048   4.645 -0.0537 -0.7329  0.5982
18986TIP3    H278450   3.233   3.910   4.617  1.1627 -0.2120  0.4390
18987TIP3   OH278451   3.785   3.275   0.756  0.0473 -0.1257 -0.1576
18987TIP3    H178452   3.843   3.205   0.724  1.4654  0.5449  0.8987
18987TIP3    H278453   3.778   3.259   0.850 -2.4890 -0.9010 -0.4466
18988TIP3   OH278454   2.826   1.381   0.914  0.0118  0.1090 -0.0155
18988TIP3    H178455   2.827   1.423   0.828  0.3012 -0.7195 -0.4223
18988TIP3    H278456   2.773   1.303   0.902  0.5086 -0.2998  0.4182
18989TIP3   OH278457   5.252   0.211   0.059  0.4506 -0.3558 -0.5252
18989TIP3    H178458   5.302   0.292   0.069 -0.6375  0.4075 -1.2275
18989TIP3    H278459   5.262   0.167   0.143  0.5305  0.8029  0.0870
18990TIP3   OH278460   5.148   1.162   5.446  0.4341  0.6024 -0.1986
18990TIP3    H178461   5.240   1.139   5.457  0.4269  1.1562  1.1672
18990TIP3    H278462   5.150   1.246   5.400  0.5688 -0.0890 -1.4631
18991TIP3   OH278463   5.439   1.808   1.267  0.0406  0.6657 -0.2032
18991TIP3    H178464   5.469   1.719   1.285 -2.8895 -0.3367 -0.1114
18991TIP3    H278465   5.429   1.811   1.172  0.5907  1.0721 -0.2535
18992TIP3   OH278466   2.022   4.610  14.105  0.2201  0.2412  0.4703
18992TIP3    H178467   2.117   4.598  14.110  0.1477  0.4870  3.6723
18992TIP3    H278468   2.004   4.681  14.167 -1.8500  1.5495 -1.5711
18993TIP3   OH278469   4.881   1.836  15.027 -0.1014  0.6348 -0.2724
18993TIP3    H178470   4.899   1.797  15.113  1.3243  1.8709  0.0120
18993TIP3    H278471   4.837   1.767  14.978 -2.1232  0.3278  1.8762
18994TIP3   OH278472   3.312   4.094   2.061  0.0411  0.7367 -0.0107
18994TIP3    H178473   3.387   4.035   2.053  1.0953  2.1778 -0.9284
18994TIP3    H278474   3.252   4.064   1.993 -0.4638 -0.7390  1.0516
18995TIP3   OH278475   5.601   4.934   0.342 -0.5104 -0.1864  0.1738
18995TIP3    H178476   5.657   4.867   0.303 -0.6320 -1.2699  1.8256
18995TIP3    H278477   5.642   4.953   0.427 -1.3315  0.7408  0.3748
18996TIP3   OH278478   0.249   0.321  15.158 -0.6967  0.1705 -0.0446
18996TIP3    H178479   0.190   0.396  15.152  1.6194  2.0127 -0.5380
18996TIP3    H278480   0.307   0.342  15.231 -0.6326 -1.6260  0.4556
18997TIP3   OH278481   0.020   5.305   4.262 -0.1145 -0.3284  0.6682
18997TIP3    H178482  -0.006   5.392   4.294  0.8261  0.3837 -0.4664
18997TIP3    H278483   0.007   5.247   4.337  0.6033  1.0406  1.8735
18998TIP3   OH278484   0.401   4.431  14.492 -0.0384  0.3810 -0.1941
18998TIP3    H178485   0.411   4.454  14.400 -0.8683  1.7127  0.0330
18998TIP3    H278486   0.334   4.490  14.525 -0.3467 -0.6395  1.0750
18999TIP3   OH278487   1.920   2.755  15.758 -0.0290 -0.6021  0.2891
18999TIP3    H178488   1.849   2.730  15.698  0.5624  1.3912 -1.2805
18999TIP3    H278489   1.902   2.846  15.780  0.8845 -0.7238  1.5889
19000TIP3   OH278490   5.501   0.586  16.820 -0.0537 -0.5337 -0.2327
19000TIP3    H178491   5.569   0.527  16.786 -0.4260 -0.3114 -1.3765
19000TIP3    H278492   5.465   0.539  16.895  0.0429 -1.5273 -0.7856
19001TIP3   OH278493   2.026   5.090  16.720  0.4903  0.3332 -0.3068
19001TIP3    H178494   2.017   5.057  16.630  0.4928  0.4662 -0.3554
19001TIP3    H278495   1.960   5.041  16.770  1.4604 -0.7779 -0.0916
19002TIP3   OH278496   2.017   3.838   3.778  0.4815 -0.7375 -1.0228
19002TIP3    H178497   1.991   3.780   3.707  0.1895 -0.1496 -1.3955
19002TIP3    H278498   2.081   3.898   3.738 -1.4076  1.0956 -1.3958
19003TIP3   OH278499   6.374   0.903  11.930 -0.3440  0.3115  0.1709
19003TIP3    H178500   6.429   0.837  11.887 -1.5780 -1.1139  0.7289
19003TIP3    H278501   6.365   0.871  12.020 -2.7093  0.1040 -0.1091
19004TIP3   OH278502   6.610   2.948  11.725 -0.2841 -0.3378 -0.2546
19004TIP3    H178503   6.561   2.960  11.806  1.3549 -1.9593  1.0321
19004TIP3    H278504   6.582   2.863  11.692  2.1400 -1.6547  0.9110
19005TIP3   OH278505   1.944   0.030  13.324  0.0824  0.2235 -0.3057
19005TIP3    H178506   1.969   0.013  13.234  2.4556  1.6962  0.0101
19005TIP3    H278507   1.868   0.087  13.318 -0.1168 -0.1613 -1.3733
19006TIP3   OH278508   0.945   5.912   5.705  0.7778  0.0802 -0.6945
19006TIP3    H178509   1.020   5.923   5.764 -0.0076 -0.9370  0.5173
19006TIP3    H278510   0.978   5.858   5.633  1.3203 -0.0021 -0.3842
19007TIP3   OH278511   1.863   4.392   3.101  0.0555  0.2255 -0.0392
19007TIP3    H178512   1.851   4.459   3.168  0.5149  0.7793 -0.5072
19007TIP3    H278513   1.956   4.368   3.109  0.0567  0.1381 -0.3362
19008TIP3   OH278514   1.552   6.367   1.279 -0.5088  0.7560 -0.1675
19008TIP3    H178515   1.503   6.285   1.267 -2.6935  2.3109 -2.5587
19008TIP3    H278516   1.576   6.392   1.190 -0.0347  2.8020  0.5249
19009TIP3   OH278517   3.306   6.113   5.374  0.5018  0.1303 -0.0220
19009TIP3    H178518   3.312   6.139   5.466  2.0410  0.3560 -0.1733
19009TIP3    H278519   3.361   6.176   5.328  0.7594 -0.7532 -0.9349
19010TIP3   OH278520   1.244   2.897  13.288 -0.6120 -0.1499  0.1524
19010TIP3    H178521   1.260   2.983  13.328  0.5383  0.3225 -1.2409
19010TIP3    H278522   1.314   2.841  13.322 -0.5074 -0.1410 -0.0447
19011TIP3   OH278523   0.415   3.171   5.281  0.6439 -0.1294 -0.4092
19011TIP3    H178524   0.463   3.213   5.352 -0.1714  1.4470 -0.7533
19011TIP3    H278525   0.417   3.235   5.210  1.6477 -1.7794 -1.9102
19012TIP3   OH278526   4.348   5.716   5.792 -0.3372 -0.0005  0.0175
19012TIP3    H178527   4.422   5.660   5.818 -1.3807 -1.4409 -0.0677
19012TIP3    H278528   4.316   5.753   5.874  0.7289  0.9690  0.0132
19013TIP3   OH278529   5.031   1.908  14.173 -0.3150 -0.2153  0.0292
19013TIP3    H178530   5.061   1.979  14.117 -1.2195 -0.3359 -0.6309
19013TIP3    H278531   5.092   1.836  14.156 -0.1171  0.0078 -0.2084
19014TIP3   OH278532   3.451   4.896   3.335 -0.2572 -0.0373  0.6099
19014TIP3    H178533   3.483   4.858   3.417  1.4128  4.2382  2.1092
19014TIP3    H278534   3.529   4.904   3.280 -1.1437 -1.6562 -0.9432
19015TIP3   OH278535   6.715   3.405   0.590 -0.3932 -0.1046  0.3711
19015TIP3    H178536   6.684   3.384   0.502 -0.4059  0.7552  0.1697
19015TIP3    H278537   6.782   3.471   0.577 -0.6869  0.3280  1.0347
19016TIP3   OH278538   5.038   5.782  15.921 -0.6598  0.3280 -0.3694
19016TIP3    H178539   5.070   5.808  15.834  2.5010 -1.4860  0.1758
19016TIP3    H278540   5.098   5.826  15.982 -2.7470  1.4477  0.9131
19017TIP3   OH278541   1.509   4.098  16.634 -0.1334  0.4778  0.1670
19017TIP3    H178542   1.564   4.027  16.603  0.9820  1.4771 -0.2121
19017TIP3    H278543   1.569   4.172  16.643 -1.5438  1.8123 -1.0052
19018TIP3   OH278544   6.297   3.555  15.575  0.6908  0.2478  0.3223
19018TIP3    H178545   6.278   3.585  15.487  1.5082  1.1025  0.4238
19018TIP3    H278546   6.212   3.543  15.616  0.2369 -2.2988 -1.2749
19019TIP3   OH278547   6.295   1.109  14.279 -0.1153  0.1323  0.0969
19019TIP3    H178548   6.233   1.150  14.340  1.4247  1.1500  1.0267
19019TIP3    H278549   6.352   1.056  14.335  0.8107  0.4368 -0.5484
19020TIP3   OH278550   2.473   4.239  11.644 -0.0412 -0.1342  0.5311
19020TIP3    H178551   2.551   4.235  11.699  1.8979  0.7721 -2.0054
19020TIP3    H278552   2.416   4.170  11.677  1.8184 -0.7941  2.4864
19021TIP3   OH278553   6.560   3.464   1.369 -0.4172  0.3956 -0.5663
19021TIP3    H178554   6.510   3.467   1.288 -1.6589  1.6191  0.2228
19021TIP3    H278555   6.598   3.376   1.371 -2.0556 -0.3450 -1.4678
19022TIP3   OH278556   4.915   5.754  14.949  0.3204  0.0909  0.3019
19022TIP3    H178557   4.988   5.800  14.993  1.4809 -2.1737  0.7970
19022TIP3    H278558   4.945   5.741  14.860  0.6193 -0.9976  0.5508
19023TIP3   OH278559   6.371   5.990  16.336  0.1091 -0.3206  0.5822
19023TIP3    H178560   6.461   5.968  16.310  0.0733 -0.6648  0.7480
19023TIP3    H278561   6.356   5.939  16.416 -0.5068 -0.8880  0.1130
19024TIP3   OH278562   2.936   5.688  16.022  0.0287  0.4109 -0.8267
19024TIP3    H178563   3.023   5.711  15.992  0.2405  0.2499 -0.3422
19024TIP3    H278564   2.947   5.664  16.114 -0.3496 -0.6085 -1.0316
19025TIP3   OH278565   2.414   2.274  10.815 -0.2211  0.2957  0.1851
19025TIP3    H178566   2.413   2.369  10.827  1.1183  0.3142  0.2545
19025TIP3    H278567   2.447   2.261  10.726 -2.1209 -0.0707 -0.4931
19026TIP3   OH278568   4.434   5.226   5.105 -0.2670 -0.2053  0.1145
19026TIP3    H178569   4.498   5.190   5.165  1.3228 -0.2470 -1.5624
19026TIP3    H278570   4.408   5.309   5.144  1.0292 -0.0530  0.6723
19027TIP3   OH278571   0.984   1.863   1.501  0.6622 -0.2357 -0.2157
19027TIP3    H178572   0.991   1.843   1.407  2.9372  1.2783 -0.3946
19027TIP3    H278573   0.914   1.928   1.506  0.5143 -0.3365 -0.8713
19028TIP3   OH278574   3.291   2.941   1.335  0.1190 -0.5803  0.2593
19028TIP3    H178575   3.333   2.930   1.250 -0.8097 -0.1073 -0.2721
19028TIP3    H278576   3.326   3.023   1.369 -0.1014 -0.3684 -0.0229
19029TIP3   OH278577   4.160   6.553  13.167 -0.2709  0.3267 -0.0188
19029TIP3    H178578   4.150   6.553  13.072 -1.4237 -0.2276  0.0960
19029TIP3    H278579   4.206   6.471  13.186 -0.9429 -0.0468 -0.0065
19030TIP3   OH278580   2.357   5.137   1.917  0.1421 -0.2617  0.2993
19030TIP3    H178581   2.294   5.143   1.989 -0.4572 -0.3759 -0.2143
19030TIP3    H278582   2.420   5.206   1.935  2.2053 -2.7111  3.0613
19031TIP3   OH278583   3.354   6.524   5.411  0.3739  0.6173 -0.3295
19031TIP3    H178584   3.290   6.589   5.439 -1.3660 -0.4643 -1.7507
19031TIP3    H278585   3.353   6.459   5.481  0.9326  1.2811  0.3064
19032TIP3   OH278586   1.034   1.232  14.795  0.3035 -0.4501  0.4216
19032TIP3    H178587   1.006   1.202  14.709 -0.5576  0.1899  0.4671
19032TIP3    H278588   0.967   1.201  14.855  0.2259  0.2055  0.6818
19033TIP3   OH278589   2.766   0.520  16.087  0.2484 -0.0848  0.2206
19033TIP3    H178590   2.774   0.590  16.022 -0.9011 -0.7580 -0.6610
19033TIP3    H278591   2.725   0.448  16.040  1.5828 -1.4232  1.0814
19034TIP3   OH278592   0.132   3.697   3.286 -0.0205 -0.0808 -0.7130
19034TIP3    H178593   0.221   3.665   3.272  0.2337  1.1520 -1.9435
19034TIP3    H278594   0.142   3.790   3.306 -0.8120 -0.5697  2.1820
19035TIP3   OH278595   5.768   5.271   3.497  0.2173 -0.8739 -0.1773
19035TIP3    H178596   5.781   5.238   3.586  2.5911 -0.7889 -0.4414
19035TIP3    H278597   5.819   5.211   3.442  0.6437  0.3931 -1.2023
19036TIP3   OH278598   6.697   6.064   0.597 -0.6929  0.3875  0.4234
19036TIP3    H178599   6.788   6.092   0.608  0.3144 -2.0937 -1.1209
19036TIP3    H278600   6.656   6.133   0.545  0.7636  0.7358 -0.2872
19037TIP3   OH278601   2.733   4.217  16.913  0.0579  0.2336 -0.4417
19037TIP3    H178602   2.761   4.273  16.841  2.0373 -1.1055 -0.7422
19037TIP3    H278603   2.770   4.259  16.991 -0.1530  0.4382 -0.4534
19038TIP3   OH278604   5.870   3.213   2.823  0.2405  0.2155 -0.0229
19038TIP3    H178605   5.888   3.306   2.815 -1.1919  0.5423  0.4692
19038TIP3    H278606   5.818   3.192   2.745  0.3393 -0.1228  0.0002
19039TIP3   OH278607   6.420   2.638  14.048 -0.0413  0.3122 -0.0967
19039TIP3    H178608   6.354   2.591  14.098 -0.0531 -1.7765 -2.0225
19039TIP3    H278609   6.458   2.573  13.990  2.4419  1.8985 -0.3383
19040TIP3   OH278610   5.132   4.909   4.770 -0.0980  0.8213 -0.3131
19040TIP3    H178611   5.080   4.981   4.735  1.3083  2.1078  0.1984
19040TIP3    H278612   5.216   4.916   4.725  0.9708  1.1641  1.7057
19041TIP3   OH278613   4.562   0.782  10.458  0.2777 -0.3131  0.4613
19041TIP3    H178614   4.495   0.815  10.398 -0.0261 -0.0895  0.9227
19041TIP3    H278615   4.552   0.835  10.537  2.1475  0.9088 -0.0793
19042TIP3   OH278616   6.819   6.361   2.009  0.2047  0.1979  0.2320
19042TIP3    H178617   6.739   6.391   1.966 -0.8139 -0.2410  1.7967
19042TIP3    H278618   6.855   6.296   1.949 -0.9975 -0.1359 -0.1435
19043TIP3   OH278619   3.221   3.385  12.381 -0.2163  0.2991 -0.2179
19043TIP3    H178620   3.157   3.451  12.358 -0.1291  0.9489  1.3789
19043TIP3    H278621   3.184   3.303  12.349 -1.6987  0.7156  0.4075
19044TIP3   OH278622   0.148   3.221  14.993  0.0684  0.8287  0.2609
19044TIP3    H178623   0.228   3.192  14.950  0.7573  1.6481  0.9580
19044TIP3    H278624   0.112   3.142  15.033  0.1932  0.3418 -0.5865
19045TIP3   OH278625   3.255   4.329  11.409 -0.1182  0.2652  0.6210
19045TIP3    H178626   3.215   4.324  11.496  0.9382 -2.4518  0.9950
19045TIP3    H278627   3.184   4.306  11.349 -0.0136 -1.1101  1.0190
19046TIP3   OH278628   5.439   6.583  12.113  0.1833 -0.0883 -0.2127
19046TIP3    H178629   5.465   6.635  12.037 -1.2862  1.7886  0.5065
19046TIP3    H278630   5.440   6.492  12.083  1.2439  0.5000 -1.9750
19047TIP3   OH278631   0.720   6.342  13.680 -0.2193 -0.3720 -0.0113
19047TIP3    H178632   0.650   6.281  13.702 -0.2917 -0.2253  0.1651
19047TIP3    H278633   0.693   6.425  13.719 -0.1374 -0.2175 -0.2778
19048TIP3   OH278634   1.371   0.909  13.593 -0.0508  0.0551 -0.0534
19048TIP3    H178635   1.368   1.003  13.611  0.1364  0.2702 -1.1264
19048TIP3    H278636   1.303   0.895  13.527 -0.3626 -0.6407  0.4018
19049TIP3   OH278637   5.373   4.332   3.683  0.4736 -0.3522  0.1513
19049TIP3    H178638   5.433   4.279   3.631 -0.7660 -0.1217 -1.5559
19049TIP3    H278639   5.401   4.318   3.774  2.6413 -0.7923 -0.5582
19050TIP3   OH278640   3.380   1.882  14.121  0.0851  0.3636  0.0099
19050TIP3    H178641   3.316   1.829  14.074 -0.3573  1.4334 -0.6202
19050TIP3    H278642   3.452   1.893  14.060 -0.7461  2.2569 -0.6996
19051TIP3   OH278643   1.516   5.734   4.115  0.3671  0.1552 -0.1588
19051TIP3    H178644   1.526   5.665   4.181  2.8408 -0.5046 -1.1531
19051TIP3    H278645   1.513   5.687   4.032 -0.0091  1.1389 -0.7056
19052TIP3   OH278646   5.643   2.257   2.751  0.1689  0.3527  0.0756
19052TIP3    H178647   5.670   2.223   2.837 -1.7190  0.6380  0.8038
19052TIP3    H278648   5.549   2.237   2.746  0.0031  1.4742 -1.3903
19053TIP3   OH278649   6.487   5.934  10.668  0.2628  0.2020 -0.0184
19053TIP3    H178650   6.568   5.884  10.658  0.1091 -0.3299  1.3064
19053TIP3    H278651   6.509   6.003  10.731 -0.3176  0.0423  0.3645
19054TIP3   OH278652   2.529   1.402   6.526  0.3573  0.3350  0.0624
19054TIP3    H178653   2.624   1.411   6.522  0.6456 -2.4841 -0.2456
19054TIP3    H278654   2.508   1.418   6.618  1.0007  1.8488 -0.0293
19055TIP3   OH278655   5.344   5.226   2.562 -0.2321  0.3182  0.1159
19055TIP3    H178656   5.375   5.190   2.645 -0.5888  1.6615  0.8456
19055TIP3    H278657   5.419   5.272   2.525  0.2296 -1.1512 -0.8272
19056TIP3   OH278658   5.314   2.942  15.108 -0.0340  0.2282 -0.6923
19056TIP3    H178659   5.382   2.903  15.162 -2.2115 -1.7044  0.7349
19056TIP3    H278660   5.303   3.030  15.144  1.9094  0.6979 -1.1674
19057TIP3   OH278661   4.283   0.040   2.510 -0.0068 -0.2166 -0.1356
19057TIP3    H178662   4.239  -0.044   2.498 -2.3520  1.0308 -0.4842
19057TIP3    H278663   4.244   0.076   2.590  0.3261  0.9318 -0.4807
19058TIP3   OH278664   3.297   1.544   5.221 -0.5199  0.7851  0.1434
19058TIP3    H178665   3.302   1.537   5.126 -0.2314  0.2382  0.1927
19058TIP3    H278666   3.205   1.531   5.242 -0.4953  0.3358 -0.0216
19059TIP3   OH278667   4.190   5.613   2.222  0.0514  0.5105  0.4498
19059TIP3    H178668   4.112   5.648   2.179  0.1773 -0.7632 -0.8329
19059TIP3    H278669   4.219   5.541   2.166  1.4829  0.2212  1.5229
19060TIP3   OH278670   2.614   5.802  17.237 -0.2055 -0.2311 -0.4275
19060TIP3    H178671   2.653   5.787  17.151  2.8135 -1.9297  1.1486
19060TIP3    H278672   2.555   5.729  17.251 -1.1601  0.3690 -1.2898
19061TIP3   OH278673   0.943   0.150  15.549  0.1780 -0.5701  0.0741
19061TIP3    H178674   1.019   0.150  15.607  0.0446 -0.5136  0.2499
19061TIP3    H278675   0.930   0.058  15.527  0.5367 -0.5369 -0.2749
19062TIP3   OH278676   4.140   1.072  11.715  0.4380 -0.4038 -0.2964
19062TIP3    H178677   4.164   0.991  11.761  1.0210  0.8437  1.6737
19062TIP3    H278678   4.053   1.055  11.679 -0.0899 -1.3962  1.4050
19063TIP3   OH278679   5.564   3.848  11.644 -0.2644 -0.0736 -0.1242
19063TIP3    H178680   5.555   3.855  11.549 -1.7690  0.4127  0.0512
19063TIP3    H278681   5.486   3.800  11.672  0.7022 -1.1827  0.7614
19064TIP3   OH278682   4.418   2.299  14.149 -0.9181 -0.0423  0.3209
19064TIP3    H178683   4.331   2.283  14.184 -0.7578 -0.7371  0.4177
19064TIP3    H278684   4.444   2.215  14.111  0.1973 -0.1982  1.3841
19065TIP3   OH278685   6.132   2.579   1.501 -0.2071  0.7794  0.1034
19065TIP3    H178686   6.053   2.615   1.540 -0.5172 -0.6767  0.8559
19065TIP3    H278687   6.105   2.547   1.415  0.0297  2.1400 -0.4900
19066TIP3   OH278688   6.331   5.539   0.931 -0.4125 -0.5061 -0.0326
19066TIP3    H178689   6.236   5.531   0.921 -0.5950  0.3930  0.8665
19066TIP3    H278690   6.365   5.451   0.914 -1.6139 -1.3647  1.7817
19067TIP3   OH278691   5.714   5.484   0.803 -0.4036  0.2024 -0.5944
19067TIP3    H178692   5.755   5.498   0.717 -1.2584 -0.7593 -1.1796
19067TIP3    H278693   5.743   5.558   0.856  0.7759  0.3878 -1.4786
19068TIP3   OH278694   5.491   1.823  12.861 -0.4206  0.2662 -0.4644
19068TIP3    H178695   5.450   1.740  12.839  1.1100 -0.7402  0.3615
19068TIP3    H278696   5.548   1.842  12.786  1.3209 -0.8483  0.5463
19069TIP3   OH278697   5.941   1.192  16.214 -0.1859 -0.8035  0.0309
19069TIP3    H178698   5.877   1.127  16.186 -0.0431 -0.2031 -1.7380
19069TIP3    H278699   5.898   1.276  16.202  0.8809 -0.3949 -1.1083
19070TIP3   OH278700   4.267   4.515   3.024  0.1958 -0.1265 -0.0682
19070TIP3    H178701   4.347   4.566   3.010  0.7832 -0.9936  0.0569
19070TIP3    H278702   4.196   4.576   3.006  0.8807  0.9440  0.7889
19071TIP3   OH278703   5.931   2.744   0.411  0.4556  0.0365 -0.3958
19071TIP3    H178704   5.893   2.769   0.327  0.9120  1.2772 -0.2378
19071TIP3    H278705   5.993   2.674   0.390  0.7839  0.5492 -1.1210
19072TIP3   OH278706   4.966   2.623  13.296  0.0357 -1.0718  0.2413
19072TIP3    H178707   5.047   2.605  13.248 -1.1490 -2.1637 -1.4083
19072TIP3    H278708   4.986   2.700  13.349  1.5542 -0.1284 -1.6338
19073TIP3   OH278709   2.797   2.922   0.563  0.1047 -0.3280 -0.8719
19073TIP3    H178710   2.847   3.004   0.558 -1.3966  0.6460 -0.3558
19073TIP3    H278711   2.707   2.948   0.541 -0.2418 -1.9841 -1.4375
19074TIP3   OH278712   4.606   6.673   4.781  1.2403  0.3865  0.2432
19074TIP3    H178713   4.530   6.726   4.804  1.5299  0.5509  0.8267
19074TIP3    H278714   4.594   6.654   4.688  0.6692  0.7091  0.2458
19075TIP3   OH278715   4.214   5.404  16.909  0.3319  0.1117  0.1079
19075TIP3    H178716   4.214   5.312  16.882 -0.7720  0.5371 -1.4618
19075TIP3    H278717   4.181   5.451  16.832  2.9514  2.0631  0.1332
19076TIP3   OH278718   1.868   4.220  14.855  0.0308 -0.0731  0.5927
19076TIP3    H178719   1.908   4.193  14.772  0.2253  0.5159  0.4926
19076TIP3    H278720   1.918   4.173  14.921  1.2256  1.0301  0.4968
19077TIP3   OH278721   5.092   3.168   6.417 -0.2173  0.4244  0.0731
19077TIP3    H178722   5.053   3.255   6.417  0.7706  0.8853 -1.6862
19077TIP3    H278723   5.076   3.134   6.506 -1.0047  2.1997  0.6224
19078TIP3   OH278724   4.243   2.175  16.640  0.4157 -0.2142 -0.1938
19078TIP3    H178725   4.327   2.128  16.645  0.1654 -0.6972 -0.5412
19078TIP3    H278726   4.214   2.182  16.731  0.7131 -0.2526 -0.0947
19079TIP3   OH278727   5.252   1.348   0.898  0.0282  0.3549  0.0938
19079TIP3    H178728   5.289   1.335   0.986  2.4092  0.6573 -0.8241
19079TIP3    H278729   5.328   1.345   0.840 -1.6138 -0.5217 -2.0475
19080TIP3   OH278730   1.987   5.333  15.272  0.5210  0.1875 -0.2582
19080TIP3    H178731   2.008   5.280  15.195  1.2856  0.8591 -0.5104
19080TIP3    H278732   1.958   5.417  15.236 -1.3699 -0.2701  0.1192
19081TIP3   OH278733   5.610   6.175  14.074 -0.0534  0.0637 -0.1850
19081TIP3    H178734   5.664   6.101  14.102  0.4199  0.2823 -0.5160
19081TIP3    H278735   5.576   6.212  14.156  0.9384  0.4119  0.0675
19082TIP3   OH278736   2.105   1.035  15.960 -0.3473  0.7407  0.4752
19082TIP3    H178737   2.119   0.954  16.008  0.3420  0.6487  0.1311
19082TIP3    H278738   2.153   1.101  16.010 -0.2561  0.7852  0.3297
19083TIP3   OH278739   5.578   1.883   5.037 -0.5421 -0.7955  0.1837
19083TIP3    H178740   5.665   1.845   5.045  0.0591  0.5497  0.1033
19083TIP3    H278741   5.551   1.863   4.947  0.1350 -0.2794 -0.1376
19084TIP3   OH278742   5.901   5.208   1.088  0.2083  0.7038 -0.0180
19084TIP3    H178743   5.815   5.249   1.094 -0.2784 -0.0649 -1.5185
19084TIP3    H278744   5.915   5.194   0.994  0.8719 -1.4294  0.3641
19085TIP3   OH278745   5.871   6.280  14.236  0.4183 -0.1564 -0.1836
19085TIP3    H178746   5.866   6.222  14.313 -0.6979 -0.5165 -0.5146
19085TIP3    H278747   5.907   6.224  14.167  1.0417  0.0548 -0.0298
19086TIP3   OH278748   6.303   4.596   4.795  0.2856  0.0268 -0.0061
19086TIP3    H178749   6.383   4.630   4.836  0.5911  1.7929 -1.9708
19086TIP3    H278750   6.234   4.655   4.826  0.2865  0.5007 -0.8969
19087TIP3   OH278751   3.490   1.942  11.833 -0.2413 -0.5644 -0.5452
19087TIP3    H178752   3.568   1.951  11.888  0.1800 -0.0212 -1.2286
19087TIP3    H278753   3.502   1.859  11.786 -0.3620 -0.7761 -0.2053
19088TIP3   OH278754   5.700   5.532  16.061 -0.1749 -0.2761 -0.2503
19088TIP3    H178755   5.636   5.471  16.097  0.9694 -1.0106  0.5882
19088TIP3    H278756   5.783   5.485  16.067  0.5022  0.8208 -0.9376
19089TIP3   OH278757   4.128   2.813  13.169  0.3138 -0.0346 -0.5614
19089TIP3    H178758   4.069   2.864  13.113  0.6213  0.7987 -0.1315
19089TIP3    H278759   4.135   2.864  13.249 -2.4501 -2.6506  1.4685
19090TIP3   OH278760   5.303   3.832   3.923 -0.1648  0.1229 -0.0910
19090TIP3    H178761   5.304   3.745   3.885 -0.2854  0.0554  0.0621
19090TIP3    H278762   5.369   3.881   3.873 -0.2288 -0.0027 -0.2959
19091TIP3   OH278763   4.017   4.353  16.642  0.6440  0.0669 -0.3367
19091TIP3    H178764   4.064   4.436  16.646  1.3086 -0.1388 -2.8875
19091TIP3    H278765   3.967   4.349  16.723  2.0720  2.0710  0.6715
19092TIP3   OH278766   3.561   6.022   4.407 -0.2409 -0.1045  0.0792
19092TIP3    H178767   3.557   5.981   4.494 -3.6714  1.1802  0.5809
19092TIP3    H278768   3.473   6.057   4.393  0.8138  1.3950 -3.1190
19093TIP3   OH278769   2.393   5.898  17.047  0.0769 -1.1397 -0.1050
19093TIP3    H178770   2.462   5.888  17.112  1.5775  1.3584 -1.2376
19093TIP3    H278771   2.418   5.840  16.975  1.7948  0.8108 -1.1203
19094TIP3   OH278772   1.469   4.900   2.400 -0.1582 -0.3400  0.4734
19094TIP3    H178773   1.420   4.935   2.474  1.0939 -0.6118  1.4384
19094TIP3    H278774   1.540   4.963   2.385 -1.1429  0.3937 -1.3328
19095TIP3   OH278775   5.530   1.596  12.314  1.5189 -0.0163  0.2652
19095TIP3    H178776   5.595   1.526  12.323  1.2415 -0.0985  1.7787
19095TIP3    H278777   5.540   1.627  12.224  2.6775 -0.9856  0.0506
19096TIP3   OH278778   1.678   4.955  13.826 -0.1398 -0.3966  0.0770
19096TIP3    H178779   1.723   4.914  13.900 -0.2995  0.9756  0.9512
19096TIP3    H278780   1.748   4.991  13.772 -0.0836 -0.1430  0.3169
19097TIP3   OH278781   6.008   0.441   3.935 -0.0313 -0.5794  0.3754
19097TIP3    H178782   6.078   0.440   4.000  0.6220 -0.7106 -0.3162
19097TIP3    H278783   5.986   0.533   3.925  1.5662 -0.3131 -0.9874
19098TIP3   OH278784   5.077   6.550   2.760 -1.0857 -0.0675  0.5961
19098TIP3    H178785   5.050   6.533   2.850 -3.1267 -0.7171 -0.1072
19098TIP3    H278786   5.041   6.636   2.739  1.0568  0.9679  1.0083
19099TIP3   OH278787   4.728   5.709   3.204 -0.1058  0.6617 -0.6195
19099TIP3    H178788   4.682   5.760   3.270 -0.3308 -0.3090 -0.0214
19099TIP3    H278789   4.693   5.620   3.213  0.4182  0.3545 -1.5215
19100TIP3   OH278790   3.241   2.418   3.514  0.4643 -0.3418  0.4268
19100TIP3    H178791   3.301   2.409   3.439 -0.3621 -1.1209 -0.1521
19100TIP3    H278792   3.248   2.335   3.561  0.6323 -0.0298  0.9590
19101TIP3   OH278793   2.734   3.364   5.990  0.0844  0.1188 -0.1544
19101TIP3    H178794   2.678   3.395   5.920 -2.8490  0.6839  2.3507
19101TIP3    H278795   2.729   3.433   6.057  0.9559 -1.4501  1.5693
19102TIP3   OH278796   5.136   3.269  11.102 -0.5017 -0.2632  0.7058
19102TIP3    H178797   5.076   3.334  11.140  1.7913  2.8732 -0.7654
19102TIP3    H278798   5.205   3.260  11.168 -0.3966 -0.5728  0.5503
19103TIP3   OH278799   2.557   6.386   2.108 -0.1004  0.5242  0.0994
19103TIP3    H178800   2.579   6.295   2.089 -0.2310  0.3578  0.7382
19103TIP3    H278801   2.468   6.383   2.141 -0.7487  1.0938 -1.5669
19104TIP3   OH278802   2.274   6.337  13.671 -0.3174  0.1054 -0.5553
19104TIP3    H178803   2.364   6.371  13.667  0.7544 -2.7586 -1.8127
19104TIP3    H278804   2.245   6.354  13.761  2.0981 -0.4728  0.3549
19105TIP3   OH278805   4.583   4.167   1.104 -0.9217 -0.7200 -0.0007
19105TIP3    H178806   4.494   4.148   1.072 -1.4608  0.7914  0.5482
19105TIP3    H278807   4.570   4.191   1.196 -0.1051  0.8060 -0.2759
19106TIP3   OH278808   2.412   3.583   5.019 -0.1413  0.0584 -0.3574
19106TIP3    H178809   2.389   3.643   4.948 -1.0138  0.6110  0.3932
19106TIP3    H278810   2.355   3.507   5.006 -0.6224  0.3572  0.0324
19107TIP3   OH278811   6.500   1.483  15.219  0.4178  0.1665  0.1416
19107TIP3    H178812   6.481   1.456  15.309  0.2797 -0.7163 -0.1473
19107TIP3    H278813   6.555   1.413  15.184 -1.4939 -0.7119 -1.2159
19108TIP3   OH278814   5.080   4.543   1.412 -0.4020 -0.2956 -0.1468
19108TIP3    H178815   5.001   4.489   1.401 -0.0283 -0.7285 -0.7522
19108TIP3    H278816   5.058   4.625   1.368 -0.2364 -0.7002 -0.9987
19109TIP3   OH278817   3.506   5.468  16.860 -0.0713 -0.3706  0.6247
19109TIP3    H178818   3.536   5.530  16.927  0.6159 -1.4847  1.3705
19109TIP3    H278819   3.436   5.418  16.902 -0.0325 -0.6800  0.3259
19110TIP3   OH278820   5.293   2.158  15.415  0.1779 -0.5414 -0.1996
19110TIP3    H178821   5.383   2.130  15.400 -0.2466 -1.8773 -0.2869
19110TIP3    H278822   5.246   2.078  15.440 -1.2390 -0.0750 -1.2900
19111TIP3   OH278823   0.928   5.096  16.814 -0.0337  0.3623  0.2831
19111TIP3    H178824   0.895   5.067  16.900 -0.3787 -3.0646 -0.8951
19111TIP3    H278825   0.864   5.161  16.785  0.4182  2.0253  2.8451
19112TIP3   OH278826   2.333   1.360  16.546  0.1987 -0.3354 -1.0482
19112TIP3    H178827   2.260   1.420  16.563  0.7049  0.1447 -0.5367
19112TIP3    H278828   2.301   1.275  16.575 -0.9623 -0.5548 -2.8969
19113TIP3   OH278829   0.243   6.810  14.636 -0.0390  0.1598 -0.1785
19113TIP3    H178830   0.187   6.733  14.642 -0.2698  0.2789 -0.7232
19113TIP3    H278831   0.310   6.786  14.571  0.4755  0.0573  0.3849
19114TIP3   OH278832   2.073   6.013  17.046  0.2097 -0.3822 -0.1965
19114TIP3    H178833   2.004   5.966  16.999 -1.5422  2.1078 -0.2140
19114TIP3    H278834   2.151   6.004  16.991 -0.6442 -1.4583 -1.2293
19115TIP3   OH278835   1.075   0.914  17.111  0.0575 -0.0351 -0.5047
19115TIP3    H178836   1.124   0.837  17.140 -1.6661 -1.0420 -0.2283
19115TIP3    H278837   1.035   0.949  17.191 -0.7837 -0.0071 -0.9406
19116TIP3   OH278838   1.178   4.309  12.955  0.4154  0.1597 -0.3929
19116TIP3    H178839   1.250   4.247  12.941 -0.2948 -0.3214 -1.8917
19116TIP3    H278840   1.144   4.287  13.042  0.4915 -1.2205 -0.7065
19117TIP3   OH278841   2.096   5.175  13.499  0.3117  0.2668 -0.3019
19117TIP3    H178842   2.152   5.179  13.422  0.0502  1.6142 -0.4293
19117TIP3    H278843   2.157   5.176  13.573  0.5665 -1.1148 -0.4633
19118TIP3   OH278844   3.201   2.883   2.906 -0.2600 -0.1928 -0.2735
19118TIP3    H178845   3.140   2.909   2.975  0.7018  2.1702 -0.2669
19118TIP3    H278846   3.275   2.943   2.916  0.3475 -0.4977 -2.7022
19119TIP3   OH278847   2.662   6.664  14.464  0.0172  0.2602  0.1364
19119TIP3    H178848   2.737   6.658  14.404 -1.0607 -1.7234 -1.0504
19119TIP3    H278849   2.607   6.732  14.426 -0.0303 -0.0761 -0.3925
19120TIP3   OH278850   1.922   5.482  15.863  0.2618 -0.2592 -0.4677
19120TIP3    H178851   1.900   5.540  15.937  1.3737  1.4028 -1.3921
19120TIP3    H278852   1.950   5.401  15.904  1.4966  0.8598  0.9926
19121TIP3   OH278853   1.426   2.167  11.508 -0.0654 -0.1984 -0.5528
19121TIP3    H178854   1.457   2.257  11.515  1.7082 -0.8313  0.0998
19121TIP3    H278855   1.394   2.146  11.596 -0.0368 -0.3628 -0.5811
19122TIP3   OH278856   5.997   5.458  11.241  0.4798  0.3611  0.1358
19122TIP3    H178857   6.085   5.494  11.235 -0.0916  1.4980 -1.7260
19122TIP3    H278858   5.994   5.390  11.174  0.4388 -0.8086  1.2919
19123TIP3   OH278859   3.604   1.850  13.114 -1.1587  0.0208 -0.8881
19123TIP3    H178860   3.628   1.770  13.067 -0.5079  0.1839 -0.8425
19123TIP3    H278861   3.680   1.870  13.168 -1.2904  0.7055 -0.9459
19124TIP3   OH278862   3.277   6.381   0.611  0.0284  0.1335 -0.0986
19124TIP3    H178863   3.345   6.448   0.612 -1.6274  1.8608 -0.5406
19124TIP3    H278864   3.300   6.324   0.537  3.0977 -1.5844  2.0985
19125TIP3   OH278865   3.811   2.416   1.303  0.3434  0.1649 -0.2663
19125TIP3    H178866   3.729   2.445   1.261  0.3449 -1.1326 -1.1890
19125TIP3    H278867   3.797   2.433   1.396 -0.1197  1.9905 -0.6454
19126TIP3   OH278868   2.316   3.769   0.971  0.3440 -0.2495 -0.0347
19126TIP3    H178869   2.403   3.731   0.985  0.3998 -0.6438 -1.4658
19126TIP3    H278870   2.266   3.701   0.927 -0.9224 -0.2782  1.3792
19127TIP3   OH278871   6.670   1.734  13.926 -0.4693 -0.5645 -0.0165
19127TIP3    H178872   6.623   1.748  13.844  0.9356 -0.0623 -0.7513
19127TIP3    H278873   6.713   1.818  13.943 -1.4606 -0.3857  1.6999
19128TIP3   OH278874   3.412   0.968  15.446 -0.3338 -0.7835 -0.1305
19128TIP3    H178875   3.459   1.047  15.421 -1.8252 -0.3378 -1.6656
19128TIP3    H278876   3.468   0.896  15.416  0.4147 -0.2929  0.0936
19129TIP3   OH278877   1.782   1.190  12.169  0.0804 -0.2779  0.0465
19129TIP3    H178878   1.693   1.174  12.140 -0.0077 -1.1349  0.7542
19129TIP3    H278879   1.800   1.120  12.231  0.6052  0.9305  1.2958
19130TIP3   OH278880   2.328   0.811   4.942 -0.1915 -0.4928 -0.0076
19130TIP3    H178881   2.377   0.893   4.937 -0.1879 -0.5038 -0.1420
19130TIP3    H278882   2.384   0.754   4.994 -0.7047 -0.0416  1.0505
19131TIP3   OH278883   4.867   0.729   2.855 -0.7134  0.0487 -0.2052
19131TIP3    H178884   4.787   0.698   2.812 -0.8458 -0.3014  0.2914
19131TIP3    H278885   4.938   0.683   2.809 -0.9203 -1.1332  0.6433
19132TIP3   OH278886   2.379   6.723   2.696  0.1560 -0.3261  0.4084
19132TIP3    H178887   2.422   6.641   2.724  0.3276 -0.4169 -0.1189
19132TIP3    H278888   2.363   6.711   2.603 -2.2057 -0.8225  0.8531
19133TIP3   OH278889   4.531   6.804  13.647 -0.0345  0.3554 -0.4762
19133TIP3    H178890   4.468   6.875  13.664 -2.4748 -1.5030 -1.5354
19133TIP3    H278891   4.490   6.727  13.686  0.3146 -1.4192 -3.4937
19134TIP3   OH278892   6.558   5.345   4.487  0.5015  0.1206  0.2559
19134TIP3    H178893   6.483   5.305   4.442  1.1617 -0.7729 -0.0797
19134TIP3    H278894   6.581   5.420   4.433 -0.7636  0.9727  0.8941
19135TIP3   OH278895   5.372   3.926  12.759 -0.8962 -0.1632 -0.6193
19135TIP3    H178896   5.439   3.897  12.697 -1.9729  0.0585 -1.9021
19135TIP3    H278897   5.421   3.947  12.839  0.3621 -1.6441 -0.9693
19136TIP3   OH278898   3.525   2.861   3.636 -0.3598 -0.2393 -0.2933
19136TIP3    H178899   3.575   2.800   3.581 -0.8835 -1.1216  0.1975
19136TIP3    H278900   3.435   2.854   3.604 -0.4131  0.3208 -0.2696
19137TIP3   OH278901   3.103   0.266  14.621  0.2207  0.3414  0.5740
19137TIP3    H178902   3.020   0.314  14.631  0.1946  0.4761 -0.3176
19137TIP3    H278903   3.169   0.326  14.654  0.1025  0.6967  0.1562
19138TIP3   OH278904   5.279   4.697  13.126  0.1190 -0.2119 -0.7583
19138TIP3    H178905   5.207   4.688  13.063 -0.3081  0.5279 -0.3817
19138TIP3    H278906   5.270   4.620  13.183 -0.6973  0.1433 -0.3937
19139TIP3   OH278907   3.183   2.275   2.822  0.2016  0.2453  0.3969
19139TIP3    H178908   3.109   2.269   2.882 -2.6510  0.3487 -2.9514
19139TIP3    H278909   3.159   2.220   2.748  2.0565  2.7444 -2.2000
19140TIP3   OH278910   1.279   2.132   2.975 -0.3218  0.8509  0.4529
19140TIP3    H178911   1.374   2.146   2.966 -0.4027  0.7876 -0.5355
19140TIP3    H278912   1.259   2.160   3.064  0.8179 -0.1588  1.0409
19141TIP3   OH278913   2.305   6.636   3.709  0.2860  0.3824 -0.1472
19141TIP3    H178914   2.375   6.683   3.663  0.6186 -0.7204 -0.7831
19141TIP3    H278915   2.347   6.556   3.741 -0.0322  0.9385  1.7794
19142TIP3   OH278916   4.562   1.547   3.043 -0.1662  0.3253 -0.0479
19142TIP3    H178917   4.570   1.459   3.006 -0.4701 -0.1296  0.9476
19142TIP3    H278918   4.646   1.563   3.085 -0.4658  0.0781  0.6676
19143TIP3   OH278919   6.711   1.483   4.625  0.6459  0.6596  0.0832
19143TIP3    H178920   6.762   1.482   4.544 -0.6761  0.2755 -0.7545
19143TIP3    H278921   6.621   1.464   4.597  0.5192 -1.5646  1.8688
19144TIP3   OH278922   1.639   1.006  11.769 -0.0358  0.0950 -0.0275
19144TIP3    H178923   1.665   0.932  11.715 -1.2459  1.0774 -2.0499
19144TIP3    H278924   1.551   0.984  11.799 -1.5229  1.8399 -2.9021
19145TIP3   OH278925   1.366   5.265  13.541  0.2491 -0.1942 -0.0766
19145TIP3    H178926   1.461   5.270  13.532  0.1403 -1.9408 -2.5116
19145TIP3    H278927   1.342   5.180  13.504 -2.1117 -0.5155  2.0099
19146TIP3   OH278928   3.319   3.182  14.667  0.8118 -0.3081  0.7807
19146TIP3    H178929   3.291   3.146  14.583  0.2619 -0.8880  1.2077
19146TIP3    H278930   3.392   3.240  14.645 -0.3501  0.7801 -0.2715
19147TIP3   OH278931   4.538   1.578  11.104 -0.4225 -0.0501  0.0582
19147TIP3    H178932   4.482   1.613  11.035 -3.0337 -0.2449  1.9961
19147TIP3    H278933   4.597   1.650  11.126 -2.5848  1.5583  0.7172
19148TIP3   OH278934   6.034   2.154  13.767 -0.3770  0.0151 -0.4792
19148TIP3    H178935   5.984   2.200  13.700 -0.1220 -0.4998 -1.0282
19148TIP3    H278936   6.025   2.061  13.744  1.3429 -0.0384 -0.9318
19149TIP3   OH278937   4.561   2.041   1.914 -0.3013  0.1461  0.3968
19149TIP3    H178938   4.491   2.107   1.904  0.0585  0.5599  0.5924
19149TIP3    H278939   4.526   1.963   1.871 -1.2308  0.1002  1.2023
19150TIP3   OH278940   3.389   6.065  12.178  0.2971 -0.2152 -0.6045
19150TIP3    H178941   3.459   6.085  12.116 -0.6265  1.1210 -1.2338
19150TIP3    H278942   3.341   5.992  12.138 -1.0014  1.3898 -2.0695
19151TIP3   OH278943   0.739   4.206  11.203  0.4144 -0.0083 -0.1997
19151TIP3    H178944   0.803   4.222  11.134  0.1048  0.3457 -0.4115
19151TIP3    H278945   0.654   4.228  11.163 -0.0480 -2.2993 -0.5148
19152TIP3   OH278946   4.570   2.006  14.162 -0.0077 -0.3146  0.5459
19152TIP3    H178947   4.626   1.934  14.193 -0.5688 -0.5591  1.0050
19152TIP3    H278948   4.624   2.052  14.097  1.3666  0.4639  2.1754
19153TIP3   OH278949   3.933   2.915   1.036  0.7453  0.3429  0.4925
19153TIP3    H178950   3.902   2.867   0.959  1.0270  1.5305 -0.3869
19153TIP3    H278951   4.027   2.898   1.040  0.6818  0.0569  0.7321
19154TIP3   OH278952   4.524   3.427   4.395 -0.3204 -0.7893 -0.5504
19154TIP3    H178953   4.450   3.374   4.425 -0.2375 -0.4960  0.1899
19154TIP3    H278954   4.571   3.451   4.476  0.4211 -0.7408 -0.9902
19155TIP3   OH278955   4.736   1.714   5.711  0.3592 -0.1877  0.5619
19155TIP3    H178956   4.754   1.808   5.699  0.4051 -0.3447 -0.5780
19155TIP3    H278957   4.822   1.676   5.728  0.1485  0.2193  2.7555
19156TIP3   OH278958   4.864   5.260   5.426 -0.0382 -0.2558  0.1055
19156TIP3    H178959   4.936   5.318   5.402 -0.6154  0.9969  1.3100
19156TIP3    H278960   4.903   5.172   5.427  0.9191  0.1237 -1.4343
19157TIP3   OH278961   6.407   5.807   0.918  0.5638 -0.0858 -0.0719
19157TIP3    H178962   6.474   5.793   0.851  1.1216  0.5192  0.3577
19157TIP3    H278963   6.381   5.719   0.945  2.2026 -0.3177  0.7860
19158TIP3   OH278964   5.173   0.725   3.100  0.4336  0.7549  0.3359
19158TIP3    H178965   5.200   0.804   3.054  0.3858  0.1748 -0.7160
19158TIP3    H278966   5.233   0.718   3.174  0.1162  2.0330  0.7148
19159TIP3   OH278967   2.782   1.081   1.658 -0.2064 -0.0698  0.3305
19159TIP3    H178968   2.803   1.044   1.572 -0.7638 -0.9363  0.5603
19159TIP3    H278969   2.734   1.011   1.703  0.7099  0.1045  1.6118
19160TIP3   OH278970   0.812   1.557   5.331 -0.4276  0.2850 -1.4088
19160TIP3    H178971   0.787   1.618   5.261  1.0634  0.3858 -1.8799
19160TIP3    H278972   0.740   1.495   5.336 -1.3940  1.3586 -1.7840
19161TIP3   OH278973   1.841   5.390  13.596 -0.7143  0.6659 -0.1843
19161TIP3    H178974   1.909   5.457  13.602  0.0016  0.2317 -2.7640
19161TIP3    H278975   1.855   5.349  13.511 -2.4708 -1.3416  0.4345
19162TIP3   OH278976   4.506   2.219   2.464 -0.2007  0.6244  0.4951
19162TIP3    H178977   4.460   2.218   2.547 -2.8257 -3.6823 -0.8491
19162TIP3    H278978   4.599   2.228   2.487 -1.1200  2.2677  3.6715
19163TIP3   OH278979   0.274   0.808   3.446 -0.2249  0.1941 -0.1379
19163TIP3    H178980   0.305   0.874   3.384 -0.1577  0.5592  0.2775
19163TIP3    H278981   0.254   0.858   3.525 -1.2870 -0.1167 -0.1944
19164TIP3   OH278982   3.585   5.368  14.479 -0.2722  0.4432 -0.1365
19164TIP3    H178983   3.607   5.275  14.485  0.9080  0.7936  1.1747
19164TIP3    H278984   3.670   5.413  14.471 -0.6178  1.6078  2.2030
19165TIP3   OH278985   0.750   1.696   1.366 -0.5412 -0.0276  0.1758
19165TIP3    H178986   0.788   1.614   1.336 -1.5186 -0.1425 -0.7958
19165TIP3    H278987   0.693   1.671   1.439 -3.6471 -0.7728 -2.3799
19166TIP3   OH278988   6.471   5.491   4.107  0.2876 -0.2364 -0.8107
19166TIP3    H178989   6.501   5.419   4.052  0.6491 -0.6858 -0.0331
19166TIP3    H278990   6.548   5.519   4.156 -0.1417 -0.1911 -0.1407
19167TIP3   OH278991   3.222   3.666   5.069  0.1478 -0.0848  0.2228
19167TIP3    H178992   3.143   3.702   5.110  0.3034 -0.6503  1.0324
19167TIP3    H278993   3.248   3.593   5.126  0.2423 -1.0287 -1.0068
19168TIP3   OH278994   3.075   2.733   1.882 -0.0212  0.1675 -0.2333
19168TIP3    H178995   3.159   2.687   1.883 -0.7475 -1.2064  1.9101
19168TIP3    H278996   3.014   2.670   1.845 -0.7810 -0.1808  1.5557
19169TIP3   OH278997   0.354   2.905   3.297  0.2013 -0.1732  0.1833
19169TIP3    H178998   0.341   2.968   3.226  2.8400  0.5269  0.2730
19169TIP3    H278999   0.322   2.822   3.261 -1.4181  0.7989 -0.6590
19170TIP3   OH279000   6.265   5.223   0.368 -0.4543  0.1836 -0.0152
19170TIP3    H179001   6.308   5.256   0.447 -0.9231  2.0388 -0.5206
19170TIP3    H279002   6.331   5.230   0.300 -0.2849 -0.7336  0.0488
19171TIP3   OH279003   1.085   0.682   2.328  0.0559  0.2233 -0.0976
19171TIP3    H179004   0.993   0.687   2.353  0.0908  0.9974 -0.1121
19171TIP3    H279005   1.090   0.730   2.245 -0.1892 -2.8121 -1.9935
19172TIP3   OH279006   0.899   4.273   4.383 -0.1227 -0.6817 -0.4514
19172TIP3    H179007   0.806   4.296   4.390 -0.2036 -0.7933 -1.1058
19172TIP3    H279008   0.935   4.293   4.469 -0.6640 -0.2260 -0.3241
19173TIP3   OH279009   6.163   2.421  16.063 -0.8094  0.1275 -0.0395
19173TIP3    H179010   6.110   2.457  15.991 -1.2914  0.7828  0.6369
19173TIP3    H279011   6.201   2.498  16.105  0.9677 -0.3562 -0.7267
19174TIP3   OH279012   6.012   3.041  13.412 -1.0791 -0.4872  0.0812
19174TIP3    H179013   5.937   3.042  13.470 -0.7233  1.3808  0.5415
19174TIP3    H279014   6.084   3.008  13.466 -1.1575 -0.5247  0.1621
19175TIP3   OH279015   0.374   4.872  17.253  0.1027  0.0212  0.5550
19175TIP3    H179016   0.400   4.909  17.337  2.2001  1.1134 -0.5476
19175TIP3    H279017   0.408   4.783  17.254 -0.3924 -0.1689  1.0764
19176TIP3   OH279018   2.348   2.759   5.616  0.3989  0.0690 -0.6312
19176TIP3    H179019   2.365   2.779   5.708 -2.4214 -1.4231  0.2769
19176TIP3    H279020   2.296   2.833   5.585  0.0564 -0.1487 -0.5832
19177TIP3   OH279021   1.569   1.854  14.037 -0.1326  0.6569  0.4913
19177TIP3    H179022   1.525   1.835  14.120 -0.0053 -0.6675  0.2649
19177TIP3    H279023   1.529   1.936  14.007 -1.7365  0.0096  0.7896
19178TIP3   OH279024   0.576   1.688  16.004 -0.6176  0.6453  0.3020
19178TIP3    H179025   0.598   1.773  15.967 -0.2891 -0.2968 -1.7362
19178TIP3    H279026   0.661   1.650  16.029 -0.4818 -0.3031 -1.5500
19179TIP3   OH279027   2.544   0.491  16.242 -0.5189  0.3152 -0.6693
19179TIP3    H179028   2.479   0.532  16.184 -0.7767 -0.5371 -0.9973
19179TIP3    H279029   2.627   0.498  16.194 -0.7465 -0.4561 -1.1813
19180TIP3   OH279030   6.773   3.012  12.171  0.1301 -0.0489 -0.0983
19180TIP3    H179031   6.813   2.927  12.192  2.0168  0.4017 -1.6960
19180TIP3    H279032   6.793   3.025  12.079 -0.3954  1.9995  0.0675
19181TIP3   OH279033   5.716   1.013  14.221  0.3967 -0.3035 -0.1028
19181TIP3    H179034   5.767   0.945  14.264  2.8269  1.6475  0.2348
19181TIP3    H279035   5.712   0.986  14.129  3.6921  0.3990 -0.5208
19182TIP3   OH279036   4.164   2.572  14.153 -0.1991  0.3400  0.1052
19182TIP3    H179037   4.160   2.659  14.112  0.7157  0.0901 -0.5282
19182TIP3    H279038   4.231   2.581  14.221 -0.3370  0.2267  0.2548
19183TIP3   OH279039   1.996   4.351  15.211 -0.2292  0.8275 -0.1808
19183TIP3    H179040   1.949   4.429  15.183 -1.2092  0.4106  0.2949
19183TIP3    H279041   2.088   4.370  15.190 -0.7179  1.1993 -2.1145
19184TIP3   OH279042   2.051   3.476  11.108 -0.0039 -0.1778 -0.1365
19184TIP3    H179043   2.114   3.407  11.091 -0.6415 -0.8655  0.2263
19184TIP3    H279044   2.091   3.555  11.073  1.0479 -0.6036  0.0916
19185TIP3   OH279045   2.565   5.924  12.418 -0.3170 -0.3233  0.1525
19185TIP3    H179046   2.553   5.834  12.448 -0.0607 -0.0265  1.1537
19185TIP3    H279047   2.563   5.977  12.497  2.0582  0.3138 -0.1602
19186TIP3   OH279048   5.287   2.241   6.102 -0.2055 -0.1871  0.2635
19186TIP3    H179049   5.291   2.150   6.071  1.6099 -0.0524  0.0346
19186TIP3    H279050   5.377   2.260   6.131 -0.3284  1.8625 -0.6384
19187TIP3   OH279051   4.973   6.149   4.622  0.1722 -0.5837 -0.5596
19187TIP3    H179052   4.889   6.131   4.579  0.2007  1.0273 -1.3764
19187TIP3    H279053   5.038   6.120   4.559  0.2111  0.4588 -1.0185
19188TIP3   OH279054   5.657   1.979  12.383  0.0852  0.0843  0.2246
19188TIP3    H179055   5.611   2.057  12.415 -1.0046 -0.7271  0.6556
19188TIP3    H279056   5.589   1.926  12.341  0.6539 -1.0370  0.6913
19189TIP3   OH279057   2.274   2.537  12.368 -0.0522 -0.3911 -0.0871
19189TIP3    H179058   2.355   2.554  12.320 -1.7247 -0.7076 -3.1235
19189TIP3    H279059   2.211   2.599  12.331 -0.8851  0.8992  3.2745
19190TIP3   OH279060   6.035   5.792   3.341 -0.3977  0.5901 -0.9778
19190TIP3    H179061   5.956   5.794   3.288 -1.2497 -1.0583  0.1806
19190TIP3    H279062   6.106   5.783   3.278 -1.1810  1.3269 -1.9859
19191TIP3   OH279063   3.633   6.239  12.152  0.5530 -0.3518  0.1900
19191TIP3    H179064   3.674   6.165  12.196  1.6441 -0.1651 -0.4853
19191TIP3    H279065   3.629   6.308  12.218  0.7825 -0.5695  0.4308
19192TIP3   OH279066   6.710   6.131   4.733  0.5364 -0.2768 -0.4132
19192TIP3    H179067   6.737   6.121   4.824 -0.5332  1.5966  0.1520
19192TIP3    H279068   6.713   6.226   4.718 -0.2946 -0.4852 -2.0086
19193TIP3   OH279069   0.995   5.669   3.817 -0.3316  0.3852 -0.2541
19193TIP3    H179070   0.951   5.754   3.813  1.7065  1.4679 -0.4187
19193TIP3    H279071   0.930   5.607   3.787 -1.8987  1.8829 -0.0181
19194TIP3   OH279072   5.661   0.114   5.952 -0.5731 -0.0785  0.2397
19194TIP3    H179073   5.592   0.054   5.981  0.8085 -0.5794  2.6647
19194TIP3    H279074   5.622   0.201   5.962 -0.5975 -0.3138  2.3994
19195TIP3   OH279075   2.532   4.197  11.075 -0.4926  0.0017  0.1006
19195TIP3    H179076   2.484   4.154  11.005  0.0562 -1.8095  0.8178
19195TIP3    H279077   2.588   4.129  11.112 -0.8592  0.8789  2.3693
19196TIP3   OH279078   0.827   1.746  17.045 -0.1276  0.0317  0.0779
19196TIP3    H179079   0.907   1.768  16.998 -0.4565  1.7314  0.3035
19196TIP3    H279080   0.768   1.714  16.977 -0.2824  1.6024 -0.5373
19197TIP3   OH279081   1.523   1.764   5.183 -0.9745 -0.2275  0.1156
19197TIP3    H179082   1.551   1.771   5.092 -0.1757 -1.3587  0.2568
19197TIP3    H279083   1.548   1.847   5.223  2.3326 -1.2128  0.2563
19198TIP3   OH279084   5.715   2.033  13.900 -0.0814  0.0379  0.7370
19198TIP3    H179085   5.702   1.958  13.958  0.2277  1.4615  2.6848
19198TIP3    H279086   5.682   2.003  13.815  0.9919 -2.6393  1.2150
19199TIP3   OH279087   0.570   4.778  12.380  0.4599 -0.2699  0.3643
19199TIP3    H179088   0.548   4.688  12.356 -1.3250  0.3394 -0.3673
19199TIP3    H279089   0.486   4.824  12.380  1.1939  1.1025  2.0190
19200TIP3   OH279090   6.351   0.326  16.046  0.1043  0.8430  0.4602
19200TIP3    H179091   6.306   0.243  16.059  1.2906 -0.0047 -0.6419
19200TIP3    H279092   6.314   0.384  16.112 -4.1115  0.8337 -1.7564
19201TIP3   OH279093   5.126   6.449  11.660  0.0123  0.5905  0.3969
19201TIP3    H179094   5.134   6.498  11.742  3.2208 -1.3537  1.3252
19201TIP3    H279095   5.155   6.511  11.592  0.5486  1.1449  1.1194
19202TIP3   OH279096   0.959   2.907   1.148 -0.5490  0.7188 -0.0807
19202TIP3    H179097   0.906   2.909   1.068 -0.5719  1.9135 -0.0360
19202TIP3    H279098   1.033   2.965   1.129  0.8309 -1.0333 -0.1847
19203TIP3   OH279099   5.087   3.279  12.184  0.3789 -0.6413  0.0343
19203TIP3    H179100   5.074   3.266  12.278  1.6669 -1.4541  0.1102
19203TIP3    H279101   5.135   3.201  12.155 -0.1810 -0.4943 -1.3414
19204TIP3   OH279102   2.613   6.039   6.568 -0.0904  0.5086 -0.2645
19204TIP3    H179103   2.589   5.949   6.589  0.7273  0.3184 -0.1280
19204TIP3    H279104   2.584   6.090   6.643 -1.0928  0.4415 -0.6067
19205TIP3   OH279105   6.645   4.948  14.203  0.1925 -0.1219 -0.0588
19205TIP3    H179106   6.675   5.038  14.216 -0.1878  0.1662 -1.2083
19205TIP3    H279107   6.698   4.897  14.265  1.0829  0.7592 -0.0783
19206TIP3   OH279108   6.492   2.720   1.321  0.4021  0.2805 -0.1049
19206TIP3    H179109   6.539   2.802   1.331 -0.0483  0.4417  0.6995
19206TIP3    H279110   6.454   2.724   1.233 -1.0430  1.6637  0.5708
19207TIP3   OH279111   5.764   1.249  13.878  0.0422  0.0743  0.4076
19207TIP3    H179112   5.770   1.154  13.889  0.2587 -0.0231 -0.5747
19207TIP3    H279113   5.716   1.262  13.796  1.7586  0.7916 -0.5075
19208TIP3   OH279114   1.369   2.801   1.812 -0.0087  0.1913 -0.9812
19208TIP3    H179115   1.320   2.719   1.801  0.2925 -0.3322  1.1778
19208TIP3    H279116   1.343   2.831   1.900  2.1223  0.8625 -0.5636
19209TIP3   OH279117   0.574   4.871   5.914 -0.2637  0.2628  0.0412
19209TIP3    H179118   0.588   4.792   5.967 -2.3867  0.0123  0.2660
19209TIP3    H279119   0.533   4.839   5.833 -0.1871  1.0252 -0.3052
19210TIP3   OH279120   3.840   4.461   6.139 -0.1066  0.1411 -0.0016
19210TIP3    H179121   3.745   4.457   6.131  0.1240 -2.8277 -1.8889
19210TIP3    H279122   3.865   4.377   6.178  1.7404  1.0522  0.8792
19211TIP3   OH279123   2.387   0.631   6.733  0.2826 -0.3951 -0.1584
19211TIP3    H179124   2.307   0.639   6.681  1.1975  0.1293 -1.5247
19211TIP3    H279125   2.374   0.690   6.807 -0.9365 -0.9502  0.0729
19212TIP3   OH279126   1.515   2.364  15.222 -0.6678  0.0938  0.5239
19212TIP3    H179127   1.558   2.449  15.208 -0.2380  0.0309  1.4198
19212TIP3    H279128   1.458   2.353  15.146  0.9568  0.1424 -0.7159
19213TIP3   OH279129   6.174   1.850  15.572  0.1694  0.4249 -0.4007
19213TIP3    H179130   6.224   1.843  15.491 -0.3443  0.1654 -0.6971
19213TIP3    H279131   6.229   1.903  15.629  1.6086 -1.3679 -0.0806
19214TIP3   OH279132   2.106   6.348   1.319  0.0833 -0.8811  0.2604
19214TIP3    H179133   2.199   6.337   1.299  0.1517 -1.0663  0.6804
19214TIP3    H279134   2.099   6.330   1.413 -0.0050  1.3920  0.7291
19215TIP3   OH279135   1.469   2.940   2.951 -0.1792 -0.0358  0.4714
19215TIP3    H179136   1.551   2.963   2.908 -0.9021 -0.1031 -0.9902
19215TIP3    H279137   1.428   3.025   2.971  0.4442  0.0015  1.6050
19216TIP3   OH279138   3.856   2.928  17.074 -0.5131 -0.3489 -0.1267
19216TIP3    H179139   3.950   2.943  17.063 -0.6965 -0.6099 -2.3436
19216TIP3    H279140   3.821   3.014  17.099  0.2138 -0.0862  0.0040
19217TIP3   OH279141   0.643   4.153  13.782 -0.0646 -0.1197  0.5340
19217TIP3    H179142   0.596   4.233  13.758  0.9355  0.1295 -0.6501
19217TIP3    H279143   0.603   4.085  13.728 -0.7904 -0.3955  1.4067
19218TIP3   OH279144   6.213   3.776   4.865  0.3685 -0.2541  0.2153
19218TIP3    H179145   6.212   3.742   4.955 -1.5465 -0.0389  0.2991
19218TIP3    H279146   6.128   3.818   4.855  1.0959  0.8706 -1.2812
19219TIP3   OH279147   0.754   1.915   0.249 -0.3196  0.4662  0.0244
19219TIP3    H179148   0.745   1.847   0.182 -1.9976  0.1420  0.5604
19219TIP3    H279149   0.696   1.985   0.220  1.1562  1.5507 -0.3508
19220TIP3   OH279150   0.234   0.795  13.575 -0.1884 -0.1177  0.3103
19220TIP3    H179151   0.289   0.720  13.556  1.5290  1.2551 -0.2338
19220TIP3    H279152   0.244   0.852  13.498 -0.2028  1.3943  1.4177
19221TIP3   OH279153   3.237   4.157  16.088  0.7042 -0.1858  0.5967
19221TIP3    H179154   3.312   4.104  16.114  1.1062  0.8197  1.4699
19221TIP3    H279155   3.210   4.202  16.168  0.9052  1.6121 -0.3335
19222TIP3   OH279156   1.036   1.571  15.228  0.2607 -0.3551 -0.1708
19222TIP3    H179157   0.982   1.637  15.272 -0.7107 -1.0652 -0.2945
19222TIP3    H279158   1.084   1.528  15.299  2.2823  1.7056 -0.2499
19223TIP3   OH279159   3.453   3.529  15.020 -0.3342  0.5233 -0.2996
19223TIP3    H179160   3.546   3.548  15.030 -0.3645  0.7362 -0.4201
19223TIP3    H279161   3.415   3.610  14.985 -0.7813  0.8647  0.9575
19224TIP3   OH279162   1.256   3.820   5.349  0.0501 -0.3116  0.0350
19224TIP3    H179163   1.299   3.896   5.388 -0.6487  0.4114 -0.5807
19224TIP3    H279164   1.180   3.804   5.406 -0.3036  0.0047 -0.3483
19225TIP3   OH279165   0.853   0.582  15.800  0.4930  0.2123  0.0753
19225TIP3    H179166   0.851   0.674  15.774 -0.9498  0.6147  1.5162
19225TIP3    H279167   0.918   0.542  15.743 -0.5877  1.6275 -2.2165
19226TIP3   OH279168   5.189   6.423   1.773  0.1556 -0.1895 -0.0158
19226TIP3    H179169   5.277   6.411   1.808 -0.3272 -0.4536  1.1361
19226TIP3    H279170   5.202   6.463   1.687  1.4520 -1.3047 -0.3666
19227TIP3   OH279171   5.484   5.946   2.199 -0.7844  0.5686 -0.3144
19227TIP3    H179172   5.518   6.006   2.266 -0.2606 -0.8823  0.7329
19227TIP3    H279173   5.545   5.872   2.200 -1.0795  0.2885 -2.0262
19228TIP3   OH279174   1.518   1.753   4.400  0.1918 -0.2141 -0.0092
19228TIP3    H179175   1.469   1.671   4.408  1.8962 -1.4091 -1.5069
19228TIP3    H279176   1.599   1.729   4.356  0.3310  2.4469 -1.3239
19229TIP3   OH279177   2.078   1.353  14.207 -0.6567 -0.2750  0.4271
19229TIP3    H179178   2.073   1.267  14.249 -2.9758 -0.4799 -0.1767
19229TIP3    H279179   2.067   1.335  14.114 -1.5878  0.6953  0.3329
19230TIP3   OH279180   4.305   6.040   5.950  0.1455 -0.1713  1.0324
19230TIP3    H179181   4.241   5.991   6.002 -1.0773  0.8646  0.5275
19230TIP3    H279182   4.271   6.036   5.860  0.7061  0.5047  0.7854
19231TIP3   OH279183   2.873   3.727   5.410  0.1390 -0.0546  0.5866
19231TIP3    H179184   2.945   3.669   5.434  0.6118  0.1576 -0.3250
19231TIP3    H279185   2.809   3.716   5.481  0.7198 -0.8271  0.9943
19232TIP3   OH279186   4.090   2.971   0.186  0.1726 -0.1448  0.2088
19232TIP3    H179187   4.161   2.946   0.127 -0.7703 -0.4044 -0.8371
19232TIP3    H279188   4.130   3.030   0.250  0.7604  1.8599 -1.9571
19233TIP3   OH279189   6.541   4.148   0.526 -0.4509 -0.1598 -1.0539
19233TIP3    H179190   6.485   4.120   0.599 -0.3918 -0.6650 -1.2004
19233TIP3    H279191   6.503   4.232   0.498 -1.2931 -0.6225 -1.3241
19234TIP3   OH279192   6.060   5.458  14.989  0.2040  0.0670 -0.0868
19234TIP3    H179193   6.046   5.379  14.937 -0.7257  0.2633 -0.1454
19234TIP3    H279194   6.043   5.431  15.079 -1.4067  0.4907 -0.2382
19235TIP3   OH279195   0.194   5.142   3.758 -0.0763  0.9260  0.1009
19235TIP3    H179196   0.145   5.159   3.838 -0.9155 -1.0126  0.0199
19235TIP3    H279197   0.131   5.161   3.688  0.5633  2.3317 -0.1148
19236TIP3   OH279198   5.639   2.860  11.695 -0.0572  0.2278 -0.2756
19236TIP3    H179199   5.671   2.825  11.612 -0.0529 -0.0578 -0.1545
19236TIP3    H279200   5.718   2.866  11.750 -0.2881 -1.0173  0.2160
19237TIP3   OH279201   6.376   2.795  15.888 -0.2660 -0.1691  0.0296
19237TIP3    H179202   6.323   2.803  15.968 -1.5607 -1.4263 -0.6693
19237TIP3    H279203   6.435   2.870  15.891 -0.7561  0.1781  1.8294
19238TIP3   OH279204   4.152   0.722  13.348  0.0997 -0.7287  0.1041
19238TIP3    H179205   4.123   0.800  13.395  2.1496  0.4512 -0.5326
19238TIP3    H279206   4.135   0.650  13.409 -0.1182  0.4221  1.4290
19239TIP3   OH279207   2.666   4.170   2.051  0.0615  0.5280 -0.3856
19239TIP3    H179208   2.743   4.194   2.103  0.3874 -1.0371 -0.0998
19239TIP3    H279209   2.646   4.248   2.000  3.7614  0.0556 -2.7843
19240TIP3   OH279210   5.953   1.783   3.165  0.8281 -0.4672 -0.5903
19240TIP3    H179211   5.921   1.765   3.254  0.0760  0.1816 -0.7295
19240TIP3    H279212   6.045   1.754   3.167  0.7731 -0.6086  0.3487
19241TIP3   OH279213   3.897   6.223  13.531  0.3519  0.1699  0.3302
19241TIP3    H179214   3.958   6.184  13.468  0.2760 -0.3813  0.6017
19241TIP3    H279215   3.948   6.235  13.610 -0.0373 -0.8045  0.7364
19242TIP3   OH279216   4.731   5.357  14.609 -0.2336 -0.1643  0.0870
19242TIP3    H179217   4.709   5.447  14.632 -0.0747 -0.3287  0.8822
19242TIP3    H279218   4.646   5.317  14.589 -0.4654 -0.2581  1.2386
19243TIP3   OH279219   0.502   1.224  13.974 -0.1534 -0.3833  0.0309
19243TIP3    H179220   0.552   1.222  14.056  1.0195  1.2344 -0.6154
19243TIP3    H279221   0.566   1.198  13.907 -0.7495 -0.4023 -0.5307
19244TIP3   OH279222   0.394   5.767  17.121  0.0073  0.1891 -0.5594
19244TIP3    H179223   0.428   5.847  17.081 -1.2792  0.4458 -1.1780
19244TIP3    H279224   0.335   5.731  17.054 -0.2872 -0.6725  0.1645
19245TIP3   OH279225   1.699   1.706   1.347  0.0719 -0.3018  0.1304
19245TIP3    H179226   1.699   1.628   1.402  1.4690  1.6786  3.0750
19245TIP3    H279227   1.626   1.759   1.378  0.4001  0.5056 -0.4237
19246TIP3   OH279228   0.299   2.357  12.215 -0.3318  0.0587  0.4017
19246TIP3    H179229   0.393   2.372  12.201 -0.6648  0.0214 -2.2564
19246TIP3    H279230   0.284   2.380  12.306  2.0671  1.1585  0.5603
19247TIP3   OH279231   2.167   5.230  12.150 -0.0012  0.4079 -0.3844
19247TIP3    H179232   2.073   5.210  12.152  0.6343 -2.6559  1.2862
19247TIP3    H279233   2.191   5.225  12.058 -0.9183 -1.7288 -0.5374
19248TIP3   OH279234   4.691   2.210  12.876  0.7680 -0.1517 -0.5693
19248TIP3    H179235   4.623   2.147  12.898  0.0892  0.3345 -1.2500
19248TIP3    H279236   4.771   2.158  12.868  0.2414 -0.9019 -0.9796
19249TIP3   OH279237   5.900   1.685  13.746 -0.3986 -0.4552  0.3846
19249TIP3    H179238   5.816   1.692  13.701  0.0403  0.4685 -0.3088
19249TIP3    H279239   5.918   1.591  13.748 -0.9949 -0.5870 -0.3139
19250TIP3   OH279240   2.124   4.508   3.848 -0.2970  0.3002 -0.2236
19250TIP3    H179241   2.088   4.492   3.761  1.0406  0.9539 -0.9080
19250TIP3    H279242   2.163   4.425   3.874 -0.6662  0.1171 -0.2476
19251TIP3   OH279243   4.010   3.817   1.344  0.7092 -0.3587  0.2577
19251TIP3    H179244   3.944   3.748   1.355 -0.1495  0.3257 -0.5591
19251TIP3    H279245   3.960   3.898   1.341  1.5026  0.0867 -1.4121
19252TIP3   OH279246   0.570   0.732   5.037 -0.0428 -0.4497 -0.3178
19252TIP3    H179247   0.542   0.692   4.955 -0.6802  1.0904 -0.8654
19252TIP3    H279248   0.553   0.825   5.026 -0.8276 -0.3006  1.8262
19253TIP3   OH279249   1.321   5.540   5.875  0.3656 -0.2972  0.5459
19253TIP3    H179250   1.352   5.604   5.810 -0.6871 -0.3109  0.0210
19253TIP3    H279251   1.295   5.464   5.823 -0.7209 -0.2120  0.9463
19254TIP3   OH279252   2.405   6.442   2.535 -0.0937  0.1452  0.1966
19254TIP3    H179253   2.453   6.379   2.589  0.5044  1.8218  1.6767
19254TIP3    H279254   2.470   6.510   2.514 -0.9150  0.6559 -0.7164
19255TIP3   OH279255   0.699   5.050  17.190 -0.2249  0.0956 -0.0599
19255TIP3    H179256   0.672   5.141  17.178 -0.2606  0.0138 -0.6151
19255TIP3    H279257   0.732   5.047  17.280 -0.4476  0.5997  0.0438
19256TIP3   OH279258   5.607   2.765  15.213 -0.0264 -0.5984 -0.7113
19256TIP3    H179259   5.676   2.726  15.161  1.4880 -0.1284  0.9022
19256TIP3    H279260   5.588   2.700  15.280  0.2152  0.0736  0.0159
19257TIP3   OH279261   6.135   5.210   5.445 -0.0732  0.1032 -0.6302
19257TIP3    H179262   6.159   5.118   5.431  0.4245  0.4559 -2.2220
19257TIP3    H279263   6.155   5.253   5.362 -0.2093  1.6819  0.1339
19258TIP3   OH279264   3.233   3.045  14.900  0.4565 -0.4105  0.7416
19258TIP3    H179265   3.272   3.083  14.821  0.3358  1.7212  1.6711
19258TIP3    H279266   3.142   3.072  14.898  0.3561 -0.6856  1.4251
19259TIP3   OH279267   6.596   5.779  14.201  0.4413 -0.7015 -0.3187
19259TIP3    H179268   6.668   5.811  14.256 -0.9259  0.1526  1.0255
19259TIP3    H279269   6.593   5.840  14.128 -0.8710  1.1304  1.2119
19260TIP3   OH279270   2.546   2.379  14.092  0.1525 -0.4615 -0.0170
19260TIP3    H179271   2.630   2.340  14.065  1.4223  1.5550  0.9104
19260TIP3    H279272   2.539   2.360  14.185  0.0128  0.1303  0.0982
19261TIP3   OH279273   4.538   2.862   4.297 -0.2187  0.3363 -0.0434
19261TIP3    H179274   4.608   2.838   4.236 -2.5934 -1.5388 -2.1202
19261TIP3    H279275   4.521   2.955   4.279  2.0273  0.9638  0.8561
19262TIP3   OH279276   2.381   4.251   3.031  0.1606 -0.3673  0.0039
19262TIP3    H179277   2.293   4.212   3.037 -0.2166  0.1061 -2.2439
19262TIP3    H279278   2.372   4.337   3.073 -0.3668 -0.4414  0.0485
19263TIP3   OH279279   6.491   2.884  10.616 -0.4428  0.2042 -0.7574
19263TIP3    H179280   6.510   2.859  10.525 -0.6680  1.7490 -1.2462
19263TIP3    H279281   6.568   2.932  10.644  0.0009 -1.0335  0.1828
19264TIP3   OH279282   6.525   5.492  13.583 -0.3873  0.3132  0.1162
19264TIP3    H179283   6.431   5.493  13.567 -0.2933 -0.0724 -0.4881
19264TIP3    H279284   6.562   5.446  13.507  0.1807 -0.4887  0.8684
19265TIP3   OH279285   5.450   1.175  16.510  0.1246  0.0459 -0.4821
19265TIP3    H179286   5.366   1.215  16.489  0.2062  1.4699  1.7413
19265TIP3    H279287   5.480   1.221  16.589  1.6333 -2.4076  0.4406
19266TIP3   OH279288   2.230   0.155   1.622 -0.1880  0.1482 -0.2894
19266TIP3    H179289   2.184   0.121   1.546  0.5622  0.5556 -0.9363
19266TIP3    H279290   2.321   0.126   1.610 -0.0074  0.4629  0.2926
19267TIP3   OH279291   4.826   5.605   3.446 -0.0802 -0.4614  0.0843
19267TIP3    H179292   4.739   5.623   3.412 -1.3341 -0.0964  3.2852
19267TIP3    H279293   4.823   5.513   3.473  0.9949 -0.8464 -1.0511
19268TIP3   OH279294   3.685   0.390  16.393 -0.2245  0.0686 -0.0017
19268TIP3    H179295   3.652   0.416  16.308  1.2618 -0.5759 -0.7987
19268TIP3    H279296   3.686   0.294  16.391 -1.7228  0.0074  1.3502
19269TIP3   OH279297   4.772   4.672   0.339  0.1075  0.3411 -0.2517
19269TIP3    H179298   4.850   4.646   0.388 -0.1134 -1.3202 -0.7594
19269TIP3    H279299   4.789   4.642   0.250 -1.5085 -0.9086 -0.1636
19270TIP3   OH279300   5.781   3.888   4.269 -0.2676 -0.0171 -0.6683
19270TIP3    H179301   5.706   3.859   4.216 -0.9753  2.1902 -0.9333
19270TIP3    H279302   5.744   3.901   4.357  0.3399 -1.2069 -0.2321
19271TIP3   OH279303   6.605   4.690  15.747  0.2841 -0.2086 -0.1068
19271TIP3    H179304   6.683   4.656  15.704 -0.6056 -0.3489 -1.6170
19271TIP3    H279305   6.625   4.684  15.841  2.4644  0.6830 -0.5003
19272TIP3   OH279306   0.107   1.626  13.790  0.2334 -0.0588  0.0640
19272TIP3    H179307   0.019   1.647  13.821  0.5737  0.8983  0.3896
19272TIP3    H279308   0.094   1.601  13.698 -0.0918  2.3631 -0.5790
19273TIP3   OH279309   6.291   1.855  16.004 -0.5883  0.0958  0.2683
19273TIP3    H179310   6.240   1.935  15.990  0.6365  0.5592 -1.6900
19273TIP3    H279311   6.354   1.854  15.932 -0.7432 -2.7589  0.1221
19274TIP3   OH279312   3.574   2.215  10.451 -0.5043  0.3649  0.0321
19274TIP3    H179313   3.527   2.166  10.384 -2.7591  1.2135  0.9538
19274TIP3    H279314   3.527   2.197  10.533  0.4838  1.5908  0.8969
19275TIP3   OH279315   5.154   6.514  12.668 -0.1641  0.4703  0.1799
19275TIP3    H179316   5.164   6.528  12.574  1.1113  0.8246  0.3602
19275TIP3    H279317   5.156   6.602  12.706 -0.2536  0.3037  0.5795
19276TIP3   OH279318   0.628   6.594   1.272 -0.1805  0.0849  0.3006
19276TIP3    H179319   0.598   6.674   1.228  0.5628  0.3851  0.3264
19276TIP3    H279320   0.629   6.616   1.365  1.0940  0.4173  0.2207
19277TIP3   OH279321   5.122   6.373   0.327  0.0521 -0.1685 -0.3364
19277TIP3    H179322   5.131   6.278   0.320 -2.2392 -0.4794  0.2292
19277TIP3    H279323   5.165   6.395   0.409  1.6595 -0.5424 -1.0733
19278TIP3   OH279324   3.521   3.626  12.506  0.8695 -0.1928  0.0328
19278TIP3    H179325   3.565   3.708  12.529 -0.3410 -0.2201  2.4990
19278TIP3    H279326   3.591   3.560  12.509  1.7153  0.6190 -1.3415
19279TIP3   OH279327   2.010   6.731  15.406 -0.2014 -0.1646 -0.5912
19279TIP3    H179328   2.083   6.792  15.393 -0.0028 -0.1211  0.6458
19279TIP3    H279329   2.052   6.645  15.415 -0.0489  0.2426  3.0469
19280TIP3   OH279330   4.734   3.774   5.746  0.3439  0.5286 -0.6772
19280TIP3    H179331   4.732   3.785   5.651  1.7512  1.6624 -0.5897
19280TIP3    H279332   4.745   3.862   5.781  0.0243  0.1022  0.5332
19281TIP3   OH279333   0.578   6.134   5.692 -0.3453  0.7977 -0.1173
19281TIP3    H179334   0.642   6.204   5.706  0.2365  0.0134  1.2819
19281TIP3    H279335   0.527   6.131   5.774 -1.2954  0.5347 -0.7145
19282TIP3   OH279336   6.174   0.805  10.885 -0.6775  0.1531 -0.4435
19282TIP3    H179337   6.141   0.715  10.877  0.6108 -0.1859 -1.9598
19282TIP3    H279338   6.108   0.859  10.841 -0.2391 -0.3213 -1.7079
19283TIP3   OH279339   1.202   4.785  17.192  0.8719  0.1086 -0.1570
19283TIP3    H179340   1.262   4.796  17.118  1.0101 -1.6302 -0.3297
19283TIP3    H279341   1.116   4.770  17.152  0.8847 -0.4834  0.0256
19284TIP3   OH279342   0.941   6.473  14.410  0.0462 -0.2458  0.3938
19284TIP3    H179343   0.862   6.497  14.362  1.3752  0.1970 -1.6627
19284TIP3    H279344   0.940   6.377  14.411 -0.9099 -0.2364  1.0960
19285TIP3   OH279345   3.999   0.436  17.131 -0.5029 -0.3555 -0.4432
19285TIP3    H179346   4.057   0.425  17.056  0.0956 -1.2131  0.1319
19285TIP3    H279347   3.981   0.346  17.161 -0.4512 -0.0152  0.6360
19286TIP3   OH279348   1.447   1.292  11.131  0.5043  0.2644 -0.4141
19286TIP3    H179349   1.493   1.367  11.092  2.2462 -0.1419  0.8470
19286TIP3    H279350   1.511   1.252  11.189 -1.9351  0.6664  2.6442
19287TIP3   OH279351   1.373   6.769  11.676 -1.0347 -0.8948 -0.2667
19287TIP3    H179352   1.412   6.788  11.762 -1.0332 -0.8704 -0.2720
19287TIP3    H279353   1.445   6.782  11.614 -1.6764  1.5945 -0.5349
19288TIP3   OH279354   0.595   2.661  16.599 -0.1493  0.3084  0.3172
19288TIP3    H179355   0.654   2.686  16.670 -1.2722 -0.3249  1.5053
19288TIP3    H279356   0.599   2.734  16.537 -0.0395  1.3986  1.6022
19289TIP3   OH279357   5.958   0.618   0.220  0.4617 -0.0124 -0.1070
19289TIP3    H179358   5.968   0.605   0.126  0.5582  3.7379 -0.6996
19289TIP3    H279359   6.031   0.569   0.259  0.9989 -0.7966 -2.0590
19290TIP3   OH279360   4.979   1.226  15.919 -0.1559 -0.8197 -0.2279
19290TIP3    H179361   4.913   1.222  15.988 -0.6841 -0.1480 -0.6948
19290TIP3    H279362   5.030   1.145  15.930 -1.9098 -2.0244 -0.7345
19291TIP3   OH279363   5.232   5.770  14.437 -0.1587 -0.5697  0.3538
19291TIP3    H179364   5.271   5.851  14.404  0.8311 -1.5661 -0.9962
19291TIP3    H279365   5.266   5.702  14.379 -4.6883 -1.3758 -1.5907
19292TIP3   OH279366   0.338   2.618  12.326  0.4753  0.4160 -0.0448
19292TIP3    H179367   0.312   2.695  12.275  0.0423 -0.4984 -1.2556
19292TIP3    H279368   0.414   2.583  12.279 -0.6751 -1.1359 -0.8048
19293TIP3   OH279369   0.334   5.517  14.548 -0.8091 -0.1238 -0.2246
19293TIP3    H179370   0.269   5.495  14.480  0.7116 -0.7701 -1.5043
19293TIP3    H279371   0.418   5.504  14.505  0.1818  1.1538  1.2790
19294TIP3   OH279372   4.271   6.355   0.004  0.1954  0.4592  0.4645
19294TIP3    H179373   4.284   6.265  -0.026 -0.9110  0.3262  0.3939
19294TIP3    H279374   4.202   6.390  -0.052  1.4437  1.7422 -0.2939
19295TIP3   OH279375   5.197   0.845  14.801 -0.0979 -0.2421 -0.1548
19295TIP3    H179376   5.159   0.918  14.753  0.4211 -0.4431 -0.8762
19295TIP3    H279377   5.289   0.870  14.812  0.0112 -0.6544 -0.1454
19296TIP3   OH279378   6.520   0.045  17.084  0.4900  0.3192  0.1302
19296TIP3    H179379   6.605   0.088  17.087  1.3815 -1.1226 -2.3883
19296TIP3    H279380   6.530  -0.032  17.139  0.6305  0.4754  0.3241
19297TIP3   OH279381   6.358   4.748   2.971  0.3860 -0.3979 -0.0937
19297TIP3    H179382   6.295   4.793   3.026  1.9842  0.6295  0.9386
19297TIP3    H279383   6.326   4.760   2.882 -1.2432 -0.5229  0.4612
19298TIP3   OH279384   4.132   2.706  12.472  0.2704  0.0814  0.1161
19298TIP3    H179385   4.087   2.705  12.557  0.0536  0.3062  0.0049
19298TIP3    H279386   4.176   2.621  12.467 -1.5605 -0.8641 -0.5266
19299TIP3   OH279387   4.603   1.430   0.321  0.2464 -0.2033  0.0832
19299TIP3    H179388   4.601   1.480   0.239  1.6874 -0.9096 -0.3949
19299TIP3    H279389   4.522   1.379   0.320 -0.4289  0.8679 -0.2124
19300TIP3   OH279390   5.563   5.330   0.084 -0.5949  0.6139 -0.2026
19300TIP3    H179391   5.508   5.282   0.022 -3.3501  1.4316  1.5643
19300TIP3    H279392   5.607   5.262   0.135  0.2470 -0.0406 -1.7568
19301TIP3   OH279393   2.903   0.402   4.616 -0.1164 -0.6092 -0.5400
19301TIP3    H179394   2.950   0.424   4.535 -0.5423 -0.4923 -0.7579
19301TIP3    H279395   2.972   0.377   4.678  0.2530 -0.2196 -0.7879
19302TIP3   OH279396   0.221   4.027   0.597 -0.1563 -0.1209  0.0656
19302TIP3    H179397   0.229   4.047   0.504 -0.6521  1.8555  0.4246
19302TIP3    H279398   0.128   4.038   0.617 -0.4255 -2.6204  0.3684
19303TIP3   OH279399   5.664   5.974  16.433  0.2844 -0.1473  0.7772
19303TIP3    H179400   5.587   5.936  16.477 -0.2985 -0.3037 -0.3548
19303TIP3    H279401   5.700   5.902  16.382  1.2552 -0.0968  1.3742
19304TIP3   OH279402   4.709   4.122   0.357  0.4427 -0.6845  0.0015
19304TIP3    H179403   4.659   4.171   0.292  2.4682  0.9312 -0.3957
19304TIP3    H279404   4.760   4.059   0.306  1.8801  0.4466 -0.0051
19305TIP3   OH279405   3.979   1.295  13.275  0.3013  0.1880 -0.0403
19305TIP3    H179406   4.034   1.357  13.322  0.1871 -0.6485  1.2171
19305TIP3    H279407   4.040   1.245  13.220  0.4401  1.1178 -0.7417
19306TIP3   OH279408   4.247   0.608  11.649 -0.2016  0.2658  0.2029
19306TIP3    H179409   4.243   0.621  11.744 -0.0251  0.9136  0.1283
19306TIP3    H279410   4.211   0.689  11.612  1.5420  0.8379 -0.2955
19307TIP3   OH279411   0.115   2.518   4.696 -0.1983 -0.3705  0.4741
19307TIP3    H179412   0.090   2.610   4.710 -1.0638 -0.7610  1.5806
19307TIP3    H279413   0.173   2.497   4.769  2.0293  0.0212 -1.1607
19308TIP3   OH279414   5.010   5.126   4.545  0.3514  0.9015 -0.5355
19308TIP3    H179415   5.006   5.162   4.456  0.1495  3.7899  0.5855
19308TIP3    H279416   4.980   5.036   4.536 -1.6795  1.7787 -3.0963
19309TIP3   OH279417   4.588   0.616  12.841 -0.3690 -0.1082 -0.3461
19309TIP3    H179418   4.596   0.655  12.928  0.2529 -1.6230  0.2920
19309TIP3    H279419   4.672   0.634  12.799 -0.9093  1.2098 -0.9028
19310TIP3   OH279420   5.132   0.851   2.258 -0.0482 -0.4263  0.1865
19310TIP3    H179421   5.114   0.777   2.317  0.4660 -1.4007 -0.8670
19310TIP3    H279422   5.221   0.877   2.280 -0.0129 -0.5080  0.1398
19311TIP3   OH279423   1.924   1.739  16.777 -0.7725  0.6491 -0.2700
19311TIP3    H179424   1.988   1.682  16.820  0.0489  1.6405 -0.1539
19311TIP3    H279425   1.894   1.688  16.702  0.6423  0.4116 -0.6967
19312TIP3   OH279426   1.875   2.421   1.802 -0.4391  0.2383  0.5533
19312TIP3    H179427   1.802   2.472   1.768 -0.7215  0.3691  1.3315
19312TIP3    H279428   1.897   2.463   1.885 -1.6740 -1.7691  1.9565
19313TIP3   OH279429   3.324   0.683   3.391  0.3687  0.3096 -0.7689
19313TIP3    H179430   3.370   0.711   3.312 -2.0152  1.1058 -1.9237
19313TIP3    H279431   3.240   0.648   3.359 -0.2218 -0.2661  1.3268
19314TIP3   OH279432   5.350   1.914   1.521 -0.0802  0.0128  0.8047
19314TIP3    H179433   5.278   1.969   1.489  0.6730  1.0241  0.8159
19314TIP3    H279434   5.320   1.825   1.506 -0.5272  0.4435 -1.0459
19315TIP3   OH279435   2.634   5.630   1.035 -0.1483 -0.4737 -0.0863
19315TIP3    H179436   2.554   5.584   1.011  0.3573 -1.9386  1.0052
19315TIP3    H279437   2.676   5.650   0.951 -0.6869 -1.4406 -0.5933
19316TIP3   OH279438   5.791   1.917  12.788  0.7097  0.3152 -0.4930
19316TIP3    H179439   5.800   1.879  12.876 -0.7253  2.2767  0.5518
19316TIP3    H279440   5.760   1.844  12.734  0.6085 -0.6778  0.8564
19317TIP3   OH279441   3.231   5.981   1.844  0.6384  0.1771 -0.0153
19317TIP3    H179442   3.202   5.987   1.935  3.0211  0.0845  0.7925
19317TIP3    H279443   3.179   6.047   1.798 -1.8709 -0.9792  1.0411
19318TIP3   OH279444   3.848   1.583  13.584  0.2151 -0.0450 -0.1299
19318TIP3    H179445   3.795   1.599  13.506 -1.3986  1.0881  1.1567
19318TIP3    H279446   3.900   1.663  13.595 -1.7684  1.0475  1.6239
19319TIP3   OH279447   1.979   4.932  11.405 -0.1149  0.1252  0.7608
19319TIP3    H179448   1.998   4.933  11.311  2.1728  0.9021  1.1959
19319TIP3    H279449   1.907   4.993  11.416  0.4234  0.9719 -0.3347
19320TIP3   OH279450   5.401   0.973  12.663 -0.2778 -0.4530  0.4092
19320TIP3    H179451   5.433   0.890  12.697 -0.6982 -1.4094 -1.4389
19320TIP3    H279452   5.308   0.957  12.647 -1.2140  1.5416  3.4736
19321TIP3   OH279453   2.046   4.522   4.405  0.1660  0.0699  0.0465
19321TIP3    H179454   2.067   4.525   4.499 -1.2645 -0.1001  0.3906
19321TIP3    H279455   1.959   4.563   4.399 -0.9388 -2.3034 -0.8406
19322TIP3   OH279456   1.009   2.937  16.171 -0.5131  0.3296  0.2558
19322TIP3    H179457   0.996   2.973  16.259 -1.0524 -3.2089  1.6880
19322TIP3    H279458   0.940   2.872  16.161  1.2530 -1.3012 -1.6777
19323TIP3   OH279459   3.214   6.510   1.389 -0.8077  0.0568  0.2355
19323TIP3    H179460   3.210   6.446   1.460 -1.6830  0.2098  0.3356
19323TIP3    H279461   3.148   6.481   1.326  1.9243 -1.6720 -1.9071
19324TIP3   OH279462   4.999   6.577   5.484 -0.3422  0.0433  0.1026
19324TIP3    H179463   5.093   6.565   5.485 -0.2501 -0.1921 -3.3941
19324TIP3    H279464   4.986   6.664   5.447 -1.4920  0.6400  1.8336
19325TIP3   OH279465   0.767   6.456  15.883 -0.5004 -0.2320  0.5439
19325TIP3    H179466   0.730   6.394  15.821  0.2279  1.8014 -2.0101
19325TIP3    H279467   0.856   6.474  15.850 -0.2530  1.1986  1.8999
19326TIP3   OH279468   5.667   2.455  12.101  0.1390 -0.0161  0.0497
19326TIP3    H179469   5.736   2.391  12.119  0.5535  0.3663 -0.1814
19326TIP3    H279470   5.708   2.519  12.043 -0.3416  0.3395  0.1014
19327TIP3   OH279471   1.916   0.426   6.039  0.9163 -0.6278  0.0656
19327TIP3    H179472   1.919   0.350   5.980  2.6236 -2.5391  2.5247
19327TIP3    H279473   1.866   0.396   6.114 -0.9560  1.6843 -0.2109
19328TIP3   OH279474   0.170   0.758  11.797 -0.5278 -0.3405 -0.4099
19328TIP3    H179475   0.141   0.718  11.879 -0.3790  0.0227 -0.1799
19328TIP3    H279476   0.223   0.833  11.824 -0.4410 -0.2445 -0.8377
19329TIP3   OH279477   1.243   4.586   1.684 -0.3503 -0.4805 -0.8081
19329TIP3    H179478   1.168   4.598   1.742  0.5098  3.0293 -0.2742
19329TIP3    H279479   1.306   4.537   1.736 -0.6676  0.2182  0.2445
19330TIP3   OH279480   3.785   4.016   1.600  0.4890 -0.1596  0.3632
19330TIP3    H179481   3.797   4.018   1.505 -0.7280  2.3567  0.2377
19330TIP3    H279482   3.754   3.927   1.618  0.1049 -0.4603 -1.6821
19331TIP3   OH279483   4.779   0.266   5.392 -0.0100 -0.3798 -0.0241
19331TIP3    H179484   4.782   0.178   5.355 -1.3006 -0.3084 -0.3251
19331TIP3    H279485   4.834   0.262   5.469  0.6042 -1.2335 -0.4979
19332TIP3   OH279486   4.191   5.128   1.670 -0.3416  0.5492 -0.0500
19332TIP3    H179487   4.102   5.092   1.667 -0.0391 -0.2911  0.9241
19332TIP3    H279488   4.211   5.149   1.579 -0.7266 -1.2737 -0.5676
19333TIP3   OH279489   0.676   5.442   5.052  0.0290  0.5193  0.4164
19333TIP3    H179490   0.770   5.453   5.037 -0.1706  1.5240 -0.1728
19333TIP3    H279491   0.655   5.509   5.118  0.3981 -2.1058  3.3017
19334TIP3   OH279492   3.076   5.839   0.892  0.0429 -0.0717 -0.2423
19334TIP3    H179493   3.026   5.920   0.879 -0.0901  0.5858  3.8284
19334TIP3    H279494   3.164   5.869   0.913  0.7734 -1.1051 -1.7699
19335TIP3   OH279495   6.058   1.574   4.258  0.5167  0.4818  0.1550
19335TIP3    H179496   6.123   1.551   4.192 -0.4196 -0.5094 -0.4454
19335TIP3    H279497   6.102   1.636   4.316  1.8159  0.2123 -0.5445
19336TIP3   OH279498   2.435   1.615   5.459  0.5060  0.0937  0.3907
19336TIP3    H179499   2.524   1.589   5.484  0.6996  1.5290  1.2521
19336TIP3    H279500   2.382   1.594   5.536  0.5075  1.3875  0.7446
19337TIP3   OH279501   2.352   2.383  11.699  0.1938 -0.5961  0.4743
19337TIP3    H179502   2.429   2.336  11.730  1.8230  0.4595 -1.8731
19337TIP3    H279503   2.373   2.476  11.711 -0.5649 -0.2885 -0.4574
19338TIP3   OH279504   4.058   4.581  13.945  0.0451 -0.2514  0.2336
19338TIP3    H179505   4.121   4.635  13.899  0.2394 -1.2203 -0.6397
19338TIP3    H279506   3.973   4.604  13.906 -0.0000  0.1295  0.5469
19339TIP3   OH279507   3.687   3.737   3.613  0.1524  0.0584 -0.5197
19339TIP3    H179508   3.765   3.723   3.559  0.2559  1.8769 -0.8930
19339TIP3    H279509   3.699   3.680   3.689  1.1833 -0.6974 -1.2426
19340TIP3   OH279510   1.118   3.610  13.273 -0.9398  0.4150  0.0988
19340TIP3    H179511   1.053   3.671  13.307 -1.7713  0.0662 -0.8717
19340TIP3    H279512   1.108   3.613  13.178 -0.8243 -1.0387  0.0269
19341TIP3   OH279513   4.504   2.951  12.605  0.1390 -0.6777 -0.4447
19341TIP3    H179514   4.557   2.914  12.535 -0.1335 -1.6338 -0.1524
19341TIP3    H279515   4.483   2.876  12.662 -1.5938 -0.3343 -0.5972
19342TIP3   OH279516   3.697   4.605  11.478 -0.1286 -0.2454  0.4140
19342TIP3    H179517   3.776   4.559  11.451  0.5890 -0.3184  2.5601
19342TIP3    H279518   3.669   4.559  11.557 -2.0516  0.0936 -0.0483
19343TIP3   OH279519   4.093   5.521  16.652 -0.3017  0.6957  0.0691
19343TIP3    H179520   4.115   5.495  16.563 -1.1521 -0.8346  0.2781
19343TIP3    H279521   4.110   5.615  16.655  0.7506  0.5653 -1.3851
19344TIP3   OH279522   1.175   4.630  16.271 -0.4505  0.1241 -1.0136
19344TIP3    H179523   1.099   4.575  16.251  0.4534 -1.5629  0.0288
19344TIP3    H279524   1.244   4.596  16.214  0.4841 -0.7582  0.5858
19345TIP3   OH279525   1.664   1.155  14.988  0.5932  0.4833  0.1699
19345TIP3    H179526   1.725   1.165  14.915  0.7207 -0.5049  0.1387
19345TIP3    H279527   1.695   1.077  15.035 -2.7840 -2.3056 -1.9847
19346TIP3   OH279528   1.237   5.413   3.138  0.6325 -0.5481  0.2733
19346TIP3    H179529   1.171   5.390   3.202 -1.5943  0.4325 -1.5806
19346TIP3    H279530   1.295   5.474   3.184 -0.6874 -0.1769  1.4726
19347TIP3   OH279531   2.970   2.636   3.510  0.0266  0.8111  0.6289
19347TIP3    H179532   3.056   2.595   3.509  0.3516  1.4904  0.2003
19347TIP3    H279533   2.908   2.564   3.522  0.7132  0.4178  1.8470
19348TIP3   OH279534   6.401   1.850  16.507  0.1847 -0.0814  0.3577
19348TIP3    H179535   6.439   1.914  16.446  0.2214 -2.3252 -2.0438
19348TIP3    H279536   6.374   1.903  16.583  0.8914  2.6607 -1.2243
19349TIP3   OH279537   0.930   2.128  11.065  0.3637 -0.0521  0.4987
19349TIP3    H179538   0.860   2.074  11.028 -0.0565 -0.7459  2.2474
19349TIP3    H279539   0.998   2.128  10.998 -0.7146 -0.5862 -0.6098
19350TIP3   OH279540   0.170   0.555   4.799  0.3951  0.4567  0.0147
19350TIP3    H179541   0.089   0.573   4.847  0.5255  0.7562  0.1205
19350TIP3    H279542   0.188   0.462   4.816 -0.1170  0.2966 -0.2968
19351TIP3   OH279543   1.682   4.166   4.026  0.3051 -0.5358  0.0707
19351TIP3    H179544   1.763   4.138   3.983  0.7569 -0.1883  0.6918
19351TIP3    H279545   1.703   4.252   4.063 -0.4473 -0.2961 -0.0547
19352TIP3   OH279546   5.171   0.795  15.408 -0.3475  0.3182 -0.0210
19352TIP3    H179547   5.157   0.732  15.479  1.0208  0.3462  0.3015
19352TIP3    H279548   5.187   0.740  15.331 -1.4905  0.2865 -0.2410
19353TIP3   OH279549   3.542   0.167   0.589  0.3177 -0.4007  0.0278
19353TIP3    H179550   3.505   0.248   0.627 -0.1861 -0.2100 -0.8578
19353TIP3    H279551   3.467   0.124   0.548  0.3958 -1.8134  1.3350
19354TIP3   OH279552   3.094   5.402   3.239  0.0587 -0.5591  0.1480
19354TIP3    H179553   3.170   5.369   3.192  0.6594  1.0191 -0.0071
19354TIP3    H279554   3.070   5.482   3.193 -1.2489 -0.6587  0.6461
19355TIP3   OH279555   2.683   5.778  15.972 -0.2095 -0.1979  0.1514
19355TIP3    H179556   2.768   5.734  15.967 -0.3937 -0.7040  1.4439
19355TIP3    H279557   2.621   5.710  15.995 -1.0502  0.1001 -1.1754
19356TIP3   OH279558   5.205   3.944   5.294  0.5848 -0.1534  0.4028
19356TIP3    H179559   5.143   3.920   5.225 -0.1891  3.1247 -0.1455
19356TIP3    H279560   5.149   3.960   5.370  1.2524 -1.8072  1.2642
19357TIP3   OH279561   1.061   6.208   3.125 -0.1331 -0.4859  0.3930
19357TIP3    H179562   1.079   6.114   3.131  0.3654 -0.4481 -0.4162
19357TIP3    H279563   0.966   6.214   3.136 -0.3745 -1.2432 -1.0407
19358TIP3   OH279564   2.070   0.321  10.374  0.3716  0.1285  0.2661
19358TIP3    H179565   2.056   0.401  10.424  1.5018  0.3711  0.2067
19358TIP3    H279566   1.990   0.270  10.387 -0.0721  0.9654  0.8566
19359TIP3   OH279567   1.072   4.710   6.322 -0.2117 -0.0528 -0.2436
19359TIP3    H179568   1.067   4.796   6.282  1.9899  0.1346 -0.1748
19359TIP3    H279569   1.138   4.663   6.271  0.8277 -0.6504  1.5804
19360TIP3   OH279570   3.787   1.968   1.531 -0.4469  0.4165  0.0941
19360TIP3    H179571   3.729   1.991   1.603  0.3702  0.1999  0.8287
19360TIP3    H279572   3.814   2.052   1.494 -1.3864  0.5164 -0.3988
19361TIP3   OH279573   3.939   3.809  10.900  0.3824 -0.3400  0.2218
19361TIP3    H179574   4.016   3.761  10.930  0.8828  0.2640 -0.0958
19361TIP3    H279575   3.974   3.886  10.856 -0.4247  0.4022  0.8639
19362TIP3   OH279576   2.124   4.029   2.180 -0.2466 -0.3079  0.2509
19362TIP3    H179577   2.204   4.017   2.130  0.7203  0.3180  1.6119
19362TIP3    H279578   2.114   4.124   2.187 -0.0898 -0.3785  1.6342
19363TIP3   OH279579   1.970   1.311   3.742  0.8049  0.3479  0.0001
19363TIP3    H179580   1.973   1.328   3.836 -1.6862  1.6538 -0.1007
19363TIP3    H279581   1.944   1.219   3.735 -1.0001  0.7919  0.6200
19364TIP3   OH279582   5.635   0.191   4.170  0.1192  0.6543  0.6002
19364TIP3    H179583   5.593   0.141   4.240  1.3902 -2.4391 -0.7520
19364TIP3    H279584   5.725   0.159   4.168  0.3677  1.3939 -1.7956
19365TIP3   OH279585   3.063   2.439  14.786 -0.2654 -0.0091  0.1502
19365TIP3    H179586   3.112   2.521  14.792 -0.7534  0.1746  1.7975
19365TIP3    H279587   2.974   2.462  14.810 -0.4336 -0.9907  0.5010
19366TIP3   OH279588   4.593   3.528   0.166  0.3713 -0.1337  0.1393
19366TIP3    H179589   4.507   3.511   0.127  0.0552  1.7206 -0.0016
19366TIP3    H279590   4.577   3.599   0.228  1.7085 -0.1380  0.4882
19367TIP3   OH279591   1.008   4.620  11.564 -0.0209  0.5082  0.3864
19367TIP3    H179592   0.936   4.612  11.627  0.2641  0.9330  0.7649
19367TIP3    H279593   1.060   4.540  11.578  0.3245  0.8415  1.0487
19368TIP3   OH279594   6.012   1.447   3.661  0.4238 -0.3017  0.5343
19368TIP3    H179595   6.025   1.367   3.609 -1.1041  0.1298 -0.5580
19368TIP3    H279596   6.092   1.498   3.648 -0.1438  0.0404 -1.8770
19369TIP3   OH279597   5.992   0.273   0.201 -0.4814  0.7412 -0.4538
19369TIP3    H179598   6.049   0.314   0.136 -0.0592 -0.9547 -1.1722
19369TIP3    H279599   6.050   0.216   0.251 -0.8675  1.7698  1.2154
19370TIP3   OH279600   4.499   2.974   1.048 -0.1997 -0.0176  0.4875
19370TIP3    H179601   4.555   3.026   0.990 -1.0864  0.0128 -0.3625
19370TIP3    H279602   4.558   2.943   1.117  1.0450 -0.7215 -0.8617
19371TIP3   OH279603   4.454   6.328  14.481  0.7145  0.0271  0.1266
19371TIP3    H179604   4.454   6.242  14.523  1.4927  0.2731  0.6515
19371TIP3    H279605   4.460   6.309  14.387 -1.8367 -0.5358  0.0603
19372TIP3   OH279606   4.288   0.752   0.832 -0.0579 -0.1307  0.0192
19372TIP3    H179607   4.326   0.722   0.749  0.0010  1.7142 -0.6504
19372TIP3    H279608   4.353   0.812   0.868  0.1486 -1.3123  1.6980
19373TIP3   OH279609   4.762   1.332   2.428  0.5429  0.2229  0.3422
19373TIP3    H179610   4.815   1.394   2.479 -1.9626  0.0630  3.2476
19373TIP3    H279611   4.683   1.381   2.405  0.7112 -0.3839 -1.6589
19374TIP3   OH279612   0.445   2.835   5.793 -0.1492  0.0330 -0.0630
19374TIP3    H179613   0.381   2.772   5.827 -0.1310  0.9793  1.7769
19374TIP3    H279614   0.501   2.783   5.735 -1.7893 -1.0699 -0.7149
19375TIP3   OH279615   0.532   6.794   1.117  0.7077  0.1330  0.5165
19375TIP3    H179616   0.448   6.810   1.074  1.3315  1.9568 -0.0359
19375TIP3    H279617   0.580   6.738   1.055  0.0780 -0.5593  0.6442
19376TIP3   OH279618   4.601   6.107   3.587  0.1120 -0.2135 -0.2645
19376TIP3    H179619   4.600   6.198   3.557  0.3598  0.3610  1.3867
19376TIP3    H279620   4.681   6.100   3.639 -0.1397 -1.2348 -0.0037
19377TIP3   OH279621   4.064   0.877  16.675 -0.2346 -0.7099  0.5929
19377TIP3    H179622   4.119   0.799  16.673  0.9455  0.1380 -0.0237
19377TIP3    H279623   3.980   0.848  16.639  0.2069 -1.6858  0.3405
19378TIP3   OH279624   3.389   5.879   3.805  0.7356  0.4431  0.6961
19378TIP3    H179625   3.444   5.943   3.849  1.2715  1.3478 -1.2111
19378TIP3    H279626   3.306   5.880   3.853 -0.2363  4.5321 -0.8151
19379TIP3   OH279627   5.964   6.705  16.779 -0.4514  0.1368 -0.3221
19379TIP3    H179628   5.892   6.680  16.836 -0.0361  1.0221  0.6264
19379TIP3    H279629   5.984   6.627  16.728 -1.2018 -0.4951  0.3516
19380TIP3   OH279630   4.600   3.152   2.994 -0.1658  0.2486  0.3576
19380TIP3    H179631   4.629   3.172   3.083 -0.3012  1.8068  0.0641
19380TIP3    H279632   4.590   3.057   2.993 -0.7078  0.2561  2.1787
19381TIP3   OH279633   4.372   1.602   2.865 -0.0283  0.5609 -0.1323
19381TIP3    H179634   4.285   1.565   2.883  0.2083  0.3518  0.5724
19381TIP3    H279635   4.424   1.579   2.941  0.3505  1.6534 -0.0603
19382TIP3   OH279636   1.028   2.692   4.169 -0.3677 -0.4320  0.1476
19382TIP3    H179637   1.085   2.766   4.188  0.5700 -1.3340  0.9265
19382TIP3    H279638   1.006   2.701   4.077  5.3208 -2.9289 -1.6741
19383TIP3   OH279639   4.853   1.230   2.126  0.2203  0.2283  0.3173
19383TIP3    H179640   4.793   1.156   2.112  1.6492 -1.3276  2.1012
19383TIP3    H279641   4.855   1.242   2.221  1.3354  1.4480  0.1583
19384TIP3   OH279642   4.209   5.417   6.116  0.0971  0.2278  0.0381
19384TIP3    H179643   4.173   5.424   6.205  0.6225  2.1523  0.1185
19384TIP3    H279644   4.286   5.361   6.126 -0.6424 -0.7146  0.5482
19385TIP3   OH279645   1.254   2.208  13.560 -0.5807 -0.1320 -0.2765
19385TIP3    H179646   1.237   2.167  13.645 -2.2160  0.2682 -0.3995
19385TIP3    H279647   1.199   2.161  13.498 -1.8289  1.6697 -0.5588
19386TIP3   OH279648   1.342   4.985   2.647 -0.0824 -0.7530 -0.2640
19386TIP3    H179649   1.276   4.942   2.703  0.7021 -0.8076  0.6402
19386TIP3    H279650   1.424   4.975   2.696  0.2008  1.3256 -0.2954
19387TIP3   OH279651   3.696   0.155   1.236  0.2884 -0.3436 -1.1491
19387TIP3    H179652   3.680   0.241   1.195  1.7301  0.4294 -0.1437
19387TIP3    H279653   3.662   0.165   1.325  0.7164 -0.7306 -0.9458
19388TIP3   OH279654   0.726   0.088   1.276  0.4323  0.2850  1.1046
19388TIP3    H179655   0.658   0.072   1.211  1.7682 -0.8307 -0.0748
19388TIP3    H279656   0.695   0.163   1.327 -0.8266  0.9336 -0.5864
19389TIP3   OH279657   1.528   1.134   2.443  0.0686 -0.1344  0.3238
19389TIP3    H179658   1.471   1.057   2.446 -0.0807 -0.0046  0.9795
19389TIP3    H279659   1.499   1.188   2.517 -1.7014  1.9087 -1.7707
19390TIP3   OH279660   1.443   4.950   0.094  0.2005 -0.5638 -0.1769
19390TIP3    H179661   1.438   5.018   0.161 -0.5697 -0.4688 -0.3258
19390TIP3    H279662   1.501   4.987   0.027  0.5735 -0.4596  0.1955
19391TIP3   OH279663   6.634   1.317  12.254 -0.1828 -0.3698 -0.1630
19391TIP3    H179664   6.596   1.285  12.336  0.2562  1.5463  0.8275
19391TIP3    H279665   6.565   1.305  12.189 -1.3179  0.0492  0.9389
19392TIP3   OH279666   1.005   5.377  12.902  0.6402  0.1289  0.1222
19392TIP3    H179667   0.964   5.457  12.933  1.3733  0.9565 -1.0224
19392TIP3    H279668   1.063   5.350  12.973  0.6344  0.7879  0.3736
19393TIP3   OH279669   6.354   2.520   5.876 -0.7684 -0.3273 -0.4140
19393TIP3    H179670   6.382   2.591   5.818 -0.0980 -0.2940 -0.0464
19393TIP3    H279671   6.423   2.454   5.868  0.3242  0.5101  1.8407
19394TIP3   OH279672   4.846   6.288   2.724  0.2038  0.7666  0.4962
19394TIP3    H179673   4.812   6.233   2.653  0.6855  0.2864  0.6341
19394TIP3    H279674   4.769   6.332   2.760 -0.2805 -0.3543  0.8418
19395TIP3   OH279675   1.982   2.504   0.843 -0.3038 -0.8124 -0.2072
19395TIP3    H179676   1.942   2.431   0.795 -1.6210 -0.7925  0.8210
19395TIP3    H279677   1.930   2.511   0.923  0.1297  0.9187 -0.0513
19396TIP3   OH279678   5.150   0.029   1.651 -0.3011 -0.2487  0.0068
19396TIP3    H179679   5.062   0.045   1.618 -0.3393 -1.5616 -0.5463
19396TIP3    H279680   5.180  -0.049   1.605  1.2297  0.2791  0.0500
19397TIP3   OH279681   6.306   0.673   5.449  0.3149  0.3379 -0.4279
19397TIP3    H179682   6.296   0.579   5.460  2.2175 -0.0117 -1.4207
19397TIP3    H279683   6.342   0.703   5.532  1.1955 -0.0585 -0.6648
19398TIP3   OH279684   4.122   0.532  15.307  0.8863  0.0405 -0.6911
19398TIP3    H179685   4.147   0.504  15.395  0.3881 -0.1578 -0.6107
19398TIP3    H279686   4.186   0.599  15.284  1.2541 -0.1845 -0.3333
19399TIP3   OH279687   6.036   2.678   0.046  0.5447  0.1027  0.3315
19399TIP3    H179688   6.066   2.638   0.127  0.2650  1.1778  0.9697
19399TIP3    H279689   5.961   2.732   0.071  2.3045  2.8554 -0.0933
19400TIP3   OH279690   4.113   4.822  12.231 -0.4537 -0.1747 -0.2060
19400TIP3    H179691   4.096   4.888  12.164 -1.1096  0.2143  0.3406
19400TIP3    H279692   4.203   4.838  12.259 -0.2715 -0.1686 -0.8053
19401TIP3   OH279693   3.985   5.070  14.438 -0.4642 -0.0764  0.1833
19401TIP3    H179694   3.949   5.158  14.443 -0.2829 -0.0464  0.9912
19401TIP3    H279695   3.971   5.033  14.525  0.0100 -0.6349  0.0255
19402TIP3   OH279696   4.396   5.807   1.663 -0.7822  0.1098  0.0959
19402TIP3    H179697   4.353   5.851   1.590 -0.6695  1.1140  0.6179
19402TIP3    H279698   4.327   5.796   1.729 -0.7145 -0.1130  0.1286
19403TIP3   OH279699   3.241   1.925   4.953 -0.0891 -0.1272  0.2333
19403TIP3    H179700   3.302   1.914   5.026  1.0179  0.5691 -0.5822
19403TIP3    H279701   3.189   2.002   4.977  2.2901  1.9503 -1.0801
19404TIP3   OH279702   0.608   2.224  14.690 -0.4603  0.5899  0.2837
19404TIP3    H179703   0.694   2.256  14.664 -0.9325 -0.3729 -2.5524
19404TIP3    H279704   0.627   2.163  14.762  0.9194  2.6560  1.7457
19405TIP3   OH279705   3.726   2.370  15.336 -0.0480 -0.3595  0.5203
19405TIP3    H179706   3.660   2.439  15.339 -1.5622 -1.8021  1.7560
19405TIP3    H279707   3.772   2.377  15.419 -0.4435 -1.0387  0.8045
19406TIP3   OH279708   2.668   3.790   5.632  0.3703 -0.5600 -0.2743
19406TIP3    H179709   2.684   3.881   5.610  1.6338 -0.8764 -0.7211
19406TIP3    H279710   2.714   3.776   5.715 -1.8123 -0.1843  1.0485
19407TIP3   OH279711   5.743   0.190  15.560  0.1105  0.2496 -0.4656
19407TIP3    H179712   5.713   0.206  15.649  1.5369  2.2882 -0.3254
19407TIP3    H279713   5.812   0.124  15.569 -0.2383 -0.0747 -0.1483
19408TIP3   OH279714   6.008   5.081  12.347  0.2633 -0.5323  0.2882
19408TIP3    H179715   5.952   5.015  12.307  1.1148 -1.2337  0.2405
19408TIP3    H279716   6.038   5.135  12.274 -2.1278  1.2495  0.5523
19409TIP3   OH279717   4.074   0.328  11.043 -0.1095  0.4318 -0.3978
19409TIP3    H179718   4.055   0.253  10.987 -1.4889  0.1445  0.4291
19409TIP3    H279719   4.153   0.368  11.005 -0.9845  0.2088 -2.4768
19410TIP3   OH279720   3.981   1.811  11.227  0.4622  0.3112 -0.0311
19410TIP3    H179721   4.063   1.839  11.268 -0.1809  0.6213  1.0683
19410TIP3    H279722   3.990   1.838  11.135  1.9478 -0.4616 -0.1323
19411TIP3   OH279723   1.692   0.276   1.118 -0.2821  0.0299  0.3237
19411TIP3    H179724   1.633   0.269   1.193  0.5937  1.3264  1.1429
19411TIP3    H279725   1.779   0.263   1.155  0.1573  0.6532 -0.4857
19412TIP3   OH279726   4.964   6.712  16.549  0.0497  0.0997 -0.1671
19412TIP3    H179727   4.893   6.665  16.593 -1.0418  2.4033  0.5785
19412TIP3    H279728   5.018   6.746  16.620  1.2922 -0.6716 -0.7220
19413TIP3   OH279729   6.621   1.563  11.673  0.1056 -0.4553 -0.0470
19413TIP3    H179730   6.578   1.605  11.599  2.4856  0.6783 -0.8346
19413TIP3    H279731   6.663   1.485  11.635  0.8560 -0.1752  0.1994
19414TIP3   OH279732   0.849   5.569  14.037  0.1713  0.2026  0.0484
19414TIP3    H179733   0.857   5.611  13.952 -2.6969  0.1578 -0.3159
19414TIP3    H279734   0.894   5.627  14.098  1.4613  0.6932 -1.3519
19415TIP3   OH279735   3.942   3.672  14.066  0.2379  0.0146  0.2901
19415TIP3    H179736   3.892   3.601  14.107  2.7405 -2.8931 -1.4277
19415TIP3    H279737   3.907   3.676  13.977  1.2651 -0.2362 -0.1252
19416TIP3   OH279738   6.759   6.522  13.357 -0.5647  0.5404  0.1097
19416TIP3    H179739   6.808   6.446  13.390  0.7606  0.7885 -1.2149
19416TIP3    H279740   6.820   6.595  13.367 -0.9521  0.9978 -0.8486
19417TIP3   OH279741   1.366   5.932  11.453 -0.3593 -0.3725 -0.2153
19417TIP3    H179742   1.417   5.983  11.516  0.7513 -1.3831 -0.2699
19417TIP3    H279743   1.287   5.984  11.438  1.2623  1.9295 -1.1777
19418TIP3   OH279744   4.678   4.884  12.558  0.0077  0.0557 -0.0473
19418TIP3    H179745   4.643   4.879  12.647  2.6050 -1.4170  0.9694
19418TIP3    H279746   4.639   4.809  12.513  0.3304 -0.4512  0.4994
19419TIP3   OH279747   0.138   1.879   4.218 -0.4667  0.2278 -0.1348
19419TIP3    H179748   0.087   1.881   4.299 -0.6649 -1.4009 -0.1870
19419TIP3    H279749   0.093   1.939   4.159 -0.0404  1.7933  1.1232
19420TIP3   OH279750   1.016   3.821  10.912  0.2707  0.0711 -0.2485
19420TIP3    H179751   1.001   3.735  10.951  0.3611 -0.2077 -0.8177
19420TIP3    H279752   1.109   3.823  10.891  0.1667  0.1082 -0.7112
19421TIP3   OH279753   2.298   0.523   5.343 -0.1474  0.2129  0.1278
19421TIP3    H179754   2.358   0.489   5.276 -0.9075 -1.2496  0.1697
19421TIP3    H279755   2.212   0.491   5.317 -0.6286  0.6789  1.1199
19422TIP3   OH279756   2.470   1.802  17.002 -0.1200 -0.2419 -0.1800
19422TIP3    H179757   2.538   1.749  16.961 -0.7170  0.5605 -2.2623
19422TIP3    H279758   2.390   1.749  16.995 -0.0620 -0.4609  0.7333
19423TIP3   OH279759   6.105   5.160   4.504 -0.0320  0.2361  0.2857
19423TIP3    H179760   6.025   5.193   4.546  0.6376  0.4587  1.4159
19423TIP3    H279761   6.169   5.230   4.518 -0.3361  1.2535 -2.9624
19424TIP3   OH279762   3.191   3.407   3.338 -0.2076  0.2112  0.0306
19424TIP3    H179763   3.254   3.390   3.268 -0.1098  1.4964 -0.2056
19424TIP3    H279764   3.233   3.374   3.417  0.2220 -0.0942 -0.3266
19425TIP3   OH279765   0.582   6.294   1.632 -0.1825 -0.4558  0.1563
19425TIP3    H179766   0.522   6.324   1.565  0.8954 -1.0345 -1.1057
19425TIP3    H279767   0.585   6.364   1.696  0.7444  1.2690 -1.7079
19426TIP3   OH279768   1.666   2.378   4.078 -0.4610 -0.9771  0.2909
19426TIP3    H179769   1.745   2.329   4.057  1.1693  2.1088 -1.2642
19426TIP3    H279770   1.664   2.448   4.012 -2.5128  1.1470  2.5259
19427TIP3   OH279771   2.514   0.424  11.432  0.0034  0.5033 -0.1020
19427TIP3    H179772   2.428   0.381  11.427 -0.8154  2.0662  0.1670
19427TIP3    H279773   2.565   0.382  11.363 -1.2193  0.0539 -0.7633
19428TIP3   OH279774   1.442   3.932  16.391  0.7482 -0.2611  0.1523
19428TIP3    H179775   1.401   3.847  16.371 -1.4032  0.5270  1.0730
19428TIP3    H279776   1.498   3.914  16.466  0.2879 -0.8782  0.3537
19429TIP3   OH279777   0.597   5.876   3.275  0.2830  0.1190  0.2597
19429TIP3    H179778   0.546   5.957   3.285  0.5255  0.4451 -1.0554
19429TIP3    H279779   0.569   5.821   3.348 -0.0688  1.2968  1.0273
19430TIP3   OH279780   5.102   5.877  10.827 -0.2753  0.0049 -0.1467
19430TIP3    H179781   5.095   5.923  10.910 -0.0005  1.2710 -0.8199
19430TIP3    H279782   5.018   5.833  10.817 -0.6997  0.7097  0.3035
19431TIP3   OH279783   2.774   3.485   5.270  0.2242 -0.1579  0.3359
19431TIP3    H179784   2.810   3.566   5.306 -1.5299  0.5632  0.5051
19431TIP3    H279785   2.682   3.487   5.294 -0.4833 -0.7770 -2.2369
19432TIP3   OH279786   3.579   5.096  16.568 -0.5208  0.5344  0.5446
19432TIP3    H179787   3.581   5.189  16.588  0.1864  0.9839 -1.5296
19432TIP3    H279788   3.534   5.090  16.483 -0.1789 -0.9642  0.4475
19433TIP3   OH279789   6.095   4.424   0.112 -0.1556  0.1907 -0.2176
19433TIP3    H179790   6.165   4.488   0.102  0.2691 -0.4107 -1.1686
19433TIP3    H279791   6.027   4.453   0.052 -0.7537  0.8023  0.7422
19434TIP3   OH279792   3.403   4.726  11.665  0.5679 -0.6444 -0.0020
19434TIP3    H179793   3.327   4.771  11.701  1.1779 -0.5341  1.1646
19434TIP3    H279794   3.370   4.681  11.587 -0.3271  0.7257 -0.4299
19435TIP3   OH279795   0.277   1.398  16.405 -0.1232 -0.6141 -0.0987
19435TIP3    H179796   0.302   1.310  16.375  0.1391 -0.5830  0.0245
19435TIP3    H279797   0.190   1.413  16.368  0.0051 -0.7629 -0.4618
19436TIP3   OH279798   2.913   3.318  14.363  0.2951  0.0938 -0.5113
19436TIP3    H179799   2.824   3.296  14.337 -0.1315  0.5026  0.5632
19436TIP3    H279800   2.938   3.249  14.425  0.9162 -0.3041 -1.1910
19437TIP3   OH279801   4.394   3.402  13.009 -0.2984 -0.4661 -0.2518
19437TIP3    H179802   4.404   3.446  13.093 -1.0379  0.3777 -0.6047
19437TIP3    H279803   4.426   3.313  13.026  1.0567  0.1349  0.4916
19438TIP3   OH279804   1.546   6.498   4.070  0.5240  0.4816  0.0875
19438TIP3    H179805   1.609   6.534   4.132  0.1709  0.7353  0.2949
19438TIP3    H279806   1.486   6.570   4.052 -0.3843 -0.1003  0.7628
19439TIP3   OH279807   4.787   1.799  16.397  0.1759  0.7412  0.5689
19439TIP3    H179808   4.774   1.871  16.459 -1.2971 -1.0321  2.3925
19439TIP3    H279809   4.821   1.727  16.451 -0.8834 -0.7536 -0.7298
19440TIP3   OH279810   6.268   3.239   5.492  0.3681  0.1279  0.3709
19440TIP3    H179811   6.209   3.256   5.565 -0.6779  0.5672 -0.5658
19440TIP3    H279812   6.295   3.326   5.462  1.6132 -0.0696  0.8806
19441TIP3   OH279813   2.704   6.120   1.919  0.0323 -0.0025 -0.1151
19441TIP3    H179814   2.779   6.142   1.973  0.7727 -0.7888 -0.8094
19441TIP3    H279815   2.741   6.092   1.836 -1.0912  1.4251 -1.1468
19442TIP3   OH279816   0.092   0.905  12.996 -0.2516 -0.0205 -0.2311
19442TIP3    H179817   0.009   0.893  13.042 -0.8613 -0.3301 -1.3725
19442TIP3    H279818   0.140   0.970  13.048 -2.5079  2.5235 -1.2145
19443TIP3   OH279819   2.443   4.681  15.032 -0.4486 -0.4472  0.0192
19443TIP3    H179820   2.446   4.776  15.016  1.0535 -0.7885 -1.8652
19443TIP3    H279821   2.534   4.655  15.035 -0.8753 -1.9603 -0.1054
19444TIP3   OH279822   0.200   1.517   2.424  0.3504 -0.5288 -0.4482
19444TIP3    H179823   0.271   1.481   2.372  1.5792  0.5822  0.4136
19444TIP3    H279824   0.221   1.493   2.514 -0.1316  0.1611 -0.1391
19445TIP3   OH279825   4.360   3.545  10.662  0.3667  0.0149 -0.2802
19445TIP3    H179826   4.386   3.623  10.710  0.5868  1.4987 -2.7179
19445TIP3    H279827   4.435   3.525  10.606 -0.8013 -0.2244 -1.7812
19446TIP3   OH279828   0.659   2.694  13.502 -0.1486 -0.3829  0.2635
19446TIP3    H179829   0.650   2.721  13.411  1.5038 -1.7847 -0.3411
19446TIP3    H279830   0.573   2.656  13.525 -1.1708  1.6638 -0.1001
19447TIP3   OH279831   5.502   0.615   2.448 -0.1861 -0.2390 -0.4295
19447TIP3    H179832   5.529   0.612   2.539  0.4769  1.2191 -0.5639
19447TIP3    H279833   5.581   0.638   2.399 -0.2740 -2.1052 -1.5040
19448TIP3   OH279834   6.499   3.200   4.860  0.0045  0.1000 -0.1147
19448TIP3    H179835   6.551   3.224   4.936 -0.9233  1.1963  0.1847
19448TIP3    H279836   6.436   3.271   4.850 -1.9488 -1.5703 -0.0178
19449TIP3   OH279837   6.206   5.965   5.176 -0.2321 -0.0842 -0.4684
19449TIP3    H179838   6.293   5.947   5.139  0.5544  1.1232  0.7286
19449TIP3    H279839   6.156   5.885   5.160  1.4154 -1.1639 -0.2971
19450TIP3   OH279840   1.126   3.613  15.717 -0.6803 -0.1329  0.5679
19450TIP3    H179841   1.147   3.633  15.808 -1.3392  2.4605  0.1887
19450TIP3    H279842   1.035   3.584  15.719 -0.5712 -0.4611  0.7822
19451TIP3   OH279843   3.414   5.623   3.253  0.4952  0.4401  0.2874
19451TIP3    H179844   3.424   5.653   3.343 -1.0139 -0.4648  0.7623
19451TIP3    H279845   3.469   5.544   3.248 -1.9648 -1.4035  1.3675
19452TIP3   OH279846   6.203   6.442   6.048  0.7793  0.2721  0.0605
19452TIP3    H179847   6.259   6.492   6.107 -1.6350  2.8874  0.2314
19452TIP3    H279848   6.179   6.364   6.098 -0.0970  1.7714  2.0591
19453TIP3   OH279849   6.533   6.420  14.785 -0.5994 -0.4863  0.9548
19453TIP3    H179850   6.611   6.460  14.825 -1.5181  1.3026  1.0325
19453TIP3    H279851   6.546   6.433  14.691 -0.0768 -1.5759  0.8746
19454TIP3   OH279852   0.126   3.665  12.306  0.7559 -0.1674  0.2879
19454TIP3    H179853   0.145   3.684  12.214  2.2826 -0.7983  0.4467
19454TIP3    H279854   0.052   3.604  12.303  0.8328 -0.2328 -0.5226
19455TIP3   OH279855   2.154   0.109  13.883 -0.4303  0.8061 -0.5579
19455TIP3    H179856   2.104   0.090  13.962 -0.9220  0.7946 -0.8668
19455TIP3    H279857   2.223   0.169  13.911 -0.1262  0.1786  0.0275
19456TIP3   OH279858   2.362   1.437   0.223 -0.3456 -0.4191 -0.3766
19456TIP3    H179859   2.337   1.506   0.161 -0.1460  0.5754  0.6464
19456TIP3    H279860   2.282   1.387   0.236 -0.6206 -0.0730 -0.7167
19457TIP3   OH279861   0.680   6.094  14.287 -0.7230 -0.0520  0.0937
19457TIP3    H179862   0.745   6.088  14.216 -0.1440 -1.1802  0.6977
19457TIP3    H279863   0.683   6.008  14.329 -0.1126  1.0192  2.3155
19458TIP3   OH279864   2.402   5.808   3.670  0.5629  0.4590 -0.2991
19458TIP3    H179865   2.436   5.724   3.641  0.0941 -0.3886  1.5190
19458TIP3    H279866   2.325   5.824   3.616  1.4944  0.4245 -1.6454
19459TIP3   OH279867   2.817   2.198   1.255  0.8710 -0.5208 -0.2204
19459TIP3    H179868   2.779   2.125   1.205 -0.0640 -1.3485  1.6536
19459TIP3    H279869   2.746   2.227   1.312  1.2326  1.8803 -0.9181
19460TIP3   OH279870   4.344   2.499  12.201  0.1625 -0.1280 -0.3165
19460TIP3    H179871   4.378   2.410  12.209  1.1658  0.2902  0.2578
19460TIP3    H279872   4.418   2.550  12.168  0.4166  0.9968  1.9117
19461TIP3   OH279873   4.855   3.321  12.754 -0.4355  0.2890  0.1393
19461TIP3    H179874   4.831   3.235  12.718  0.8133 -0.4041  0.9491
19461TIP3    H279875   4.906   3.301  12.832 -1.3618  1.7837  1.1544
19462TIP3   OH279876   5.293   2.184   4.336 -0.1935 -0.4700 -0.3387
19462TIP3    H179877   5.243   2.150   4.261  0.8844 -0.1837 -1.1914
19462TIP3    H279878   5.320   2.106   4.384 -2.1319 -0.6140  0.5962
19463TIP3   OH279879   6.752   3.347  12.938 -0.2623 -0.0276 -0.7602
19463TIP3    H179880   6.817   3.276  12.939 -0.5103 -0.2529  0.5574
19463TIP3    H279881   6.669   3.303  12.955 -0.6048  0.4165 -1.2728
19464TIP3   OH279882   1.472   3.303  14.644 -0.2549  0.1675  0.2453
19464TIP3    H179883   1.485   3.212  14.672 -1.8254  0.1008  0.8269
19464TIP3    H279884   1.457   3.351  14.725 -2.8990  0.3145 -0.2622
19465TIP3   OH279885   2.524   5.576  12.077 -0.2846  0.0728 -0.4894
19465TIP3    H179886   2.540   5.670  12.077 -0.2380  0.1450  3.3197
19465TIP3    H279887   2.430   5.567  12.089  0.0312 -0.2908  2.1066
19466TIP3   OH279888   2.178   0.737   6.260  0.2389 -0.1592  0.4161
19466TIP3    H179889   2.257   0.777   6.225  1.5031 -0.7958  2.4507
19466TIP3    H279890   2.134   0.808   6.306  0.0148  0.0079 -0.0500
19467TIP3   OH279891   5.912   3.985  12.775 -0.1521 -0.4116 -0.2083
19467TIP3    H179892   5.830   4.033  12.790  0.4190  0.1691  1.1774
19467TIP3    H279893   5.976   4.053  12.753 -0.1476 -0.9152 -1.7651
19468TIP3   OH279894   6.789   6.671  14.780 -0.5771 -0.0143 -0.1323
19468TIP3    H179895   6.849   6.618  14.728 -0.6334  1.8181 -2.1446
19468TIP3    H279896   6.803   6.642  14.870  2.1909 -0.6807 -0.7406
19469TIP3   OH279897   0.556   2.500  12.520  0.2883 -0.2479 -0.0064
19469TIP3    H179898   0.531   2.448  12.444  1.7469  0.6103 -1.0946
19469TIP3    H279899   0.479   2.555  12.536  0.0211 -0.3148 -0.9790
19470TIP3   OH279900   3.849   2.082   5.535  0.1712  0.4515  0.2532
19470TIP3    H179901   3.901   2.042   5.465 -0.0266 -0.2440  0.4919
19470TIP3    H279902   3.897   2.160   5.560  1.1728 -0.2569  0.5566
19471TIP3   OH279903   1.208   2.534  16.043 -0.6148  0.0240 -0.1433
19471TIP3    H179904   1.277   2.529  15.976 -0.0878 -0.9998  0.4686
19471TIP3    H279905   1.217   2.622  16.080 -0.0280  0.1131 -0.4884
19472TIP3   OH279906   4.255   5.924  14.042 -0.5671 -0.1374 -0.3866
19472TIP3    H179907   4.348   5.902  14.050 -0.3708  0.5329 -0.8035
19472TIP3    H279908   4.214   5.842  14.013 -0.4407 -1.0276  1.8282
19473TIP3   OH279909   3.612   3.293   1.299 -0.1161  0.7549  0.3029
19473TIP3    H179910   3.669   3.242   1.357 -1.0585 -1.8164 -0.9532
19473TIP3    H279911   3.526   3.290   1.341  0.4017  4.0073  1.8063
19474TIP3   OH279912   3.989   3.512   3.499 -0.4531 -0.5447 -0.1409
19474TIP3    H179913   3.942   3.429   3.513 -0.2549 -0.7813 -0.8695
19474TIP3    H279914   3.989   3.524   3.404 -0.4430  0.2745 -0.0444
19475TIP3   OH279915   5.365   0.554  14.943  0.4701  0.1674  0.3580
19475TIP3    H179916   5.318   0.626  14.986  0.6866  0.5687 -0.0767
19475TIP3    H279917   5.457   0.572  14.960  0.5538  0.2830 -0.1946
19476TIP3   OH279918   2.068   6.390  15.810  0.0633  0.0101  0.3871
19476TIP3    H179919   2.135   6.334  15.849  0.7665 -0.1663 -1.0682
19476TIP3    H279920   2.114   6.470  15.785 -0.1112 -0.4191 -1.3320
19477TIP3   OH279921   6.275   4.014  13.339  0.3282 -0.1292  0.1293
19477TIP3    H179922   6.193   3.970  13.314  0.9554 -0.8279 -0.7211
19477TIP3    H279923   6.321   3.951  13.393  0.8348 -0.1773 -0.3598
19478TIP3   OH279924   1.172   3.211  12.217  0.0215 -0.1965  0.4042
19478TIP3    H179925   1.174   3.290  12.163  1.2522 -1.6593 -1.7159
19478TIP3    H279926   1.092   3.166  12.191 -0.2970 -0.0541  1.0992
19479TIP3   OH279927   0.201   0.945  12.713 -0.1628 -0.0180  0.5480
19479TIP3    H179928   0.161   0.982  12.634  0.8925 -0.5673 -0.2651
19479TIP3    H279929   0.135   0.956  12.781 -0.9529  0.7988 -0.3278
19480TIP3   OH279930   1.598   6.642  14.747 -0.6573  0.0896  0.6245
19480TIP3    H179931   1.647   6.682  14.675  2.5276  0.7631  3.0257
19480TIP3    H279932   1.535   6.709  14.774 -0.5879  0.5388 -0.3173
19481TIP3   OH279933   0.429   4.383   1.442  0.0131  0.1203 -0.3142
19481TIP3    H179934   0.493   4.316   1.418  0.7005  0.4530  0.5231
19481TIP3    H279935   0.364   4.382   1.372  0.7834 -0.4372 -1.0247
19482TIP3   OH279936   1.957   2.534   6.598 -0.4129  0.4104  0.9020
19482TIP3    H179937   2.002   2.618   6.607  0.7292 -0.2572  1.4608
19482TIP3    H279938   1.930   2.530   6.507 -0.2584  1.2842  0.8203
19483TIP3   OH279939   1.145   6.256   2.498 -0.1842  0.7494 -0.0967
19483TIP3    H179940   1.179   6.213   2.576  1.6669  2.6482  0.2041
19483TIP3    H279941   1.113   6.185   2.442  1.1539 -0.8480  1.1265
19484TIP3   OH279942   2.944   6.339  12.735 -0.3602  0.1286  0.0280
19484TIP3    H179943   3.012   6.363  12.672 -1.7419 -0.9591 -1.9510
19484TIP3    H279944   2.914   6.422  12.771  0.7041  0.7415 -0.4750
19485TIP3   OH279945   6.713   2.415  14.265 -0.3097 -0.2700 -0.1775
19485TIP3    H179946   6.663   2.469  14.327 -1.0690 -0.4884 -0.5981
19485TIP3    H279947   6.742   2.340  14.318  1.3331  0.8751  0.5787
19486TIP3   OH279948   2.890   3.559   5.654  0.1383  0.1594  0.1204
19486TIP3    H179949   2.964   3.566   5.713 -0.0137 -1.1588  0.4767
19486TIP3    H279950   2.922   3.505   5.581 -0.2945  0.0696 -0.0073
19487TIP3   OH279951   4.847   0.313   3.087 -0.0156  0.0752 -0.2333
19487TIP3    H179952   4.778   0.337   3.024 -1.2127  0.3820  1.1543
19487TIP3    H279953   4.804   0.253   3.148  1.7622 -2.0623 -1.0379
19488TIP3   OH279954   5.801   5.772  14.394  0.2397 -0.7660 -0.9565
19488TIP3    H179955   5.750   5.691  14.393  0.3096 -0.8063 -2.6542
19488TIP3    H279956   5.886   5.747  14.359  0.1628  0.1023 -1.7889
19489TIP3   OH279957   5.503   2.295   5.881 -0.2426  0.6424 -0.2692
19489TIP3    H179958   5.464   2.308   5.968  1.3964  0.3303  0.5269
19489TIP3    H279959   5.545   2.379   5.861  1.3146  0.0128  0.2530
19490TIP3   OH279960   5.228   1.374  14.254 -0.7803  1.1989 -0.1950
19490TIP3    H179961   5.189   1.380  14.166 -0.0132  0.4014 -0.5930
19490TIP3    H279962   5.157   1.340  14.309 -0.2087 -1.9303 -1.2656
19491TIP3   OH279963   4.533   3.580   1.181 -0.3690 -0.0441 -0.4228
19491TIP3    H179964   4.476   3.526   1.236 -0.3935  0.7155  0.2980
19491TIP3    H279965   4.480   3.657   1.161  1.1915  1.7551  2.1482
19492TIP3   OH279966   4.896   0.368   4.213 -0.1636 -0.2277 -0.3472
19492TIP3    H179967   4.976   0.384   4.261 -1.3681  1.1940  1.2319
19492TIP3    H279968   4.862   0.455   4.191 -2.7520 -0.6637  1.5765
19493TIP3   OH279969   2.922   3.966  14.368  0.1667  0.2440  0.0658
19493TIP3    H179970   2.982   4.010  14.307  0.6970  0.7783  0.9543
19493TIP3    H279971   2.881   3.897  14.316  3.9232 -2.2748  0.1808
19494TIP3   OH279972   1.334   2.566   2.479 -0.2614 -0.4694  0.4953
19494TIP3    H179973   1.412   2.522   2.444 -0.9511 -2.6445  1.6459
19494TIP3    H279974   1.353   2.578   2.572 -1.4958 -1.4335  0.8742
19495TIP3   OH279975   1.392   3.534  13.305 -0.0819 -0.0914  0.1006
19495TIP3    H179976   1.429   3.547  13.392 -1.7865  1.0571  0.6751
19495TIP3    H279977   1.307   3.577  13.308 -0.7688 -1.2698 -1.7036
19496TIP3   OH279978   6.351   6.249  11.001  0.2985  0.4085  0.4066
19496TIP3    H179979   6.421   6.234  11.064 -0.4760  0.2805  1.2296
19496TIP3    H279980   6.323   6.339  11.016  0.6257  0.6271 -0.2641
19497TIP3   OH279981   1.823   6.473   6.082 -0.8732  0.3539  0.1684
19497TIP3    H179982   1.805   6.479   6.176  1.8729 -0.1311  0.7670
19497TIP3    H279983   1.862   6.387   6.071 -0.1877  0.8422 -1.2540
19498TIP3   OH279984   6.432   3.857  13.490 -0.0646 -0.6615 -0.0242
19498TIP3    H179985   6.399   3.868  13.579 -0.2760 -0.1392 -0.1665
19498TIP3    H279986   6.522   3.827  13.501 -0.5740 -2.0971  0.3635
19499TIP3   OH279987   0.439   0.066   0.179 -0.1331 -0.3185  0.0910
19499TIP3    H179988   0.384   0.141   0.157 -0.6700 -0.1674  1.8088
19499TIP3    H279989   0.400   0.032   0.260  2.1969 -0.3107  1.2408
19500TIP3   OH279990   5.525   5.821  12.584 -0.1451  0.7335  0.3062
19500TIP3    H179991   5.546   5.744  12.531 -1.5894  0.6697 -0.1885
19500TIP3    H279992   5.596   5.825  12.649 -0.1454 -1.1147  0.4530
19501TIP3   OH279993   5.458   5.542  16.581 -0.2072  0.2021  0.1639
19501TIP3    H179994   5.516   5.535  16.505 -1.7836  0.8449 -1.1459
19501TIP3    H279995   5.479   5.627  16.619  1.0103 -0.3826  0.8174
19502TIP3   OH279996   3.978   1.768   0.666  0.0606 -0.0589 -0.0672
19502TIP3    H179997   4.071   1.750   0.683  0.1312  1.3160  1.1349
19502TIP3    H279998   3.932   1.709   0.724  0.2251  0.4056  0.5491
19503TIP3   OH279999   0.621   5.882  14.546 -0.3483 -0.3311  0.2685
19503TIP3    H180000   0.594   5.830  14.470 -0.4744  1.9041 -1.2464
19503TIP3    H280001   0.541   5.892  14.598 -0.5780 -0.6836 -0.0141
19504TIP3   OH280002   4.273   5.390  13.014  0.3912  0.0466 -0.4458
19504TIP3    H180003   4.187   5.431  13.002  1.2321  1.7465 -0.8936
19504TIP3    H280004   4.309   5.434  13.091  2.2018  1.7836 -2.1987
19505TIP3   OH280005   2.019   5.661   2.194 -0.4212 -0.5132 -0.4205
19505TIP3    H180006   1.978   5.645   2.279 -1.1234 -0.4583 -0.7477
19505TIP3    H280007   2.027   5.574   2.154  2.8881 -0.9634  1.0357
19506TIP3   OH280008   3.203   1.412  14.671 -0.6830 -0.7695 -0.1381
19506TIP3    H180009   3.250   1.376  14.596  0.6893 -0.2394  0.4554
19506TIP3    H280010   3.113   1.420  14.641  0.2787  1.6843 -2.5286
19507TIP3   OH280011   4.862   5.897   0.491  0.9059 -0.9451 -0.0150
19507TIP3    H180012   4.914   5.862   0.563  0.6865 -1.2594 -0.0080
19507TIP3    H280013   4.917   5.885   0.414  1.0193 -0.8862  0.0568
19508TIP3   OH280014   2.576   5.299   1.954 -0.1079 -0.1780  0.1066
19508TIP3    H180015   2.641   5.336   1.895  1.0003 -0.0953  1.3525
19508TIP3    H280016   2.610   5.317   2.042 -1.7465 -0.2545  0.7743
19509TIP3   OH280017   2.697   5.783   3.397  0.4807  0.1410 -0.0691
19509TIP3    H180018   2.656   5.732   3.327  1.3322  2.2470 -2.1801
19509TIP3    H280019   2.736   5.858   3.352  3.3030  0.2193  2.3295
19510TIP3   OH280020   5.201   4.469  13.965  0.8432 -0.2686  0.2251
19510TIP3    H180021   5.160   4.551  13.940 -0.8906 -1.2178 -0.1659
19510TIP3    H280022   5.236   4.433  13.883  1.5521  0.0567  0.3873
19511TIP3   OH280023   0.179   5.993  12.454  0.1262  0.4212  0.0851
19511TIP3    H180024   0.225   6.042  12.387  0.6080  0.3398  0.3561
19511TIP3    H280025   0.223   6.015  12.536  1.2874 -1.5546  0.0362
19512TIP3   OH280026   2.375   0.403   5.624 -0.1042  0.0378 -0.5275
19512TIP3    H180027   2.357   0.381   5.533  2.2716  2.7147 -1.7063
19512TIP3    H280028   2.437   0.336   5.654  0.9451  0.4923 -1.6465
19513TIP3   OH280029   4.297   1.535  17.126 -0.4423  0.2093 -0.1375
19513TIP3    H180030   4.309   1.614  17.179  1.4348  1.2632 -2.0816
19513TIP3    H280031   4.380   1.489  17.131 -0.5620 -0.1651 -1.3858
19514TIP3   OH280032   5.531   4.092  14.632 -0.4744 -0.3707  0.3087
19514TIP3    H180033   5.563   4.066  14.546 -1.0034  0.2372 -0.0846
19514TIP3    H280034   5.554   4.020  14.690  0.9118 -0.2776 -0.1122
19515TIP3   OH280035   5.149   3.729  11.526 -0.5980  0.2301 -0.0597
19515TIP3    H180036   5.114   3.662  11.468  0.9151 -1.9324  1.4335
19515TIP3    H280037   5.099   3.720  11.607 -1.2976  1.8373 -0.2893
19516TIP3   OH280038   1.060   0.904  13.991  0.3067 -0.5477 -0.0462
19516TIP3    H180039   1.010   0.882  14.070  0.6233  2.9220  1.2034
19516TIP3    H280040   1.152   0.899  14.019  0.5751 -2.5950 -1.1611
19517TIP3   OH280041   5.372   4.460   5.188  0.3466  0.1771  0.6978
19517TIP3    H180042   5.295   4.406   5.203  0.3207 -0.3772 -1.3198
19517TIP3    H280043   5.349   4.514   5.113  1.6878  0.4671  0.4872
19518TIP3   OH280044   4.187   0.186  10.712 -0.2109 -0.3909  0.7287
19518TIP3    H180045   4.125   0.223  10.649  0.4577  0.4212  0.5495
19518TIP3    H280046   4.132   0.159  10.786 -0.9677 -1.1619 -0.1144
19519TIP3   OH280047   0.921   3.476  12.147  0.5122  0.1379 -0.7305
19519TIP3    H180048   0.995   3.436  12.102  0.8224  0.3470 -0.4041
19519TIP3    H280049   0.908   3.560  12.101 -0.3698 -0.4827 -1.6532
19520TIP3   OH280050   3.041   0.467   1.116  0.6536  0.1201 -0.3115
19520TIP3    H180051   2.978   0.479   1.187  1.2333  0.2827  0.1827
19520TIP3    H280052   3.071   0.376   1.126 -0.7952 -0.5188 -1.6204
19521TIP3   OH280053   6.485   1.338   4.483  0.1614  0.0914 -0.5346
19521TIP3    H180054   6.553   1.270   4.493 -0.0988  0.1515  1.7246
19521TIP3    H280055   6.403   1.289   4.479 -0.0056  0.2454  0.8563
19522TIP3   OH280056   0.598   1.959  11.126 -0.4321  0.4062  0.2874
19522TIP3    H180057   0.654   1.990  11.055 -0.9236 -1.4747 -0.9484
19522TIP3    H280058   0.537   1.898  11.085 -0.7643 -0.6905  2.2902
19523TIP3   OH280059   1.584   6.087  13.836  0.2610  0.4201 -0.2918
19523TIP3    H180060   1.631   6.059  13.914 -0.1195 -0.5376 -0.4052
19523TIP3    H280061   1.609   6.025  13.768  0.8667  1.4617 -1.0303
19524TIP3   OH280062   1.035   4.045   5.413  0.3851  0.4839 -0.0291
19524TIP3    H180063   1.091   4.118   5.388 -0.2254  0.9363 -0.0951
19524TIP3    H280064   0.947   4.071   5.385 -0.2507  0.7899  2.1145
19525TIP3   OH280065   4.185   6.100   0.209 -0.1429  0.1993  0.4078
19525TIP3    H180066   4.206   6.030   0.147  1.2668 -0.5897  1.7392
19525TIP3    H280067   4.168   6.055   0.291  1.1367  1.4541  1.3713
19526TIP3   OH280068   5.253   1.517  16.800  0.1747 -0.4466  0.5262
19526TIP3    H180069   5.163   1.549  16.802  0.2395 -0.1664 -0.4145
19526TIP3    H280070   5.302   1.578  16.856 -0.1557 -0.3872  0.7483
19527TIP3   OH280071   1.863   4.086  13.237  0.1143 -0.2255 -0.1455
19527TIP3    H180072   1.780   4.040  13.244 -0.1063 -0.2263 -2.2670
19527TIP3    H280073   1.926   4.017  13.214  0.0093  0.3116 -2.1229
19528TIP3   OH280074   0.803   5.921   3.063 -0.3844 -0.0217  0.4449
19528TIP3    H180075   0.746   5.928   3.139 -1.2945  3.8291 -0.4525
19528TIP3    H280076   0.753   5.960   2.992  2.1217  0.4949 -1.1263
19529TIP3   OH280077   5.528   5.529  14.107  0.9887  0.5174  0.7060
19529TIP3    H180078   5.572   5.610  14.079  0.1283  0.7329 -0.0806
19529TIP3    H280079   5.525   5.475  14.028 -0.5753  0.7084  0.6092
19530TIP3   OH280080   0.923   5.600   2.683 -0.5029 -0.1874  0.2522
19530TIP3    H180081   0.947   5.628   2.771  0.0155  0.0943  0.0260
19530TIP3    H280082   0.917   5.681   2.632  0.5699 -0.4324 -0.3005
19531TIP3   OH280083   4.256   4.583  15.608  0.2152  0.2339  0.0289
19531TIP3    H180084   4.322   4.563  15.675 -0.1394 -1.6671 -0.1846
19531TIP3    H280085   4.305   4.588  15.527  0.4246  1.0870  0.1995
19532TIP3   OH280086   5.739   0.928   4.134 -0.7988  0.0132 -0.1069
19532TIP3    H180087   5.677   0.948   4.063 -1.8601  1.3737  1.1671
19532TIP3    H280088   5.692   0.953   4.214  1.2627  0.7127  0.9173
19533TIP3   OH280089   2.815   3.834  14.144  0.1229 -0.2795 -0.1158
19533TIP3    H180090   2.900   3.800  14.116  0.4106  1.6614 -1.7226
19533TIP3    H280091   2.752   3.797  14.082  0.0728 -0.0531 -0.1997
19534TIP3   OH280092   6.593   5.497  12.314 -0.1950  0.2766  0.3330
19534TIP3    H180093   6.517   5.502  12.255 -0.2581 -0.5532  0.3250
19534TIP3    H280094   6.619   5.405  12.310  0.7164  0.5251  0.4677
19535TIP3   OH280095   4.736   1.597  13.581  0.5634  0.2419  0.0302
19535TIP3    H180096   4.729   1.613  13.675  1.6909  0.5211  0.0723
19535TIP3    H280097   4.671   1.655  13.542  0.7791  0.8657  0.5767
19536TIP3   OH280098   6.478   4.088   4.445  0.2236 -0.4193  0.7381
19536TIP3    H180099   6.495   4.105   4.352 -0.2600  0.6573  0.8419
19536TIP3    H280100   6.384   4.103   4.455  0.1900 -0.9910  1.3050
19537TIP3   OH280101   1.150   2.537   0.257 -0.5118 -0.4149 -0.2350
19537TIP3    H180102   1.097   2.611   0.228  0.9277  0.8547  0.3017
19537TIP3    H280103   1.154   2.546   0.352 -1.2341 -1.8174 -0.0577
19538TIP3   OH280104   1.586   1.764   5.875 -0.3108  0.0005  0.7914
19538TIP3    H180105   1.634   1.753   5.957 -1.5633  0.7063  1.6376
19538TIP3    H280106   1.544   1.850   5.883 -0.3673  0.1233 -0.6301
19539TIP3   OH280107   2.309   2.781   1.949  0.7774 -0.2238 -0.3156
19539TIP3    H180108   2.326   2.738   2.033  0.7380  0.4370  0.0349
19539TIP3    H280109   2.329   2.873   1.965  0.4595 -0.0435 -0.9425
19540TIP3   OH280110   1.759   0.977   5.557 -0.4747 -0.1953  0.0187
19540TIP3    H180111   1.703   0.934   5.493  0.4582 -1.5764  0.1262
19540TIP3    H280112   1.763   0.917   5.631 -0.1142  0.5963  0.6516
19541TIP3   OH280113   1.087   5.388   0.583  0.4556  0.0349  0.2322
19541TIP3    H180114   1.132   5.361   0.663 -0.5282 -0.9711  0.4590
19541TIP3    H280115   1.006   5.429   0.614  0.4257  0.3218 -0.2205
19542TIP3   OH280116   6.351   0.148   1.389 -0.1244 -0.1355 -0.1816
19542TIP3    H180117   6.372   0.239   1.368  0.4010 -0.5626 -1.6126
19542TIP3    H280118   6.381   0.136   1.478  2.0568  0.4096 -0.8244
19543TIP3   OH280119   0.393   1.190  16.301 -0.1706 -1.1312 -0.3985
19543TIP3    H180120   0.370   1.138  16.225 -0.2223 -0.4554 -0.8485
19543TIP3    H280121   0.432   1.270  16.265 -0.3586 -0.7310  0.2734
19544TIP3   OH280122   1.086   1.489   5.373  0.1180 -0.2426 -0.3257
19544TIP3    H180123   1.006   1.540   5.387  0.7328  0.6968 -0.2187
19544TIP3    H280124   1.148   1.550   5.333  0.4202 -1.2640 -1.4602
19545TIP3   OH280125   6.328   0.550  11.847 -0.1468 -0.1193  0.3413
19545TIP3    H180126   6.338   0.529  11.940 -1.9226  0.6505  0.7357
19545TIP3    H280127   6.239   0.585  11.840 -0.0869 -0.3128 -1.6853
19546TIP3   OH280128   1.401   5.940  11.065  0.1861  0.2919  0.5590
19546TIP3    H180129   1.411   5.928  10.970  0.2610  1.2848  0.4353
19546TIP3    H280130   1.490   5.956  11.096  0.1227  0.2656  0.7525
19547TIP3   OH280131   0.830   6.472  11.172  0.2627 -0.1757 -0.3634
19547TIP3    H180132   0.865   6.454  11.259 -1.2514  0.2548  0.3589
19547TIP3    H280133   0.896   6.528  11.130  1.1878 -0.7216  0.3451
19548TIP3   OH280134   0.579   4.651   1.270  0.0602  0.1789 -0.8439
19548TIP3    H180135   0.667   4.627   1.242  1.3604  2.9382  0.7840
19548TIP3    H280136   0.533   4.671   1.188  1.6774  1.1388 -1.5402
19549TIP3   OH280137   6.198   1.319  16.243  0.5144  0.5410  0.3875
19549TIP3    H180138   6.156   1.405  16.235 -0.1148  0.2229  0.2220
19549TIP3    H280139   6.126   1.256  16.232  1.3817 -0.0530 -2.3019
19550TIP3   OH280140   1.082   3.273  11.822  0.1650 -0.1775  0.6438
19550TIP3    H180141   1.153   3.273  11.886  0.4064 -1.0777  0.3840
19550TIP3    H280142   1.014   3.218  11.861  0.0949 -0.2906  0.3638
19551TIP3   OH280143   5.545   4.259  16.575  0.2111 -0.7829  0.1004
19551TIP3    H180144   5.604   4.221  16.511 -0.0430  0.4717 -0.9086
19551TIP3    H280145   5.582   4.236  16.660  2.1259 -0.0255 -0.5186
19552TIP3   OH280146   0.064   0.081   5.906  0.4515  0.1012  0.1777
19552TIP3    H180147  -0.002   0.049   5.968  0.4774 -1.8836 -0.7716
19552TIP3    H280148   0.013   0.116   5.833  0.4270  0.0646  0.1766
19553TIP3   OH280149   0.690   6.151  12.854  0.0060  0.6972  0.3114
19553TIP3    H180150   0.714   6.068  12.896  0.5988  1.2516  1.0772
19553TIP3    H280151   0.600   6.167  12.883 -0.2214  0.1568 -0.0976
19554TIP3   OH280152   5.131   4.449   4.593  0.3833  0.2149 -0.4498
19554TIP3    H180153   5.083   4.516   4.641 -1.7159 -1.7992  0.3573
19554TIP3    H280154   5.078   4.432   4.515 -0.3831 -2.1594  0.5372
19555TIP3   OH280155   0.889   2.613  13.665  0.5858  0.0001 -0.2018
19555TIP3    H180156   0.931   2.537  13.624  0.4704  0.0164 -0.3537
19555TIP3    H280157   0.815   2.632  13.607  1.0729  0.7168 -0.5852
19556TIP3   OH280158   3.534   0.607  14.727 -0.3963  0.1912  0.5909
19556TIP3    H180159   3.569   0.622  14.639 -3.1648 -0.3672 -0.6748
19556TIP3    H280160   3.599   0.551  14.769  0.2232 -0.8505 -1.6718
19557TIP3   OH280161   0.329   5.213  14.558 -0.2266  0.4346  0.4768
19557TIP3    H180162   0.335   5.302  14.524  2.7151 -0.1958 -0.8807
19557TIP3    H280163   0.268   5.169  14.500 -0.3493  1.1231  0.0820
19558TIP3   OH280164   4.257   5.794   3.219  0.2170  0.0816  0.2497
19558TIP3    H180165   4.350   5.816   3.212 -0.0204  0.4815 -2.0863
19558TIP3    H280166   4.214   5.879   3.235  0.3761 -0.3318  3.2472
19559TIP3   OH280167   5.116   0.724  11.176  0.1439  0.0880  0.0492
19559TIP3    H180168   5.200   0.732  11.221 -0.2248  1.3668  0.5240
19559TIP3    H280169   5.140   0.710  11.084  0.8742 -0.2199  0.2795
19560TIP3   OH280170   4.573   0.235  17.036  0.1420 -0.0218  0.4050
19560TIP3    H180171   4.606   0.215  17.123 -1.4780 -0.5734  0.9119
19560TIP3    H280172   4.566   0.331  17.034  0.1699 -0.0090  0.8900
19561TIP3   OH280173   6.654   4.723  14.900 -0.4351 -0.2968 -0.4712
19561TIP3    H180174   6.611   4.753  14.980  1.8986 -0.3750  0.8506
19561TIP3    H280175   6.584   4.682  14.849 -2.0984  0.4504  1.1666
19562TIP3   OH280176   3.226   6.409   4.713 -0.0246 -0.6872 -0.6452
19562TIP3    H180177   3.147   6.428   4.763  0.2947 -0.2967 -0.2825
19562TIP3    H280178   3.237   6.484   4.655 -0.3337 -1.0897 -1.2388
19563TIP3   OH280179   4.610   5.192  16.591 -0.4606 -0.2658  0.1699
19563TIP3    H180180   4.525   5.150  16.583 -0.1718 -1.2235  1.7393
19563TIP3    H280181   4.672   5.120  16.595  0.3432  0.3988 -0.0566
19564TIP3   OH280182   0.409   1.696   2.680 -0.3739 -0.0810 -0.1178
19564TIP3    H180183   0.346   1.630   2.710  0.0227 -0.5656 -0.3515
19564TIP3    H280184   0.383   1.715   2.590 -1.9327  1.8117  0.6952
19565TIP3   OH280185   6.386   5.160  13.708 -0.8947  0.0401  0.7457
19565TIP3    H180186   6.317   5.184  13.770 -0.7215 -0.5064  1.1563
19565TIP3    H280187   6.370   5.214  13.631 -0.6244  1.3231  1.5779
19566TIP3   OH280188   1.844   1.842  17.155 -0.7310  0.3875  0.2136
19566TIP3    H180189   1.868   1.889  17.235  0.9640 -0.3651  0.1726
19566TIP3    H280190   1.762   1.882  17.127 -0.4715  1.7954  1.4092
19567TIP3   OH280191   6.212   1.617  13.257  0.4601  1.1728 -0.1787
19567TIP3    H180192   6.143   1.578  13.204  1.9558 -0.6244 -0.8692
19567TIP3    H280193   6.214   1.565  13.337  0.2017  2.0068  0.3829
19568TIP3   OH280194   0.674   0.727  11.440  0.4392 -0.4503  0.3152
19568TIP3    H180195   0.706   0.705  11.352  0.5792 -1.0268  0.5084
19568TIP3    H280196   0.592   0.680  11.448  0.4821 -0.4867  0.5365
19569TIP3   OH280197   5.452   0.897   3.565 -0.7040  0.3818  0.7107
19569TIP3    H180198   5.509   0.820   3.562 -2.7860 -1.2134  0.7970
19569TIP3    H280199   5.499   0.963   3.514  0.7872 -1.1892 -0.0175
19570TIP3   OH280200   5.303   5.936  13.098 -0.1329 -0.3031  0.0185
19570TIP3    H180201   5.228   5.971  13.145  0.8985 -0.8331  2.1279
19570TIP3    H280202   5.355   5.892  13.165  1.6196 -0.7019 -1.5507
19571TIP3   OH280203   6.332   1.255  13.979  0.2784 -0.2839 -0.2645
19571TIP3    H180204   6.363   1.298  13.899 -1.0112 -0.4784 -0.8816
19571TIP3    H280205   6.260   1.310  14.010 -1.7914 -2.2213 -1.3805
19572TIP3   OH280206   5.160   5.459   2.974 -0.3972 -0.1927  0.4008
19572TIP3    H180207   5.089   5.471   3.036  1.3108  0.2155  2.3191
19572TIP3    H280208   5.129   5.391   2.915 -1.3182 -1.9138  2.8112
19573TIP3   OH280209   3.263   3.059  14.431  0.5097  0.0179  0.0475
19573TIP3    H180210   3.183   3.007  14.422 -0.4386  1.5175 -0.4749
19573TIP3    H280211   3.302   3.059  14.344  0.0753  0.8389 -0.1534
19574TIP3   OH280212   4.635   6.437   0.384  0.1738 -0.1903 -0.4130
19574TIP3    H180213   4.662   6.514   0.435  0.6116 -1.4808  1.3411
19574TIP3    H280214   4.544   6.456   0.359 -0.5412 -0.1340  2.0943
19575TIP3   OH280215   1.853   1.003   3.550 -0.2423 -0.2900 -0.4893
19575TIP3    H180216   1.833   1.028   3.641  2.0519 -2.4064  0.6561
19575TIP3    H280217   1.770   0.974   3.514 -0.5918 -2.4818  1.9788
19576TIP3   OH280218   2.052   3.658   0.159 -0.8462  0.3246 -0.0899
19576TIP3    H180219   1.992   3.653   0.234 -0.0413  1.8379  0.6939
19576TIP3    H280220   2.043   3.748   0.128 -1.6618 -0.4889 -2.2532
19577TIP3   OH280221   6.241   1.816   1.916  0.0780  0.3502 -0.5169
19577TIP3    H180222   6.240   1.727   1.952 -0.4856  1.0204  1.1818
19577TIP3    H280223   6.289   1.868   1.981 -2.2781  1.8854  0.0699
19578TIP3   OH280224   0.263   5.661  16.920  0.1347  0.4781 -0.2310
19578TIP3    H180225   0.186   5.662  16.864  0.4254  1.7139 -0.6275
19578TIP3    H280226   0.296   5.572  16.913 -2.2024 -0.5624  1.2713
19579TIP3   OH280227   3.046   1.977   3.681 -0.3838 -0.0601 -0.4077
19579TIP3    H180228   3.095   2.055   3.655 -0.2435  0.0976  0.3101
19579TIP3    H280229   2.996   1.952   3.603 -0.5458  0.8373 -0.5957
19580TIP3   OH280230   6.391   1.360   5.018  0.1323  0.3797 -0.6391
19580TIP3    H180231   6.324   1.308   5.062  1.3739 -0.9398 -0.2628
19580TIP3    H280232   6.373   1.350   4.925  0.0151 -0.2785 -0.5496
19581TIP3   OH280233   2.032   6.268  13.156  0.3266 -0.3644  0.2506
19581TIP3    H180234   1.998   6.222  13.080  0.5115 -0.5782  0.2982
19581TIP3    H280235   2.104   6.214  13.188  0.9802  0.2915 -0.0894
19582TIP3   OH280236   5.411   1.264   0.384  0.6009  0.7932 -0.1066
19582TIP3    H180237   5.336   1.217   0.420  1.6018 -1.2141 -0.5879
19582TIP3    H280238   5.488   1.220   0.421  1.5732  1.8680 -0.7798
19583TIP3   OH280239   2.917   4.996  12.588 -0.2310 -0.1967 -0.4715
19583TIP3    H180240   2.836   5.023  12.544 -0.9665 -0.3480  0.7775
19583TIP3    H280241   2.917   5.044  12.671  0.7229 -0.5639 -0.2544
19584TIP3   OH280242   1.390   6.435  16.307  0.0026 -0.4231 -0.4374
19584TIP3    H180243   1.442   6.357  16.327 -0.9411 -0.9391  0.0175
19584TIP3    H280244   1.433   6.473  16.230  2.4294  0.4440  1.2824
19585TIP3   OH280245   4.469   0.277  10.706  0.3397  0.9412 -0.3939
19585TIP3    H180246   4.382   0.238  10.702  0.8755 -0.1186 -1.6921
19585TIP3    H280247   4.455   0.369  10.685 -0.2859  0.4933 -1.9882
19586TIP3   OH280248   0.229   4.937   2.311  0.1003 -0.3496  1.1070
19586TIP3    H180249   0.250   4.957   2.219 -0.8878 -0.4296  0.8574
19586TIP3    H280250   0.227   4.841   2.313  2.1763 -0.4118  1.6950
19587TIP3   OH280251   1.760   0.969   2.692 -0.1512 -0.1151 -0.6511
19587TIP3    H180252   1.821   0.897   2.674  0.9242  1.1457 -2.1205
19587TIP3    H280253   1.770   1.028   2.618  0.7925  2.8057  1.7337
19588TIP3   OH280254   3.865   1.425  17.162 -0.3135 -0.2729 -0.3432
19588TIP3    H180255   3.866   1.474  17.079 -1.5633 -1.8877 -1.3425
19588TIP3    H280256   3.954   1.392  17.171  0.2109  1.1010 -0.2987
19589TIP3   OH280257   2.992   4.392   2.815  0.5412  0.2235  0.1339
19589TIP3    H180258   2.957   4.403   2.903  1.0012 -1.6744  0.5700
19589TIP3    H280259   3.064   4.455   2.809  1.6218 -0.8447  1.7188
19590TIP3   OH280260   2.332   6.214   4.985  0.1424 -0.2556  0.2968
19590TIP3    H180261   2.410   6.240   5.035 -0.7792  2.9774  0.1482
19590TIP3    H280262   2.292   6.144   5.037  0.2346  1.7267  3.1230
19591TIP3   OH280263   3.527   6.299  12.526 -0.5011 -0.5269 -0.0368
19591TIP3    H180264   3.568   6.216  12.552  1.2043  0.6585  1.1823
19591TIP3    H280265   3.589   6.337  12.463 -2.2907 -1.1324 -2.2229
19592TIP3   OH280266   2.639   3.660  15.665  0.1660  0.3517  0.0172
19592TIP3    H180267   2.712   3.719  15.646  0.4627 -0.3316 -0.9847
19592TIP3    H280268   2.675   3.572  15.655 -0.5905  0.0030  0.2921
19593TIP3   OH280269   3.759   0.041  13.056 -0.5731 -0.1489 -0.1727
19593TIP3    H180270   3.750   0.126  13.013 -0.6025 -0.0862 -0.0445
19593TIP3    H280271   3.671   0.005  13.056 -0.2659 -0.9441 -1.7726
19594TIP3   OH280272   6.195   3.356   0.564  0.0188  0.2042 -0.0501
19594TIP3    H180273   6.258   3.388   0.629  0.5418  0.1445 -0.5210
19594TIP3    H280274   6.114   3.404   0.583  0.6123  1.3536 -0.3384
19595TIP3   OH280275   4.277   6.718   1.615 -0.2721 -0.1746  0.1504
19595TIP3    H180276   4.269   6.631   1.575 -1.5167 -0.3674  0.8100
19595TIP3    H280277   4.331   6.767   1.553 -0.6885 -1.0105 -0.8955
19596TIP3   OH280278   6.486   3.886   5.617 -0.3219 -0.0466  0.0499
19596TIP3    H180279   6.489   3.792   5.637  0.1096 -0.4982 -1.9739
19596TIP3    H280280   6.393   3.909   5.623 -0.4192 -0.5981  0.6521
19597TIP3   OH280281   1.469   3.696  16.763 -0.1073 -0.2668 -0.0759
19597TIP3    H180282   1.516   3.701  16.846 -0.6890 -2.1361  0.3896
19597TIP3    H280283   1.426   3.782  16.755 -1.5835 -0.6947  2.5189
19598TIP3   OH280284   6.658   4.210   4.632 -0.7206 -0.0364  0.1459
19598TIP3    H180285   6.585   4.180   4.578  0.7235  0.9553 -2.4801
19598TIP3    H280286   6.727   4.145   4.616 -0.2066  0.3939  0.6011
19599TIP3   OH280287   6.629   2.581   0.453  0.6058  0.1760  0.8952
19599TIP3    H180288   6.672   2.638   0.516 -1.2668  0.2192  2.1876
19599TIP3    H280289   6.626   2.633   0.373  0.6756  1.1423  1.5052
19600TIP3   OH280290   4.095   1.707  11.491  0.4279 -0.1186 -0.1669
19600TIP3    H180291   4.132   1.791  11.464 -0.6770  0.4797  0.1797
19600TIP3    H280292   4.143   1.642  11.438 -1.0926  0.9589 -2.9705
19601TIP3   OH280293   5.889   3.171   2.316 -0.2594  0.3435  0.3376
19601TIP3    H180294   5.946   3.204   2.386 -1.0418  0.0570  1.1285
19601TIP3    H280295   5.937   3.188   2.236  0.3734  1.2795  0.9015
19602TIP3   OH280296   5.076   1.113  17.052  0.0807  0.4450  0.5002
19602TIP3    H180297   5.095   1.181  16.988  0.5672  1.1398  1.3685
19602TIP3    H280298   5.143   1.046  17.036 -0.0128  0.4572  0.0551
19603TIP3   OH280299   3.256   0.976  15.688  0.2566  0.0240  0.0818
19603TIP3    H180300   3.277   1.058  15.733 -3.4167  1.6557 -0.9531
19603TIP3    H280301   3.309   0.977  15.609  0.4583  1.2551  0.2214
19604TIP3   OH280302   0.267   0.423   2.148 -0.3668 -0.3373 -0.1488
19604TIP3    H180303   0.256   0.330   2.125  0.1808 -0.8215  1.4672
19604TIP3    H280304   0.238   0.428   2.239 -1.2189  1.2615 -0.5082
19605TIP3   OH280305   6.144   2.302   1.014 -0.2381  0.5718 -0.0301
19605TIP3    H180306   6.096   2.303   0.931  0.1702 -0.5187 -0.2919
19605TIP3    H280307   6.235   2.316   0.988 -0.2478  1.3068  0.3365
19606TIP3   OH280308   2.736   0.658  13.179 -0.7971 -1.0458 -0.1884
19606TIP3    H180309   2.742   0.697  13.092 -0.6735 -0.5868  0.0231
19606TIP3    H280310   2.826   0.635  13.201 -0.3612  1.7063  1.1129
19607TIP3   OH280311   3.867   2.821   3.368  1.2022 -0.2914  0.1377
19607TIP3    H180312   3.939   2.833   3.306 -0.9307 -0.9527 -2.5739
19607TIP3    H280313   3.858   2.906   3.410  1.4679  0.7930 -1.8902
19608TIP3   OH280314   3.521   0.141  16.191 -0.3417  0.3379 -0.3037
19608TIP3    H180315   3.568   0.157  16.109 -0.6924  0.3627 -0.5006
19608TIP3    H280316   3.432   0.119  16.164 -0.8989  1.9552  0.1224
19609TIP3   OH280317   5.232   2.683  12.192 -0.4016 -0.6491 -0.4080
19609TIP3    H180318   5.279   2.607  12.158 -2.0107 -0.9738 -1.9541
19609TIP3    H280319   5.241   2.677  12.287 -0.3633 -2.6749 -0.5263
19610TIP3   OH280320   0.943   1.857   2.389  0.3830  0.2138  0.0565
19610TIP3    H180321   0.868   1.822   2.341  0.0642 -0.2599  0.8905
19610TIP3    H280322   0.905   1.905   2.462  0.9095 -1.1470  1.2439
19611TIP3   OH280323   4.056   1.038   4.242 -0.0413 -0.0185  0.3311
19611TIP3    H180324   3.994   1.001   4.306 -0.5478  2.1856  1.1324
19611TIP3    H280325   4.092   1.115   4.285  0.4857  0.8344 -1.6058
19612TIP3   OH280326   4.917   5.881  15.498 -0.3487  0.2648 -0.9530
19612TIP3    H180327   4.872   5.890  15.414 -0.8939 -0.0123 -0.6937
19612TIP3    H280328   4.867   5.936  15.559  1.5272  2.5127 -1.3659
19613TIP3   OH280329   1.692   1.543   5.775 -0.1948  0.1324  0.0197
19613TIP3    H180330   1.647   1.622   5.806  1.7935  1.0446  0.6952
19613TIP3    H280331   1.736   1.571   5.694 -0.2213 -0.5278 -0.2221
19614TIP3   OH280332   4.296   5.714  11.985  0.2881 -0.1432 -0.2456
19614TIP3    H180333   4.349   5.792  11.970 -1.6891  1.3886  0.4963
19614TIP3    H280334   4.320   5.685  12.073  1.8636 -1.0691 -0.9666
19615TIP3   OH280335   5.820   6.619  11.558 -0.2489  0.4206  0.3684
19615TIP3    H180336   5.872   6.564  11.616  0.3964 -0.4404 -1.0163
19615TIP3    H280337   5.841   6.588  11.470 -1.1511  1.7683 -0.3369
19616TIP3   OH280338   1.673   0.542  16.813 -0.0438 -0.4446  0.2907
19616TIP3    H180339   1.691   0.612  16.750  0.9043 -0.8925  0.0450
19616TIP3    H280340   1.758   0.499  16.825 -0.3937 -0.8621  1.2700
19617TIP3   OH280341   2.966   2.915   0.191 -0.1790 -0.1115  0.9853
19617TIP3    H180342   2.884   2.958   0.215 -0.1777 -0.3267  1.3759
19617TIP3    H280343   3.004   2.887   0.274 -0.8026 -2.0323  0.6536
19618TIP3   OH280344   5.136   4.755   2.560 -0.3413  0.3612 -0.3373
19618TIP3    H180345   5.087   4.693   2.614  0.8003 -0.4255 -0.1710
19618TIP3    H280346   5.156   4.827   2.620 -1.8023  0.9663 -0.5698
19619TIP3   OH280347   0.628   4.343  14.608 -0.0269 -0.1707  0.3172
19619TIP3    H180348   0.542   4.368  14.576  0.5327 -0.6741 -1.6451
19619TIP3    H280349   0.611   4.271  14.669 -0.9417 -0.7906 -0.6553
19620TIP3   OH280350   6.428   0.982   2.581  0.2363  0.1428  0.0652
19620TIP3    H180351   6.468   0.908   2.627  2.4481  1.2791  0.0099
19620TIP3    H280352   6.497   1.048   2.577 -1.5539  2.0203 -0.3640
19621TIP3   OH280353   3.671   3.454   1.547 -0.2870  0.4512 -0.1213
19621TIP3    H180354   3.628   3.418   1.470  0.2310  2.4600 -1.3900
19621TIP3    H280355   3.610   3.436   1.619 -1.3773 -0.2791 -1.2073
19622TIP3   OH280356   2.927   6.425  12.032  0.3793 -0.1475  0.1325
19622TIP3    H180357   2.833   6.431  12.047  0.5789  0.4776  1.1310
19622TIP3    H280358   2.950   6.338  12.065 -0.2814 -1.3822 -2.5230
19623TIP3   OH280359   4.665   2.652  14.690  0.0116 -0.7025 -0.4147
19623TIP3    H180360   4.680   2.580  14.752  0.2735  0.0039  0.3505
19623TIP3    H280361   4.747   2.701  14.690 -0.8005  0.6994  0.5237
19624TIP3   OH280362   4.569   4.531  13.314 -0.0918 -0.7499  0.2308
19624TIP3    H180363   4.528   4.460  13.266  1.9867 -2.6094  1.0973
19624TIP3    H280364   4.529   4.529  13.400  0.4838 -1.3812  0.4914
19625TIP3   OH280365   2.197   6.398  15.264  0.7834 -0.5914  0.6265
19625TIP3    H180366   2.222   6.422  15.354  0.5520 -0.0565  0.5464
19625TIP3    H280367   2.149   6.316  15.274  0.2867 -0.2530  1.0469
19626TIP3   OH280368   3.784   3.751   5.465  0.2817  0.0100  0.6126
19626TIP3    H180369   3.790   3.729   5.558  0.0979 -1.7553  0.2156
19626TIP3    H280370   3.733   3.680   5.426 -0.6162  1.3171 -0.6541
19627TIP3   OH280371   5.744   0.580  15.237  0.1296  0.2520 -0.3438
19627TIP3    H180372   5.750   0.531  15.320 -1.3786  0.3098 -0.1822
19627TIP3    H280373   5.659   0.554  15.201  1.8976 -1.7887 -3.1862
19628TIP3   OH280374   5.408   3.816  17.016 -0.0288  0.2453  0.2320
19628TIP3    H180375   5.435   3.851  17.101  0.3172  1.8481 -0.5160
19628TIP3    H280376   5.399   3.893  16.960  1.8671 -0.9242 -1.7948
19629TIP3   OH280377   4.354   6.721   3.485 -0.2509 -0.0660  0.0863
19629TIP3    H180378   4.367   6.723   3.390 -1.8259 -0.9660 -0.1654
19629TIP3    H280379   4.260   6.732   3.497 -0.0953 -0.1589  1.5423
19630TIP3   OH280380   3.760   4.312   4.333 -0.1156  0.7854 -0.6231
19630TIP3    H180381   3.666   4.306   4.320  0.1508 -3.8303 -1.1568
19630TIP3    H280382   3.796   4.319   4.244  0.1111  1.9422 -0.4519
19631TIP3   OH280383   5.518   3.498  14.260  0.0924 -0.1339 -0.0293
19631TIP3    H180384   5.500   3.491  14.354 -0.4300  0.9626 -0.0469
19631TIP3    H280385   5.490   3.413  14.224 -1.0115 -0.0424  0.5923
19632TIP3   OH280386   5.247   5.223  14.175  0.0119 -0.1960  0.2657
19632TIP3    H180387   5.173   5.257  14.225 -1.9046 -1.6324 -1.5595
19632TIP3    H280388   5.257   5.285  14.103  0.3945 -0.1996  0.3133
19633TIP3   OH280389   4.345   6.739   1.862  0.1114  0.0364 -0.6022
19633TIP3    H180390   4.323   6.827   1.891  0.7034  0.9380 -2.7746
19633TIP3    H280391   4.303   6.731   1.776 -0.6756 -2.1215 -0.0518
19634TIP3   OH280392   2.623   6.161   1.121  0.0929 -0.0988 -0.7792
19634TIP3    H180393   2.631   6.133   1.030 -1.6436  0.1551 -1.0151
19634TIP3    H280394   2.552   6.109   1.157  0.4262  0.1655  0.3061
19635TIP3   OH280395   4.403   0.092   2.246 -0.1835  0.5925 -0.1871
19635TIP3    H180396   4.494   0.117   2.265  0.3754 -1.0527 -0.5540
19635TIP3    H280397   4.356   0.109   2.328 -0.2140  4.2997 -0.8829
19636TIP3   OH280398   6.596   6.446  14.504 -0.6179  0.3359 -0.1661
19636TIP3    H180399   6.550   6.399  14.434 -0.0591 -1.5347  0.6915
19636TIP3    H280400   6.562   6.536  14.498 -2.8654 -0.5110 -0.8681
19637TIP3   OH280401   5.477   2.897   1.277 -0.4568  0.3080 -0.3043
19637TIP3    H180402   5.434   2.916   1.360  0.7632  2.2690 -0.0778
19637TIP3    H280403   5.415   2.841   1.230 -1.2552 -0.6429  1.8180
19638TIP3   OH280404   4.007   5.099  15.777  0.5850 -0.0682 -0.8315
19638TIP3    H180405   4.089   5.146  15.791  0.2725  0.2732 -0.1459
19638TIP3    H280406   4.033   5.016  15.737  1.2852 -0.0977 -0.3060
19639TIP3   OH280407   2.869   3.454   1.222  0.1906  0.4726 -0.6141
19639TIP3    H180408   2.937   3.390   1.244 -1.0888 -0.9093 -0.5397
19639TIP3    H280409   2.832   3.480   1.306 -0.8947 -0.5291 -0.7598
19640TIP3   OH280410   2.510   2.216  16.047  0.0993  0.0257 -0.0564
19640TIP3    H180411   2.548   2.297  16.014 -1.1130  0.6189 -0.0230
19640TIP3    H280412   2.547   2.205  16.134 -0.1285  0.8013  0.1329
19641TIP3   OH280413   6.194   0.837   1.618  0.5055 -0.1588 -0.4669
19641TIP3    H180414   6.230   0.926   1.626  0.2890 -0.1825  1.0465
19641TIP3    H280415   6.185   0.808   1.709  0.6763 -1.7756 -0.9673
19642TIP3   OH280416   4.762   4.754  11.575  0.0910 -0.0115  0.8068
19642TIP3    H180417   4.850   4.789  11.585 -0.3887  1.4786  0.0473
19642TIP3    H280418   4.774   4.668  11.534  1.1674  0.4183  0.1964
19643TIP3   OH280419   6.321   0.458   5.744 -0.1517 -0.5061  0.2047
19643TIP3    H180420   6.260   0.500   5.805  1.1638 -0.4134  1.4544
19643TIP3    H280421   6.347   0.377   5.788 -0.1802 -1.0570 -0.7883
19644TIP3   OH280422   4.019   3.928  15.543 -0.3478 -0.4997  0.0207
19644TIP3    H180423   4.061   3.897  15.463 -0.9498  0.7731 -0.8196
19644TIP3    H280424   4.069   3.888  15.614  0.2432 -1.5918 -0.9852
19645TIP3   OH280425   2.929   4.930   2.244 -0.2117 -0.0518 -0.3627
19645TIP3    H180426   2.981   4.871   2.190 -0.0202  1.2374 -1.6371
19645TIP3    H280427   2.862   4.963   2.185 -0.7267  0.4825  0.5137
19646TIP3   OH280428   6.230   6.590  12.786  0.1194  0.0522  0.7095
19646TIP3    H180429   6.304   6.623  12.735  0.4168 -2.4004 -0.5239
19646TIP3    H280430   6.168   6.558  12.721 -1.1179  0.1491  1.8084
19647TIP3   OH280431   2.321   2.713  12.669  0.6203 -0.4036 -0.0912
19647TIP3    H180432   2.324   2.732  12.575  0.0224  0.0074 -0.0275
19647TIP3    H280433   2.243   2.759  12.700  1.0460 -0.2204  0.6848
19648TIP3   OH280434   6.422   3.486   3.881 -0.2114 -0.6563  0.2649
19648TIP3    H180435   6.398   3.394   3.888  1.8235 -1.2024  0.4286
19648TIP3    H280436   6.357   3.523   3.821  0.6048 -2.8392 -2.0698
19649TIP3   OH280437   4.370   6.742   4.494 -0.2965 -0.0795 -0.0091
19649TIP3    H180438   4.297   6.769   4.549 -0.7709 -0.1908 -0.5697
19649TIP3    H280439   4.441   6.802   4.516 -0.3765 -0.3306  0.9434
19650TIP3   OH280440   3.272   6.331   5.617 -0.0733  0.2486 -0.2550
19650TIP3    H180441   3.226   6.373   5.690  0.2347  0.7965 -0.3728
19650TIP3    H280442   3.324   6.262   5.657 -1.9624 -1.2085 -0.2519
19651TIP3   OH280443   3.544   5.347   0.409  0.1951  0.4921  0.0849
19651TIP3    H180444   3.484   5.417   0.383  0.4471  1.9323  3.1887
19651TIP3    H280445   3.628   5.391   0.420  0.4004 -0.3324  1.9286
19652TIP3   OH280446   4.101   1.601   6.640  0.3104  0.1073  0.5550
19652TIP3    H180447   4.134   1.511   6.640  2.0346  0.6836  2.6168
19652TIP3    H280448   4.008   1.593   6.659  0.6222 -1.2045  1.6229
19653TIP3   OH280449   4.998   2.880  15.899 -0.3899 -0.2928  0.3110
19653TIP3    H180450   5.042   2.830  15.830 -3.1102  0.2947 -1.9559
19653TIP3    H280451   5.016   2.971  15.878 -0.6917 -0.1308  0.7359
19654TIP3   OH280452   5.073   0.238   3.754 -0.3042 -0.1977  0.2149
19654TIP3    H180453   5.130   0.264   3.682  2.9571 -3.2789  1.4916
19654TIP3    H280454   4.991   0.213   3.712  0.6510  0.4866 -2.1448
19655TIP3   OH280455   3.116   3.946   5.513 -0.4868 -0.4318  0.1376
19655TIP3    H180456   3.195   3.926   5.463 -0.0915 -0.0205  0.5915
19655TIP3    H280457   3.128   3.903   5.597 -0.3739  0.2999  0.5049
19656TIP3   OH280458   2.080   3.408   2.300  0.2010 -0.6281  0.2993
19656TIP3    H180459   2.028   3.430   2.378  2.5235 -1.2516  2.0748
19656TIP3    H280460   2.073   3.313   2.292  1.4919 -0.7739  0.8631
19657TIP3   OH280461   4.427   0.076  16.869 -0.2079  0.5679  0.2669
19657TIP3    H180462   4.345   0.126  16.873 -0.0405  0.8289  0.5059
19657TIP3    H280463   4.484   0.120  16.932 -0.1573 -0.1196  0.6966
19658TIP3   OH280464   2.885   5.423  11.427  0.2445 -0.8069 -0.5525
19658TIP3    H180465   2.920   5.505  11.462  2.2809  0.7880 -5.8580
19658TIP3    H280466   2.951   5.358  11.452  1.1756  0.1016 -0.5759
19659TIP3   OH280467   5.262   4.297  15.730 -0.3178  0.2705  0.5066
19659TIP3    H180468   5.201   4.371  15.724 -0.0150  0.5389  0.6487
19659TIP3    H280469   5.348   4.338  15.719 -0.2293 -0.2398 -0.7195
19660TIP3   OH280470   1.326   4.152   5.759 -0.2874  0.6298  0.2611
19660TIP3    H180471   1.384   4.182   5.828  1.2421 -1.6185  0.0076
19660TIP3    H280472   1.373   4.171   5.678  0.7281 -2.3481  0.1004
19661TIP3   OH280473   1.435   3.650   5.586  0.2239 -0.0789 -0.0206
19661TIP3    H180474   1.378   3.700   5.644 -0.4105  2.4224 -2.6696
19661TIP3    H280475   1.382   3.576   5.557 -0.9147  1.0025 -0.7075
19662TIP3   OH280476   5.873   3.943  16.766  0.5200  0.6340  0.0848
19662TIP3    H180477   5.780   3.946  16.747  0.4201  1.3385  0.6569
19662TIP3    H280478   5.878   3.909  16.855  0.7815  1.1262  0.2569
19663TIP3   OH280479   0.406   3.122   2.020 -0.3804 -0.1790 -0.0640
19663TIP3    H180480   0.347   3.139   1.946 -0.6104  1.2987  0.4284
19663TIP3    H280481   0.359   3.060   2.075 -0.5119 -0.7396 -0.8052
19664TIP3   OH280482   0.187   4.336  15.866 -0.4605 -0.0303  0.2038
19664TIP3    H180483   0.173   4.316  15.959  0.2961  1.0012  0.5539
19664TIP3    H280484   0.282   4.328  15.854 -0.3571  1.4914 -0.0727
19665TIP3   OH280485   5.074   3.213  11.881 -0.0403  0.5072  0.3826
19665TIP3    H180486   5.146   3.194  11.942  0.3766 -0.5580 -0.4246
19665TIP3    H280487   5.106   3.287  11.829  1.3450 -1.2000 -1.3103
19666TIP3   OH280488   4.349   3.483  15.697  0.1342  0.1534 -0.4771
19666TIP3    H180489   4.381   3.454  15.612 -0.1572 -0.3821 -0.4100
19666TIP3    H280490   4.428   3.494  15.750  0.2762 -0.1187 -0.6327
19667TIP3   OH280491   5.908   0.076   4.662 -0.0665 -0.6633  0.4354
19667TIP3    H180492   5.977   0.027   4.707  1.5775  1.4513  0.2987
19667TIP3    H280493   5.833   0.016   4.661  2.2010 -3.6241 -0.7307
19668TIP3   OH280494   4.350   5.845   3.821  0.2208  0.3200  0.1751
19668TIP3    H180495   4.445   5.852   3.835  0.4660 -0.1039 -1.1975
19668TIP3    H280496   4.326   5.929   3.782 -0.2393  1.0235  1.9680
19669TIP3   OH280497   1.466   5.524  16.778 -0.2869 -0.1519 -0.0831
19669TIP3    H180498   1.550   5.505  16.820 -0.6215 -1.8895 -0.1869
19669TIP3    H280499   1.488   5.538  16.686  0.2375  2.1261  0.3551
19670TIP3   OH280500   1.293   3.637   0.887 -0.3529 -0.4558 -0.6086
19670TIP3    H180501   1.266   3.661   0.976 -0.2471  1.6014 -1.1027
19670TIP3    H280502   1.217   3.592   0.850 -1.7187  1.7754 -0.6377
19671TIP3   OH280503   3.261   5.195  11.895  0.7120  0.5646  0.2425
19671TIP3    H180504   3.288   5.141  11.821 -2.6520  2.6505 -2.7677
19671TIP3    H280505   3.305   5.279  11.880 -1.9978  1.8460 -1.0241
19672TIP3   OH280506   4.845   3.598  16.833 -0.5140 -0.4160  0.0808
19672TIP3    H180507   4.824   3.545  16.756 -0.3696 -1.7520  0.9588
19672TIP3    H280508   4.762   3.610  16.878 -0.8550  1.5327 -0.9737
19673TIP3   OH280509   2.077   0.660  11.819 -0.5172  0.0811  0.2602
19673TIP3    H180510   2.110   0.723  11.754 -0.9600  0.7846  0.7082
19673TIP3    H280511   2.007   0.707  11.864  0.3342 -0.1221  1.8144
19674TIP3   OH280512   4.343   3.298   5.194 -0.6382  0.5136  0.4478
19674TIP3    H180513   4.383   3.381   5.168  0.5985 -0.0799  0.4162
19674TIP3    H280514   4.262   3.323   5.239 -0.7821  1.6906 -0.4345
19675TIP3   OH280515   5.923   2.665   3.083  0.7193 -0.3248  0.2297
19675TIP3    H180516   5.994   2.606   3.107  0.6025  0.0784  1.6129
19675TIP3    H280517   5.868   2.670   3.161  1.6335  2.8798  0.7451
19676TIP3   OH280518   5.506   2.149   4.610  0.0300 -0.0027 -0.0857
19676TIP3    H180519   5.451   2.073   4.631  2.1446 -1.2762  0.9678
19676TIP3    H280520   5.537   2.132   4.521  2.0334 -1.3326  0.8493
19677TIP3   OH280521   1.273   5.031  13.434 -0.6102  0.5463  0.2569
19677TIP3    H180522   1.319   4.955  13.399 -0.3271  0.4451  0.8419
19677TIP3    H280523   1.230   4.999  13.513  0.5076  1.2848  1.1736
19678TIP3   OH280524   3.414   3.416  15.575 -0.0929  0.2070  0.4802
19678TIP3    H180525   3.322   3.389  15.579  0.3609 -1.5033 -0.2627
19678TIP3    H280526   3.463   3.334  15.580  1.4453  1.2052  2.2974
19679TIP3   OH280527   5.490   6.810   3.722  0.1577  0.3207 -0.4781
19679TIP3    H180528   5.576   6.803   3.762 -0.2680  1.1155  0.5860
19679TIP3    H280529   5.508   6.843   3.633  1.1954 -2.6991 -1.4317
19680TIP3   OH280530   6.558   4.631  12.420  0.1170 -0.3847  0.0504
19680TIP3    H180531   6.561   4.680  12.338 -0.4970 -1.9144 -0.9209
19680TIP3    H280532   6.530   4.694  12.485 -1.1858  0.4302 -1.2710
19681TIP3   OH280533   4.960   6.736  11.332  0.3530  0.0311 -0.2718
19681TIP3    H180534   5.038   6.706  11.380  2.0325  0.4350 -2.6763
19681TIP3    H280535   4.964   6.690  11.248 -1.9210  0.1994 -0.5057
19682TIP3   OH280536   2.848   0.268   2.670  0.4773 -0.0863  0.3812
19682TIP3    H180537   2.943   0.251   2.667  0.4277 -0.5694  1.3251
19682TIP3    H280538   2.829   0.277   2.764 -0.4963 -0.4717  0.2200
19683TIP3   OH280539   2.066   4.177  14.672 -0.1748  0.5069  0.1129
19683TIP3    H180540   2.055   4.120  14.596 -1.3550  1.0866 -0.1679
19683TIP3    H280541   2.136   4.237  14.646 -0.3938  0.5368 -0.4212
19684TIP3   OH280542   0.273   3.556   0.716 -0.0435  0.5047 -0.2617
19684TIP3    H180543   0.342   3.502   0.754  2.0707  0.6875 -3.6590
19684TIP3    H280544   0.311   3.644   0.712 -1.6966  1.2903  0.7725
19685TIP3   OH280545   5.000   2.409  14.551  0.4993  0.1067 -0.3362
19685TIP3    H180546   4.905   2.400  14.554  0.4869  0.3765  0.0461
19685TIP3    H280547   5.020   2.479  14.613  0.9959 -0.3157 -0.0172
19686TIP3   OH280548   3.512   4.230   4.332 -0.1031  0.0461 -0.3535
19686TIP3    H180549   3.452   4.232   4.257  2.7475  0.2907 -2.7005
19686TIP3    H280550   3.539   4.138   4.338  0.5447  0.2353 -0.3540
19687TIP3   OH280551   3.318   6.468   0.876 -0.4422  0.3191 -0.2533
19687TIP3    H180552   3.279   6.420   0.803 -2.7946 -0.0227  1.1655
19687TIP3    H280553   3.332   6.402   0.944 -2.1592  1.3177  1.1031
19688TIP3   OH280554   5.703   0.663  11.288  0.5361 -0.0995  0.0563
19688TIP3    H180555   5.720   0.688  11.197 -1.2887 -1.5274 -0.7128
19688TIP3    H280556   5.777   0.609  11.313  0.7321 -0.2365 -0.8013
19689TIP3   OH280557   4.573   2.666  16.706  0.3919 -0.1777 -0.0744
19689TIP3    H180558   4.522   2.596  16.665 -1.9492  1.6460 -0.4013
19689TIP3    H280559   4.536   2.675  16.794  1.5268 -0.2049  0.4074
19690TIP3   OH280560   3.756   6.355   3.397 -0.1800  0.3419  0.2419
19690TIP3    H180561   3.671   6.340   3.357  0.3043 -1.8177 -0.0292
19690TIP3    H280562   3.766   6.450   3.399 -2.2209  0.5792 -0.4841
19691TIP3   OH280563   3.019   2.313   4.113  0.8498  0.3048  0.7849
19691TIP3    H180564   2.974   2.254   4.174  0.3551  0.0779  0.2021
19691TIP3    H280565   3.111   2.303   4.135  0.9113 -1.8988 -0.3762
19692TIP3   OH280566   2.477   6.768  16.858 -0.0035 -0.5059 -0.2089
19692TIP3    H180567   2.466   6.780  16.764  0.5188  1.2835 -0.0591
19692TIP3    H280568   2.499   6.675  16.868 -1.0299 -0.9461 -1.7463
19693TIP3   OH280569   6.060   5.996  14.504 -0.1058  0.5139 -0.8164
19693TIP3    H180570   6.091   5.910  14.474 -0.8441  0.3733 -1.1841
19693TIP3    H280571   6.134   6.033  14.550  0.3422 -0.1747 -0.9737
19694TIP3   OH280572   4.526   2.261   1.214  0.1064  0.5226 -0.2861
19694TIP3    H180573   4.618   2.288   1.208  0.0420  0.3032 -3.2201
19694TIP3    H280574   4.479   2.325   1.161 -1.1982 -0.3664 -0.2182
19695TIP3   OH280575   1.937   3.582   5.059  0.0229  0.3519 -0.1942
19695TIP3    H180576   1.869   3.521   5.028  3.2614 -1.3408 -4.5411
19695TIP3    H280577   1.964   3.546   5.143 -1.4903 -1.4987 -0.4528
19696TIP3   OH280578   5.236   4.248   2.116  0.7007  0.3625 -0.1741
19696TIP3    H180579   5.270   4.336   2.131  2.1267 -0.2603  0.2668
19696TIP3    H280580   5.288   4.191   2.172 -2.3183 -0.4106  1.9854
19697TIP3   OH280581   6.735   6.236  12.491  0.0283 -0.0999 -0.0080
19697TIP3    H180582   6.709   6.309  12.546 -1.1156  1.1963 -2.1906
19697TIP3    H280583   6.817   6.265  12.450  2.1034 -1.9525  2.6140
19698TIP3   OH280584   4.850   1.378  13.422  0.3203 -0.2404 -0.0327
19698TIP3    H180585   4.834   1.397  13.330 -1.9659 -3.2441 -0.3384
19698TIP3    H280586   4.811   1.452  13.469 -0.1081  0.4238 -1.4081
19699TIP3   OH280587   3.403   4.418  12.340  0.0679 -0.1233  0.2813
19699TIP3    H180588   3.387   4.512  12.347  0.5874 -0.0338  0.2523
19699TIP3    H280589   3.434   4.405  12.251 -0.7524 -0.4332  0.0426
19700TIP3   OH280590   4.643   3.441   4.135  0.8247 -0.3962  0.3147
19700TIP3    H180591   4.560   3.481   4.109  1.6725  1.0040 -0.2756
19700TIP3    H280592   4.629   3.412   4.225  0.6448  2.5733  1.2995
19701TIP3   OH280593   1.749   0.884  15.034  0.0738  0.3048 -0.0791
19701TIP3    H180594   1.795   0.904  14.952 -0.2502  1.2334 -0.0413
19701TIP3    H280595   1.751   0.789  15.040  0.9501  0.2827 -0.6775
19702TIP3   OH280596   5.917   0.508   4.914 -0.6081  0.0803 -0.4164
19702TIP3    H180597   5.825   0.495   4.890 -0.7751  0.7875 -0.1875
19702TIP3    H280598   5.914   0.534   5.006 -0.0775 -1.2089 -0.0349
19703TIP3   OH280599   1.716   6.736   4.053  0.2916 -0.3804  0.1371
19703TIP3    H180600   1.709   6.740   4.148 -0.3813  2.6018  0.0088
19703TIP3    H280601   1.809   6.749   4.035  0.0142  2.0301  0.3094
19704TIP3   OH280602   2.071   1.303  16.264 -0.6348 -0.1746 -1.0838
19704TIP3    H180603   2.133   1.275  16.197 -3.1922 -0.7665 -3.3110
19704TIP3    H280604   2.068   1.399  16.255  0.7497 -0.0516 -0.2330
19705TIP3   OH280605   6.329   1.025  10.678  0.2987  0.0352  0.1280
19705TIP3    H180606   6.305   1.049  10.767 -3.6054 -1.6609 -0.3754
19705TIP3    H280607   6.289   1.093  10.623 -0.9036 -1.2169 -0.5638
19706TIP3   OH280608   4.809   4.226   0.598  0.6393 -0.0304 -0.7616
19706TIP3    H180609   4.767   4.212   0.513 -0.7153  0.5989 -0.2050
19706TIP3    H280610   4.894   4.183   0.589 -1.5987 -4.7975 -0.6106
19707TIP3   OH280611   0.502   0.524  12.077  0.0015 -0.3230 -0.2464
19707TIP3    H180612   0.458   0.460  12.133 -1.6688  0.0411 -1.0787
19707TIP3    H280613   0.494   0.607  12.123 -0.3967 -0.2188 -0.4969
19708TIP3   OH280614   1.692   2.698  14.444 -0.3993 -0.4346 -0.2061
19708TIP3    H180615   1.755   2.768  14.459 -1.1777  0.4159 -0.8348
19708TIP3    H280616   1.620   2.716  14.504 -0.3439 -1.0219  0.0390
19709TIP3   OH280617   6.258   0.044   0.818  0.5187  0.9632 -0.1390
19709TIP3    H180618   6.295   0.076   0.900  0.2684  2.2289 -0.5187
19709TIP3    H280619   6.276   0.113   0.755  1.1628 -0.2263 -1.2749
19710TIP3   OH280620   6.525   0.906  16.471  0.5695 -0.2197 -0.0248
19710TIP3    H180621   6.498   0.991  16.506  0.5343 -0.8921  1.6489
19710TIP3    H280622   6.445   0.869  16.433  0.6407  0.5955 -0.9750
19711TIP3   OH280623   1.354   0.945   2.423 -0.1798  0.2097 -0.3146
19711TIP3    H180624   1.376   0.853   2.440  0.2716  0.3152 -0.3197
19711TIP3    H280625   1.259   0.948   2.427 -0.1186  0.0823  1.4547
19712TIP3   OH280626   5.422   0.008   6.052 -0.0744  0.7652 -0.3007
19712TIP3    H180627   5.450  -0.019   6.140 -0.4668 -0.0166 -0.4085
19712TIP3    H280628   5.332   0.039   6.064 -0.0053  0.9886 -0.3658
19713TIP3   OH280629   2.518   1.835  16.399 -0.1851 -0.0184  0.0072
19713TIP3    H180630   2.486   1.756  16.441  1.0399 -0.6470 -0.2022
19713TIP3    H280631   2.590   1.865  16.456 -0.4795  0.8105 -0.0432
19714TIP3   OH280632   5.524   1.399   6.485 -0.5484 -0.1451  0.0351
19714TIP3    H180633   5.545   1.448   6.406  0.1233  0.7076  0.7308
19714TIP3    H280634   5.474   1.460   6.540 -1.1014 -0.7602  0.2286
19715TIP3   OH280635   0.244   1.329   3.184  0.7489 -0.1484 -0.0192
19715TIP3    H180636   0.206   1.326   3.272 -0.4922 -2.5730 -0.5778
19715TIP3    H280637   0.225   1.418   3.152 -0.3569  0.1776  1.4943
19716TIP3   OH280638   4.052   2.897  15.862  0.3279 -0.0900  0.0026
19716TIP3    H180639   4.123   2.946  15.821  0.6060 -1.1429 -0.7894
19716TIP3    H280640   4.094   2.820  15.901 -0.2773 -0.3674  0.1218
19717TIP3   OH280641   0.136   5.246  15.172 -0.2376  0.0521 -0.6798
19717TIP3    H180642   0.091   5.312  15.118 -0.5061 -0.1963 -0.7592
19717TIP3    H280643   0.170   5.296  15.246  1.4150  0.6537 -1.8118
19718TIP3   OH280644   1.222   0.660   3.330 -0.2042  0.2954  0.2004
19718TIP3    H180645   1.293   0.597   3.343 -0.8958 -0.2766  1.2754
19718TIP3    H280646   1.156   0.635   3.395 -0.9226  1.4927 -0.0634
19719TIP3   OH280647   0.116   0.896  16.496 -0.0165  0.2418 -0.4475
19719TIP3    H180648   0.068   0.832  16.443 -2.2934  2.4249 -1.1441
19719TIP3    H280649   0.098   0.872  16.586 -3.0893  1.3983 -0.6915
19720TIP3   OH280650   1.934   1.217  12.607  0.2350  0.0424 -0.2695
19720TIP3    H180651   2.020   1.238  12.571  0.0062  1.3340 -0.0802
19720TIP3    H280652   1.915   1.129  12.574  0.9113  0.4024 -1.6621
19721TIP3   OH280653   5.369   6.640   0.619  0.0964 -0.2002 -0.6302
19721TIP3    H180654   5.359   6.722   0.666 -0.4161  1.1598 -3.0239
19721TIP3    H280655   5.450   6.602   0.653  0.9681  1.8840 -0.3190
19722TIP3   OH280656   0.315   3.880   3.785  0.8069  0.2125 -0.1204
19722TIP3    H180657   0.258   3.926   3.847  2.2194 -0.2260  1.5544
19722TIP3    H280658   0.365   3.819   3.839 -1.7316 -4.1143 -2.3835
19723TIP3   OH280659   5.292   5.508  14.847 -0.0175  0.4049  0.3997
19723TIP3    H180660   5.337   5.475  14.925  2.0899 -0.7254 -1.2397
19723TIP3    H280661   5.243   5.433  14.814  0.6370  0.3485 -0.4461
19724TIP3   OH280662   3.454   1.074  15.938 -0.5520 -0.1583  0.1230
19724TIP3    H180663   3.467   1.056  16.031 -0.7472  0.6219  0.3057
19724TIP3    H280664   3.520   1.021  15.894  0.4758  0.5520  0.7948
19725TIP3   OH280665   4.207   3.777  13.472 -0.4714  0.0313  0.0247
19725TIP3    H180666   4.215   3.852  13.532  0.7741  0.1108 -0.2334
19725TIP3    H280667   4.128   3.796  13.422 -0.2530  1.1169  0.0642
19726TIP3   OH280668   1.107   5.804  16.106  0.2381 -0.6529  0.1129
19726TIP3    H180669   1.120   5.761  16.191  2.0574 -0.9571 -0.3077
19726TIP3    H280670   1.135   5.894  16.120 -0.1416 -0.5177  0.0144
19727TIP3   OH280671   3.784   3.456   1.858  0.3516 -0.0048 -0.2651
19727TIP3    H180672   3.713   3.410   1.813  1.3223 -1.5960 -0.1971
19727TIP3    H280673   3.846   3.478   1.788  1.4390 -1.6963  0.1505
19728TIP3   OH280674   6.119   4.214  11.446 -0.6401  0.4051  0.2996
19728TIP3    H180675   6.113   4.310  11.452  2.2231  0.7885 -1.8960
19728TIP3    H280676   6.051   4.190  11.384  1.1402  1.5102 -2.1815
19729TIP3   OH280677   1.692   2.023   4.553 -0.3756 -0.2263  0.1212
19729TIP3    H180678   1.757   1.997   4.488 -0.4050 -0.1382  0.0548
19729TIP3    H280679   1.639   1.944   4.568 -0.8192 -0.0526 -0.5000
19730TIP3   OH280680   2.255   1.603  14.567 -0.3556  0.3982  0.4586
19730TIP3    H180681   2.305   1.669  14.615 -0.6463  0.7493  0.2821
19730TIP3    H280682   2.314   1.527  14.562  0.5500  1.1589 -0.6236
19731TIP3   OH280683   0.069   5.597  12.333  0.3081 -0.0777  0.1334
19731TIP3    H180684   0.008   5.562  12.268  1.1675  1.4605 -1.5635
19731TIP3    H280685   0.067   5.692  12.319  2.9809  0.0183  0.0820
19732TIP3   OH280686   0.637   4.687   5.576  0.2814  0.5264  0.4224
19732TIP3    H180687   0.672   4.634   5.505  0.4183 -0.4927  1.2395
19732TIP3    H280688   0.630   4.776   5.539 -0.2090 -0.1092 -1.0362
19733TIP3   OH280689   5.983   0.521  17.222  0.1575  0.6969  0.3159
19733TIP3    H180690   6.045   0.452  17.248  1.0974  1.1761 -0.6397
19733TIP3    H280691   5.907   0.473  17.187  0.8570  0.1439 -0.4521
19734TIP3   OH280692   3.094   1.135  16.353  0.2059  0.0421  0.5388
19734TIP3    H180693   3.023   1.198  16.339  0.6273  0.1240 -1.5044
19734TIP3    H280694   3.091   1.115  16.446 -2.2740  0.3162  0.5526
19735TIP3   OH280695   0.549   0.441  13.935  0.0125  0.8642 -0.2337
19735TIP3    H180696   0.502   0.386  13.998 -2.0960 -0.0154 -2.4999
19735TIP3    H280697   0.567   0.522  13.982 -1.6007  0.2557  1.4735
19736TIP3   OH280698   6.642   1.758  11.447  0.1896 -0.1743  0.3666
19736TIP3    H180699   6.598   1.740  11.364  0.0111 -1.1517  0.6779
19736TIP3    H280700   6.579   1.809  11.497 -0.2084 -0.7204  0.4234
19737TIP3   OH280701   5.829   5.652   4.426  0.3434 -0.7860  0.0261
19737TIP3    H180702   5.823   5.612   4.513 -0.6684  0.5562  0.6079
19737TIP3    H280703   5.769   5.601   4.372 -1.1880  0.0957  0.8439
19738TIP3   OH280704   4.247   2.459  15.221 -0.0341 -0.1554 -0.2250
19738TIP3    H180705   4.279   2.494  15.305  0.0963 -1.4535  0.2855
19738TIP3    H280706   4.162   2.499  15.209 -0.7936 -1.2102  1.3799
19739TIP3   OH280707   4.324   5.993   4.659  0.0652  0.0023 -0.2149
19739TIP3    H180708   4.252   6.032   4.709 -1.9205 -1.0660 -2.1629
19739TIP3    H280709   4.300   5.900   4.651  1.3537 -0.2349 -1.4201
19740TIP3   OH280710   5.412   4.920   3.961  0.2534  0.3696  0.2678
19740TIP3    H180711   5.389   4.869   4.039  0.0267 -0.9987 -0.6565
19740TIP3    H280712   5.327   4.950   3.927  0.2417 -0.0577 -0.0998
19741TIP3   OH280713   2.235   6.415  10.873  0.1003  0.2766  0.2177
19741TIP3    H180714   2.328   6.393  10.865 -0.3093 -0.8684 -1.5728
19741TIP3    H280715   2.220   6.478  10.803 -0.8984 -0.9979 -0.7250
19742TIP3   OH280716   3.606   6.102   0.974  0.6136  0.5697 -0.0868
19742TIP3    H180717   3.598   6.071   0.884  1.1050  0.1782  0.0036
19742TIP3    H280718   3.571   6.192   0.972 -0.6061  0.1030 -0.3956
19743TIP3   OH280719   2.076   1.749  16.528  0.1349  0.6290 -0.1854
19743TIP3    H180720   2.145   1.688  16.554 -0.4680 -0.3421 -0.8171
19743TIP3    H280721   2.107   1.835  16.558  2.4496  0.4836 -2.0241
19744TIP3   OH280722   0.753   5.456  16.479 -0.0667 -0.4268 -0.1036
19744TIP3    H180723   0.767   5.515  16.553 -0.7675  0.2262 -0.4893
19744TIP3    H280724   0.666   5.478  16.447 -0.1482 -1.3636 -0.5351
19745TIP3   OH280725   0.749   5.183   3.493 -0.1573  0.0583  0.1047
19745TIP3    H180726   0.700   5.265   3.496 -0.4296  0.0404 -2.5949
19745TIP3    H280727   0.699   5.127   3.433  1.9452 -0.7641 -0.9409
19746TIP3   OH280728   6.152   1.750  17.166  0.3849  0.1496 -0.1032
19746TIP3    H180729   6.079   1.709  17.212  0.0299  0.8987  0.0094
19746TIP3    H280730   6.153   1.708  17.080 -1.3969  1.4953 -0.7976
19747TIP3   OH280731   0.382   1.493   0.313 -0.5122 -0.6787 -0.1913
19747TIP3    H180732   0.374   1.567   0.372  0.5784 -2.0118  1.6598
19747TIP3    H280733   0.438   1.524   0.242  1.1600 -0.1906  1.3260
19748TIP3   OH280734   5.122   5.294   2.394  0.4890 -0.1469 -0.1499
19748TIP3    H180735   5.107   5.353   2.469  0.3856 -1.6969  1.0683
19748TIP3    H280736   5.214   5.271   2.400  0.6757  0.3475 -0.9883
19749TIP3   OH280737   3.543   2.946  14.835  0.1408  0.1386  0.0276
19749TIP3    H180738   3.604   3.018  14.829 -0.6449  0.8695  0.6668
19749TIP3    H280739   3.460   2.987  14.860 -1.0154 -0.6180 -2.4035
19750TIP3   OH280740   6.794   1.312  15.338  0.0827 -0.4045  0.1598
19750TIP3    H180741   6.710   1.288  15.377 -0.9525  2.0969 -0.4271
19750TIP3    H280742   6.783   1.293  15.245 -0.6132  1.8197 -0.2522
19751TIP3   OH280743   3.089   3.405  13.116 -0.4753  0.0224  0.8718
19751TIP3    H180744   3.081   3.311  13.102  2.2412 -0.5255  2.7041
19751TIP3    H280745   3.079   3.417  13.210 -0.6350  1.5610  0.6790
19752TIP3   OH280746   2.414   0.688  17.090  0.1364 -0.4952 -0.0240
19752TIP3    H180747   2.413   0.756  17.022  2.1312 -0.9589 -0.5619
19752TIP3    H280748   2.375   0.612  17.047  0.8075 -0.6031 -0.4453
19753TIP3   OH280749   3.516   0.397   5.957 -0.2895  0.2939 -0.0729
19753TIP3    H180750   3.608   0.390   5.933 -0.1363 -1.8576  1.0487
19753TIP3    H280751   3.509   0.482   6.001  1.1405  0.4933 -0.2107
19754TIP3   OH280752   3.592   5.728   1.154 -0.3375 -0.4071  0.5678
19754TIP3    H180753   3.610   5.748   1.062  0.6562  0.9305  1.0453
19754TIP3    H280754   3.498   5.714   1.158 -0.3095 -1.0225 -0.7613
19755TIP3   OH280755   6.656   5.287  15.990 -0.3755 -0.7845 -0.1488
19755TIP3    H180756   6.664   5.347  15.916 -1.1775 -0.5633 -0.0637
19755TIP3    H280757   6.696   5.334  16.064 -2.1782  0.2101  0.2278
19756TIP3   OH280758   3.617   4.206  15.989 -0.4735  0.6198 -0.0847
19756TIP3    H180759   3.558   4.132  16.000  0.6280 -0.5286 -1.7091
19756TIP3    H280760   3.675   4.180  15.918  0.6975  2.5565  0.1323
19757TIP3   OH280761   5.522   4.674   2.990  0.2528 -0.5927  0.3712
19757TIP3    H180762   5.534   4.735   3.062  0.7557 -0.2465  0.0011
19757TIP3    H280763   5.582   4.602   3.009  2.2386  0.6561 -0.9526
19758TIP3   OH280764   3.512   4.901  13.206  0.1600 -0.7948 -0.0311
19758TIP3    H180765   3.528   4.982  13.255  1.4593 -0.1927 -1.4131
19758TIP3    H280766   3.417   4.902  13.191 -0.0168 -0.1679  1.0418
19759TIP3   OH280767   6.389   0.386   1.265  0.0028  0.0950 -0.1272
19759TIP3    H180768   6.434   0.396   1.181 -3.0196  0.3398 -1.7902
19759TIP3    H280769   6.370   0.475   1.293 -1.3046 -0.0343 -0.5356
19760TIP3   OH280770   6.760   5.749  11.130  0.0249 -0.4451  0.0114
19760TIP3    H180771   6.701   5.753  11.205  0.2599  0.1545  0.1713
19760TIP3    H280772   6.779   5.656  11.119 -0.8445 -0.6304  0.0351
19761TIP3   OH280773   5.698   1.900   6.083  0.1191 -0.0487 -0.0701
19761TIP3    H180774   5.740   1.960   6.145  0.1423 -0.5314  0.3861
19761TIP3    H280775   5.657   1.834   6.139 -0.5907 -0.0024 -0.5468
19762TIP3   OH280776   4.575   5.530  11.897  0.3705  0.3890  0.8962
19762TIP3    H180777   4.539   5.568  11.976 -0.3502  1.0048  0.2778
19762TIP3    H280778   4.605   5.605  11.845  0.2351  0.0311  0.2927
19763TIP3   OH280779   6.315   6.630   2.926 -0.0889  0.0485 -0.0032
19763TIP3    H180780   6.275   6.624   3.013 -1.0619 -1.1163 -0.5024
19763TIP3    H280781   6.241   6.647   2.867  0.7701  2.4624 -0.4381
19764TIP3   OH280782   4.087   3.976  14.572 -0.5513  0.4265  0.1176
19764TIP3    H180783   4.095   4.048  14.509  0.2867  0.2428  0.0053
19764TIP3    H280784   4.074   3.898  14.518  2.7852 -0.1311 -0.0087
19765TIP3   OH280785   4.959   0.219   5.620  0.0520 -0.4432  0.2730
19765TIP3    H180786   5.009   0.147   5.657  1.3242  0.1897 -0.2092
19765TIP3    H280787   4.899   0.245   5.691  1.2852 -0.3652  1.3133
19766TIP3   OH280788   4.182   3.088   3.642  0.1649 -0.2145 -0.0205
19766TIP3    H180789   4.200   3.182   3.644 -1.6505  0.1457  1.3465
19766TIP3    H280790   4.200   3.059   3.732 -0.0989 -1.0113 -0.2217
19767TIP3   OH280791   2.557   5.893  15.480 -0.8276 -0.1212  0.0567
19767TIP3    H180792   2.580   5.810  15.439 -1.7408  0.7944 -2.3693
19767TIP3    H280793   2.628   5.910  15.542  0.8734 -1.2324 -1.5667
19768TIP3   OH280794   3.519   6.083  13.359 -0.3229  0.7617  0.4475
19768TIP3    H180795   3.432   6.054  13.386  0.4195 -0.5957  1.4439
19768TIP3    H280796   3.562   6.107  13.441  1.1957 -1.2478  0.2585
19769TIP3   OH280797   3.160   6.151  13.243  0.6654  0.3045 -0.0554
19769TIP3    H180798   3.197   6.224  13.293  1.2441  1.0631 -1.5445
19769TIP3    H280799   3.120   6.094  13.309  2.4173  0.6781  1.3623
19770TIP3   OH280800   0.335   5.042   0.997 -0.0742  0.0136  0.3694
19770TIP3    H180801   0.248   5.006   0.981 -0.5768  1.5015 -0.2643
19770TIP3    H280802   0.334   5.067   1.089 -0.9839  1.8241 -0.1213
19771TIP3   OH280803   1.834   4.475  13.870  0.1739 -0.1860 -0.1256
19771TIP3    H180804   1.883   4.393  13.877 -1.8099 -1.4858 -1.0716
19771TIP3    H280805   1.895   4.536  13.829  0.9698 -1.8181 -1.4341
19772TIP3   OH280806   2.808   0.213   3.387 -0.0747 -0.1551 -0.2461
19772TIP3    H180807   2.793   0.281   3.321  1.1474 -0.6796 -1.0932
19772TIP3    H280808   2.818   0.261   3.469 -3.0721  0.4120 -0.1497
19773TIP3   OH280809   4.879   2.709  15.421  0.4564  0.1489  0.8206
19773TIP3    H180810   4.911   2.746  15.339 -1.3246  0.2124  0.1192
19773TIP3    H280811   4.843   2.784  15.468 -1.3310 -0.3281  0.2759
19774TIP3   OH280812   1.158   0.869   2.094 -0.3101  0.2849  0.0033
19774TIP3    H180813   1.227   0.894   2.155  0.8643 -0.9071 -0.7958
19774TIP3    H280814   1.162   0.936   2.025 -0.3311  0.5416  0.2523
19775TIP3   OH280815   4.756   2.757   1.216  0.0494  0.0699 -0.6618
19775TIP3    H180816   4.677   2.798   1.251  0.1189 -0.8321  0.5987
19775TIP3    H280817   4.827   2.815   1.243 -0.4124  2.6025 -4.5216
19776TIP3   OH280818   4.508   0.218   1.041 -0.1969  0.6369 -0.1107
19776TIP3    H180819   4.534   0.141   1.092  0.1059 -0.6561 -2.1549
19776TIP3    H280820   4.523   0.292   1.099 -1.6900 -0.9368  2.3694
19777TIP3   OH280821   6.223   3.965  12.573  0.0952  0.0409 -0.5142
19777TIP3    H180822   6.168   4.031  12.530 -2.1448 -1.4792 -0.0590
19777TIP3    H280823   6.295   4.015  12.611 -0.5307  1.9880 -1.8178
19778TIP3   OH280824   6.781   4.382  16.594  0.0139  0.3854  0.4923
19778TIP3    H180825   6.700   4.372  16.545 -0.3167  2.0897  0.6678
19778TIP3    H280826   6.830   4.302  16.576 -0.1824  0.8928 -2.4935
19779TIP3   OH280827   4.413   0.896   5.695 -0.1804  0.0824 -0.0301
19779TIP3    H180828   4.318   0.887   5.696 -0.1584 -0.0935  0.3967
19779TIP3    H280829   4.430   0.987   5.721 -0.1578 -0.4377  1.8332
19780TIP3   OH280830   4.392   1.499   4.056  0.5253  0.1018  0.5407
19780TIP3    H180831   4.416   1.406   4.049 -0.0292 -0.0329  0.4154
19780TIP3    H280832   4.417   1.537   3.973 -2.1618 -0.6059 -0.6558
19781TIP3   OH280833   0.905   5.738   2.103 -0.2191  0.0238 -0.5635
19781TIP3    H180834   0.988   5.744   2.149 -0.9269 -0.9302  0.8575
19781TIP3    H280835   0.924   5.685   2.025  0.5218 -0.0616 -0.3217
19782TIP3   OH280836   4.283   1.056   1.241 -0.0589 -0.1931 -0.2009
19782TIP3    H180837   4.244   1.019   1.162  0.7157  1.3122 -1.3168
19782TIP3    H280838   4.329   0.983   1.282 -0.6963 -1.0488 -0.9867
19783TIP3   OH280839   2.957   2.158   3.050  0.3168 -1.0126 -0.7220
19783TIP3    H180840   3.004   2.077   3.030 -1.2566 -2.3961  0.8541
19783TIP3    H280841   2.912   2.139   3.133 -0.6776  1.2348 -0.7001
19784TIP3   OH280842   3.999   6.769   3.209 -0.1036 -0.4010  0.0967
19784TIP3    H180843   3.957   6.854   3.197  0.8486 -0.0836 -1.0559
19784TIP3    H280844   3.939   6.706   3.168 -0.7383 -0.2905  0.8276
19785TIP3   OH280845   4.105   6.155  12.721 -0.5013  0.4912 -0.1406
19785TIP3    H180846   4.072   6.199  12.642 -0.6526  1.3507  0.4013
19785TIP3    H280847   4.175   6.099  12.689 -0.2384  1.2013 -0.8313
19786TIP3   OH280848   6.566   4.605  11.938  0.8363  0.2939 -0.1499
19786TIP3    H180849   6.553   4.675  12.003  0.0051 -0.3362  0.3758
19786TIP3    H280850   6.655   4.574  11.953  1.1433  1.1192 -0.2580
19787TIP3   OH280851   0.294   6.415  13.793 -0.1122 -0.5339 -0.2577
19787TIP3    H180852   0.264   6.384  13.879 -0.5732  0.6902  0.0316
19787TIP3    H280853   0.219   6.460  13.756  1.1927  2.1729  0.2781
19788TIP3   OH280854   2.614   2.014  13.164  0.3691  0.2972 -0.2516
19788TIP3    H180855   2.595   2.107  13.150  1.1309  0.4564 -0.2417
19788TIP3    H280856   2.528   1.973  13.173  0.0009  0.8789 -1.0374
19789TIP3   OH280857   1.447   4.319   0.572  0.4336 -0.1728  0.0155
19789TIP3    H180858   1.454   4.236   0.619  1.1762 -1.1906 -1.8266
19789TIP3    H280859   1.448   4.386   0.640 -0.1953 -1.6714  1.5377
19790TIP3   OH280860   3.625   4.550  15.305  0.0360 -0.4629 -0.0071
19790TIP3    H180861   3.642   4.461  15.336 -0.2520 -0.6695 -0.4351
19790TIP3    H280862   3.711   4.589  15.296  0.1363 -0.4885  0.7932
19791TIP3   OH280863   4.901   1.543   0.611 -0.1629 -0.2792  0.5226
19791TIP3    H180864   4.891   1.448   0.623  0.7746 -0.3440  0.8176
19791TIP3    H280865   4.889   1.579   0.699  0.0493 -0.1708  0.5055
19792TIP3   OH280866   5.395   0.403  13.006  0.1176 -0.5480 -0.6765
19792TIP3    H180867   5.446   0.471  13.051  1.5569 -1.5061 -0.8176
19792TIP3    H280868   5.320   0.449  12.969  1.3716  1.0718 -1.2491
19793TIP3   OH280869   3.935   6.629  15.699 -0.5779  0.1577  0.4436
19793TIP3    H180870   3.871   6.657  15.764  0.9716  1.1025  1.6208
19793TIP3    H280871   3.998   6.701  15.695 -0.0321 -0.3962 -1.2767
19794TIP3   OH280872   4.294   4.638   6.358  0.0135 -0.3355  0.0885
19794TIP3    H180873   4.279   4.649   6.452 -0.6567 -1.3536  0.1058
19794TIP3    H280874   4.259   4.551   6.338  1.8862 -0.9205 -0.7386
19795TIP3   OH280875   2.508   2.584   3.640 -0.1151  0.0001 -0.2072
19795TIP3    H180876   2.499   2.661   3.584 -0.5103 -0.8081 -1.2512
19795TIP3    H280877   2.584   2.537   3.606 -0.6741 -0.7714 -0.3963
19796TIP3   OH280878   0.375   0.755  12.710  0.2677  0.1811  0.1524
19796TIP3    H180879   0.352   0.678  12.763  2.4113 -0.6026 -0.0222
19796TIP3    H280880   0.320   0.825  12.745  1.6896 -0.2829  3.5382
19797TIP3   OH280881   2.720   1.826  16.200  0.2979 -0.2357 -0.7187
19797TIP3    H180882   2.647   1.808  16.260  1.8920 -0.7189  1.1109
19797TIP3    H280883   2.701   1.773  16.123 -1.2895 -0.3515 -0.2752
19798TIP3   OH280884   6.188   0.842   5.126 -0.0335 -0.5581 -1.1266
19798TIP3    H180885   6.136   0.763   5.142  2.3880 -1.7052  1.4358
19798TIP3    H280886   6.161   0.904   5.194  0.4296 -0.3959 -1.0831
19799TIP3   OH280887   2.643   3.330  17.166 -0.0275 -0.1892  0.6766
19799TIP3    H180888   2.721   3.317  17.219 -0.2041 -2.0878  0.5092
19799TIP3    H280889   2.576   3.361  17.228 -0.0016 -1.5911  1.4000
19800TIP3   OH280890   0.717   3.148   2.405  0.3774 -0.4403  0.2887
19800TIP3    H180891   0.769   3.133   2.484 -0.2423 -1.0911  0.5788
19800TIP3    H280892   0.730   3.241   2.385  2.8631 -0.9201 -0.5218
19801TIP3   OH280893   0.132   1.914   3.852 -0.1353  0.1428  0.4090
19801TIP3    H180894   0.097   1.961   3.777 -1.6653 -1.2279  0.2425
19801TIP3    H280895   0.174   1.982   3.906  0.1260  1.2675 -1.1806
19802TIP3   OH280896   4.715   2.125  15.444  0.2318 -0.3240 -0.1314
19802TIP3    H180897   4.767   2.156  15.370 -0.3412 -0.2799 -0.5175
19802TIP3    H280898   4.758   2.162  15.521 -0.0534  0.8836 -0.5439
19803TIP3   OH280899   1.358   3.176  13.803  0.1254 -0.2933  0.8569
19803TIP3    H180900   1.313   3.103  13.844  2.0786 -1.1546  1.5245
19803TIP3    H280901   1.434   3.136  13.761  0.9073  1.2783  0.7571
19804TIP3   OH280902   2.951   5.823   6.000 -0.2628 -0.1946 -0.4878
19804TIP3    H180903   2.991   5.830   6.087 -1.1347  1.8209 -0.2242
19804TIP3    H280904   3.025   5.815   5.940  0.3315 -2.5039  0.4746
19805TIP3   OH280905   6.012   0.893  12.261  0.3166  0.0385 -0.2315
19805TIP3    H180906   6.079   0.961  12.270  0.0477  0.1509  1.0728
19805TIP3    H280907   5.932   0.940  12.240 -0.1630  0.2800  2.0109
19806TIP3   OH280908   5.175   1.980   4.922 -0.8362  0.0312 -0.0301
19806TIP3    H180909   5.140   2.045   4.861 -0.1140  1.4167  0.9978
19806TIP3    H280910   5.098   1.941   4.963 -1.2451  1.4331  0.5590
19807TIP3   OH280911   1.223   6.058  16.658  0.4653 -0.9302  0.3548
19807TIP3    H180912   1.225   5.963  16.662  0.1931 -0.8833  1.7023
19807TIP3    H280913   1.292   6.086  16.718  0.7491 -0.2826 -0.2686
19808TIP3   OH280914   0.000   1.872  15.920  0.1443 -0.1832 -0.3667
19808TIP3    H180915  -0.066   1.844  15.983 -1.2786 -0.6739 -2.0519
19808TIP3    H280916   0.065   1.801  15.922 -0.0613 -0.3606  0.2710
19809TIP3   OH280917   5.443   5.520   0.759  0.5640  0.1958  0.1728
19809TIP3    H180918   5.503   5.460   0.804  0.6109 -0.2342 -0.4611
19809TIP3    H280919   5.491   5.550   0.682 -0.0368 -0.1576 -0.3445
19810TIP3   OH280920   6.158   6.158   1.111  0.4401  0.1418 -0.0053
19810TIP3    H180921   6.167   6.206   1.028 -0.0119  3.2356  1.6662
19810TIP3    H280922   6.232   6.098   1.112  0.0689 -0.4474 -2.9515
19811TIP3   OH280923   0.703   3.249  14.712 -0.3155 -0.0204 -0.2072
19811TIP3    H180924   0.649   3.207  14.646  0.7573  0.8209 -1.6654
19811TIP3    H280925   0.780   3.193  14.719 -0.7759 -0.5247  0.9149
19812TIP3   OH280926   2.632   0.643   2.723 -0.2864  0.0261 -0.0776
19812TIP3    H180927   2.633   0.642   2.627  1.6805 -0.3991 -0.0696
19812TIP3    H280928   2.575   0.716   2.746  1.9152  2.3103 -1.6128
19813TIP3   OH280929   2.861   0.293  12.680 -0.5577  0.0562  0.3777
19813TIP3    H180930   2.882   0.214  12.631 -1.4652  0.8476 -1.3067
19813TIP3    H280931   2.915   0.287  12.759 -0.2391 -1.9818  0.0264
19814TIP3   OH280932   4.461   5.253  12.085 -0.0497  0.3612  0.8091
19814TIP3    H180933   4.415   5.325  12.129  0.3669  2.5796 -2.2229
19814TIP3    H280934   4.547   5.250  12.128 -1.2896 -0.6726  3.2997
19815TIP3   OH280935   6.638   1.680  14.213  0.0751  0.6620 -0.3278
19815TIP3    H180936   6.553   1.723  14.220  0.0189  0.7510 -1.6011
19815TIP3    H280937   6.663   1.690  14.122  1.1097 -0.0236 -0.1234
19816TIP3   OH280938   1.690   2.953  13.346 -0.6256 -0.3022  0.1831
19816TIP3    H180939   1.612   2.935  13.398 -0.3805 -2.1198 -0.0516
19816TIP3    H280940   1.661   3.016  13.280 -1.9009 -0.9497  0.1067
19817TIP3   OH280941   0.784   1.057  15.389 -0.3424 -0.1789 -0.1466
19817TIP3    H180942   0.857   1.007  15.426 -0.3906 -0.9698 -1.1034
19817TIP3    H280943   0.731   1.081  15.465  2.6827  3.4216  1.0145
19818TIP3   OH280944   2.394   5.007  15.247  0.0893 -0.0689 -0.2580
19818TIP3    H180945   2.486   4.983  15.261  0.2643  0.7472  0.0473
19818TIP3    H280946   2.380   5.081  15.306 -1.0595 -0.8404  0.4485
19819TIP3   OH280947   5.559   5.101   2.405 -0.1767 -0.0131 -0.4108
19819TIP3    H180948   5.581   5.192   2.384 -0.8699  0.2256 -0.1461
19819TIP3    H280949   5.544   5.060   2.320 -0.6330  0.3287 -0.5010
19820TIP3   OH280950   2.356   5.691  15.107 -0.1147 -0.0501 -0.4241
19820TIP3    H180951   2.405   5.771  15.126 -1.9297  1.0583 -0.2315
19820TIP3    H280952   2.270   5.706  15.148 -1.1433 -1.2722 -2.0658
19821TIP3   OH280953   1.248   4.979   4.573 -0.1059 -0.2444 -0.3272
19821TIP3    H180954   1.344   4.974   4.580 -0.2399 -0.2624  1.7665
19821TIP3    H280955   1.218   4.892   4.598 -0.6730 -0.2936 -1.1638
19822TIP3   OH280956   4.800   5.820  16.596  0.3536 -1.1060  0.1889
19822TIP3    H180957   4.771   5.865  16.517  1.5352  0.4561  0.6187
19822TIP3    H280958   4.876   5.769  16.568  1.9055  0.8967  0.6837
19823TIP3   OH280959   0.233   5.882  11.213 -0.6486  0.3997  0.0631
19823TIP3    H180960   0.272   5.899  11.128 -2.1912  1.6887 -0.4026
19823TIP3    H280961   0.176   5.957  11.230 -0.6264  0.0106  2.0798
19824TIP3   OH280962   5.486   1.476  15.884 -0.2731  0.2287 -0.1702
19824TIP3    H180963   5.440   1.491  15.966 -0.1296  0.3169 -0.1073
19824TIP3    H280964   5.468   1.554  15.831 -1.2465 -0.2987 -0.6271
19825TIP3   OH280965   6.682   1.775  16.148  0.0242  0.6933 -0.1259
19825TIP3    H180966   6.672   1.839  16.218 -1.1624  0.9876 -0.5569
19825TIP3    H280967   6.706   1.694  16.193 -0.8067  0.8600  0.6333
19826TIP3   OH280968   3.727   3.188   5.788 -0.2937 -0.0416 -0.5730
19826TIP3    H180969   3.665   3.151   5.851  0.7201  0.9550  1.0260
19826TIP3    H280970   3.802   3.129   5.792  0.3604  0.8345  0.2397
19827TIP3   OH280971   0.399   4.801  16.200 -0.0103 -0.3875  0.0829
19827TIP3    H180972   0.380   4.894  16.187 -0.5042 -0.7182 -1.7212
19827TIP3    H280973   0.494   4.798  16.212 -0.0259  0.3729  0.4220
19828TIP3   OH280974   3.109   1.104  13.687  0.1256  0.6587 -0.2625
19828TIP3    H180975   3.084   1.139  13.602 -0.6824 -1.0238 -0.7268
19828TIP3    H280976   3.066   1.019  13.692 -0.0297  0.8285  1.9186
19829TIP3   OH280977   5.960   0.186  14.280  0.2897 -0.1306  0.9924
19829TIP3    H180978   5.964   0.112  14.219 -0.1171  0.8598 -0.2653
19829TIP3    H280979   5.886   0.238  14.249  0.1804  0.4775  2.2482
19830TIP3   OH280980   3.076   6.650  15.335 -0.2733 -0.1718 -0.3893
19830TIP3    H180981   3.133   6.726  15.322 -1.6324  0.9223  0.0292
19830TIP3    H280982   3.040   6.661  15.423 -1.1712 -0.8381 -0.6631
19831TIP3   OH280983   2.383   2.968  10.663  0.2441 -0.4073  0.5800
19831TIP3    H180984   2.371   3.015  10.581 -1.0137 -0.8907  0.4769
19831TIP3    H280985   2.369   3.034  10.731 -1.8548 -0.6811  0.4409
19832TIP3   OH280986   3.293   4.705  10.922  0.2914  0.1286 -0.4163
19832TIP3    H180987   3.237   4.778  10.949  0.5521  0.4626 -0.7606
19832TIP3    H280988   3.233   4.636  10.894  0.0477  0.4463 -0.6795
19833TIP3   OH280989   4.348   5.129  12.636 -0.0417 -1.1177 -0.1209
19833TIP3    H180990   4.293   5.196  12.679 -0.1010 -0.8697 -0.5824
19833TIP3    H280991   4.332   5.050  12.687  0.4453 -0.6530  0.7680
19834TIP3   OH280992   3.684   6.736   0.775  1.4337 -0.6402 -0.0734
19834TIP3    H180993   3.636   6.664   0.735 -0.3657 -0.3184  1.4283
19834TIP3    H280994   3.692   6.712   0.867 -0.9757  1.9183  0.8915
19835TIP3   OH280995   1.189   4.699  15.520  0.1677 -0.8563 -0.0677
19835TIP3    H180996   1.164   4.616  15.479  2.4613 -0.9359 -1.4128
19835TIP3    H280997   1.107   4.748  15.526 -0.6562 -1.8071 -2.6126
19836TIP3   OH280998   0.645   6.670   1.543 -0.6150  0.4758  0.3555
19836TIP3    H180999   0.723   6.720   1.566 -0.5465  0.5738 -0.0769
19836TIP3    H281000   0.613   6.635   1.626 -0.1041  0.4234  0.5332
19837TIP3   OH281001   5.259   1.784   2.773  0.1226  0.7216 -0.3662
19837TIP3    H181002   5.195   1.716   2.794 -0.5886  1.1597 -1.1107
19837TIP3    H281003   5.283   1.768   2.682 -1.7372  2.7991 -1.2720
19838TIP3   OH281004   1.809   2.412   4.759 -0.2359 -0.0337 -0.1932
19838TIP3    H181005   1.896   2.412   4.799 -0.2696 -0.9584 -0.0976
19838TIP3    H281006   1.823   2.377   4.671 -0.5685 -0.5462 -0.0421
19839TIP3   OH281007   4.548   6.499  13.183 -0.3127 -0.1463 -0.4231
19839TIP3    H181008   4.533   6.524  13.274 -1.2185 -1.0714 -0.3104
19839TIP3    H281009   4.480   6.435  13.164  1.1847 -1.5823 -1.0772
19840TIP3   OH281010   4.440   3.354  15.474 -0.5001  0.0314 -0.2394
19840TIP3    H181011   4.453   3.366  15.380  0.7377 -0.3030 -0.1099
19840TIP3    H281012   4.516   3.305  15.503 -0.8041  0.2644  0.9760
19841TIP3   OH281013   5.829   5.591   0.265  0.5067  0.0132 -0.0307
19841TIP3    H181014   5.861   5.502   0.250  1.9509  0.4148  0.6195
19841TIP3    H281015   5.896   5.632   0.319 -0.1887  1.4806 -0.2602
19842TIP3   OH281016   2.702   3.975   1.833 -0.2586  0.3936  0.3777
19842TIP3    H181017   2.753   4.020   1.765  0.8300  0.3532  1.1515
19842TIP3    H281018   2.681   4.044   1.896 -0.6416  0.2863  0.3691
19843TIP3   OH281019   1.747   3.487  14.830 -0.1603 -0.2211  0.0246
19843TIP3    H181020   1.750   3.551  14.901  1.8853  0.7892 -0.9236
19843TIP3    H281021   1.726   3.538  14.752  1.5106 -0.6481 -0.7420
19844TIP3   OH281022   0.328   1.680   4.801  0.2958 -0.7355  0.1489
19844TIP3    H181023   0.364   1.594   4.781  0.4779 -0.7041  0.3317
19844TIP3    H281024   0.277   1.704   4.724 -0.4022 -1.3422  0.4159
19845TIP3   OH281025   1.928   4.541  16.614 -0.4284 -0.4517  0.2790
19845TIP3    H181026   1.989   4.604  16.576 -0.6159 -0.7840 -0.5940
19845TIP3    H281027   1.982   4.486  16.671 -0.2300  0.3656  0.8817
19846TIP3   OH281028   6.588   1.781   3.296 -0.4662 -0.7822 -0.3216
19846TIP3    H181029   6.603   1.875   3.290  0.7788 -0.9260  0.3139
19846TIP3    H281030   6.575   1.753   3.205  0.7846 -0.2446 -0.6761
19847TIP3   OH281031   6.508   6.775   4.416  0.6419  0.4919  0.6283
19847TIP3    H181032   6.443   6.778   4.345  0.9208  0.6282  0.3823
19847TIP3    H281033   6.482   6.698   4.467  1.6097 -0.7650 -0.7420
19848TIP3   OH281034   1.088   2.571   2.729  0.2283  0.1978 -0.0080
19848TIP3    H181035   0.993   2.576   2.726  0.2039  1.3400  1.7766
19848TIP3    H281036   1.108   2.482   2.701 -1.2346  0.6196 -2.4758
19849TIP3   OH281037   1.390   3.798   1.683  0.0411  0.0590 -0.2227
19849TIP3    H181038   1.305   3.764   1.708 -1.0661  3.2081  0.5103
19849TIP3    H281039   1.372   3.885   1.647  2.9707  0.9309  0.2723
19850TIP3   OH281040   3.556   2.455   3.699  0.4529  0.1418 -0.3160
19850TIP3    H181041   3.613   2.532   3.698  1.3248 -0.4701  0.4179
19850TIP3    H281042   3.608   2.388   3.654 -0.6878  0.2376 -1.8084
19851TIP3   OH281043   2.241   0.207  16.061  0.0026  0.0721  0.1363
19851TIP3    H181044   2.326   0.205  16.105  0.6085 -3.0873 -1.0021
19851TIP3    H281045   2.214   0.115  16.057 -3.0443  0.9191 -0.3752
19852TIP3   OH281046   2.687   4.463   5.095  0.1481 -0.0274 -0.0166
19852TIP3    H181047   2.649   4.441   5.010  0.4563  0.2983 -0.2379
19852TIP3    H281048   2.740   4.386   5.118  1.0635  0.3841 -0.6995
19853TIP3   OH281049   5.048   4.320   1.813 -0.4386 -0.9764  0.2346
19853TIP3    H181050   4.996   4.384   1.862  0.4506  0.3846 -0.5800
19853TIP3    H281051   5.104   4.373   1.756  0.8974 -2.4569  0.1377
19854TIP3   OH281052   5.781   1.547   4.951  0.1917 -0.0691 -0.4174
19854TIP3    H181053   5.767   1.483   4.882 -0.2081 -1.7852  1.2142
19854TIP3    H281054   5.697   1.551   4.998  0.1485  1.7890 -0.6128
19855TIP3   OH281055   0.843   4.612   1.211  0.0939  0.0246 -0.0093
19855TIP3    H181056   0.921   4.589   1.262 -0.2198 -0.7495  0.1242
19855TIP3    H281057   0.835   4.542   1.146 -0.1612  0.4040 -0.3882
19856TIP3   OH281058   6.432   3.733   6.173 -0.2948  0.9779 -0.0100
19856TIP3    H181059   6.458   3.809   6.225  1.1117 -1.7722  3.5935
19856TIP3    H281060   6.509   3.676   6.174 -2.2659 -1.7955  0.0658
19857TIP3   OH281061   6.595   2.566  16.511  0.5024  0.5452 -0.3910
19857TIP3    H181062   6.686   2.596  16.510  0.0312  1.9970 -0.8823
19857TIP3    H281063   6.565   2.579  16.421 -0.4675  0.9139 -0.0109
19858TIP3   OH281064   5.523   2.604  15.892 -0.3572  0.1202  0.0911
19858TIP3    H181065   5.489   2.614  15.981  0.7182 -1.3667  0.6803
19858TIP3    H281066   5.444   2.593  15.838 -0.9083 -1.8845  1.2578
19859TIP3   OH281067   6.607   4.956   0.888 -0.6118 -0.0839 -0.0952
19859TIP3    H181068   6.542   4.894   0.855  0.4658 -0.9778 -0.5327
19859TIP3    H281069   6.566   4.994   0.966 -1.6416 -0.6729 -0.3433
19860TIP3   OH281070   1.022   3.844   3.859 -0.1494  0.4099  0.3615
19860TIP3    H181071   1.100   3.892   3.885 -0.3863  0.8624  0.2507
19860TIP3    H281072   1.038   3.754   3.887  1.4732 -0.0468 -1.8883
19861TIP3   OH281073   4.194   0.025   1.206  0.3648 -0.1596 -0.3042
19861TIP3    H181074   4.115  -0.001   1.255 -0.8217  1.0386 -1.5309
19861TIP3    H281075   4.193  -0.030   1.128 -0.6201  1.5033 -1.5162
19862TIP3   OH281076   0.581   1.403  11.794 -0.6278 -0.0143 -0.9985
19862TIP3    H181077   0.578   1.314  11.828  0.1384  0.0043 -0.8945
19862TIP3    H281078   0.547   1.457  11.865  0.2192 -0.0661 -0.5502
19863TIP3   OH281079   3.315   0.537  17.112  0.0572  0.4594  0.2962
19863TIP3    H181080   3.274   0.504  17.032 -0.6731  1.7488  0.1193
19863TIP3    H281081   3.402   0.566  17.084  0.0805  0.2220  0.1194
19864TIP3   OH281082   4.481   2.921   5.086 -0.2368 -0.0264  0.2453
19864TIP3    H181083   4.460   2.927   5.179 -0.6102  1.6930  0.0771
19864TIP3    H281084   4.518   3.007   5.065 -3.6196  0.9587 -2.0158
19865TIP3   OH281085   0.179   5.225   1.398 -0.4334  0.7192  0.2333
19865TIP3    H181086   0.107   5.251   1.456  0.3442  1.2557  0.9675
19865TIP3    H281087   0.140   5.157   1.342 -1.2516  0.3149  1.2596
19866TIP3   OH281088   5.604   6.387   4.217 -1.2397 -0.8452 -0.1299
19866TIP3    H181089   5.639   6.317   4.273  1.3056 -0.1878 -0.8369
19866TIP3    H281090   5.681   6.423   4.173 -2.9132  0.2223 -2.2744
19867TIP3   OH281091   0.476   5.569   4.144 -0.1556  0.2715  0.2667
19867TIP3    H181092   0.523   5.534   4.220  0.2179  2.0381  0.8685
19867TIP3    H281093   0.492   5.663   4.147 -0.2783  0.3867 -1.9217
19868TIP3   OH281094   5.435   3.604   3.807  0.0835 -0.2107  0.1500
19868TIP3    H181095   5.440   3.558   3.891  0.1556 -0.3123  0.0901
19868TIP3    H281096   5.522   3.642   3.795 -0.2776  0.7873  0.6764
19869TIP3   OH281097   3.875   1.064   1.979 -0.5212 -0.1790  0.8784
19869TIP3    H181098   3.863   1.096   2.068 -0.5346 -2.8853  1.9060
19869TIP3    H281099   3.969   1.074   1.962 -0.5134  0.2986  1.2002
19870TIP3   OH281100   4.983   1.665  16.811  0.1518 -0.5596  0.3748
19870TIP3    H181101   5.036   1.734  16.771 -0.9721  0.2247  0.2112
19870TIP3    H281102   4.963   1.699  16.899 -1.0209 -0.3404  0.0254
19871TIP3   OH281103   1.071   0.130   3.844  0.1228  0.0565  0.0494
19871TIP3    H181104   1.041   0.084   3.765 -2.5135 -0.6314  1.3850
19871TIP3    H281105   1.147   0.081   3.874  0.3669 -0.4383 -1.3481
19872TIP3   OH281106   2.769   2.436  13.133  0.4096 -0.2739 -0.1715
19872TIP3    H181107   2.799   2.455  13.221 -0.2999  0.1224 -0.0064
19872TIP3    H281108   2.679   2.405  13.145 -0.1864  1.1642 -0.8649
19873TIP3   OH281109   1.816   5.556  14.968  0.0000 -0.4736  0.3306
19873TIP3    H181110   1.854   5.479  15.008  0.5759  0.6276  1.9402
19873TIP3    H281111   1.759   5.522  14.899 -0.5130 -2.3677  1.6686
19874TIP3   OH281112   2.612   1.525  11.167 -0.2044 -0.1432 -0.2153
19874TIP3    H181113   2.573   1.446  11.203 -1.2969  0.0990 -0.8573
19874TIP3    H281114   2.557   1.548  11.093  1.2039  0.1612 -1.2040
19875TIP3   OH281115   4.659   2.289  10.727 -0.0324 -0.8425 -0.3697
19875TIP3    H181116   4.603   2.333  10.791 -0.1917 -1.9407  0.2534
19875TIP3    H281117   4.604   2.279  10.649  0.2927  0.8697 -0.8331
19876TIP3   OH281118   2.840   6.125   4.125 -0.4162 -0.5453  0.4357
19876TIP3    H181119   2.915   6.133   4.185  1.2144 -0.5651 -1.5202
19876TIP3    H281120   2.805   6.038   4.141  1.4596 -1.4535 -0.2238
19877TIP3   OH281121   1.277   0.847   0.456 -0.1764  0.1433 -0.2423
19877TIP3    H181122   1.356   0.825   0.406 -0.7861 -2.4652 -0.1551
19877TIP3    H281123   1.205   0.811   0.404 -1.3362  2.4468 -0.2942
19878TIP3   OH281124   6.746   1.430   5.418  0.0622 -0.1942  0.1790
19878TIP3    H181125   6.763   1.513   5.464  1.7294 -1.5721  2.2076
19878TIP3    H281126   6.684   1.384   5.474  1.4226 -1.5274  0.6383
19879TIP3   OH281127   2.542   3.300   2.815 -0.0180  0.0153  0.2687
19879TIP3    H181128   2.468   3.341   2.771 -0.2218  0.1380  0.7179
19879TIP3    H281129   2.523   3.310   2.908  0.3216 -0.3972  0.3853
19880TIP3   OH281130   6.333   3.232   0.297  0.0317  0.2366  0.3818
19880TIP3    H181131   6.329   3.325   0.322 -0.7295  0.2787  0.1134
19880TIP3    H281132   6.293   3.186   0.371 -2.6371  0.3948 -0.8940
19881TIP3   OH281133   2.829   0.984  12.595  0.0548 -0.4908  0.1093
19881TIP3    H181134   2.805   0.966  12.504 -0.0157  0.1272  0.0066
19881TIP3    H281135   2.747   1.011  12.636  0.4014  0.8175 -0.0383
19882TIP3   OH281136   2.562   4.749  13.462  0.6400 -0.0503 -0.7273
19882TIP3    H181137   2.495   4.783  13.402  0.6242 -0.7722 -1.1240
19882TIP3    H281138   2.519   4.678  13.508  0.7853  0.2346 -0.1496
19883TIP3   OH281139   3.400   1.319  14.471  0.0695 -0.1908 -0.2215
19883TIP3    H181140   3.455   1.257  14.424  1.2117  0.6323  0.0065
19883TIP3    H281141   3.413   1.402  14.425 -1.8010 -0.2085 -0.8064
19884TIP3   OH281142   1.770   3.988   5.294  0.4109 -0.9718 -0.0392
19884TIP3    H181143   1.757   3.940   5.376  0.3145  0.2576  0.6769
19884TIP3    H281144   1.865   3.989   5.281  0.3540 -2.1766 -0.5562
19885TIP3   OH281145   5.236   0.758  14.433  0.4725 -0.0926  0.4796
19885TIP3    H181146   5.259   0.700  14.505 -0.0318 -1.3974 -0.3857
19885TIP3    H281147   5.311   0.816  14.423  0.3619  0.3838  2.3288
19886TIP3   OH281148   5.730   2.623  11.509 -0.4506 -0.0821  0.1981
19886TIP3    H181149   5.734   2.528  11.515  0.8803 -0.0464  0.0870
19886TIP3    H281150   5.800   2.654  11.566 -1.8871  0.9008  1.4792
19887TIP3   OH281151   3.054   1.591   5.366  0.0316  0.2699 -0.4500
19887TIP3    H181152   3.043   1.510   5.416 -0.0453  0.1889 -0.5976
19887TIP3    H281153   3.017   1.659   5.423 -1.0177  0.0310 -0.8332
19888TIP3   OH281154   0.505   4.828   1.458  0.0062 -0.4087 -0.1593
19888TIP3    H181155   0.410   4.835   1.463  0.2011  2.4226  0.9876
19888TIP3    H281156   0.522   4.774   1.381 -2.4875  1.0398 -1.7868
19889TIP3   OH281157   3.276   0.216  16.512  0.0272 -0.1768 -0.1589
19889TIP3    H181158   3.232   0.135  16.486  1.2784 -1.3071  1.2068
19889TIP3    H281159   3.326   0.193  16.589  0.6124  1.8557  0.0991
19890TIP3   OH281160   2.841   4.482   3.374  0.0676  0.0185  0.5174
19890TIP3    H181161   2.771   4.492   3.439  1.3155  2.8830  1.5155
19890TIP3    H281162   2.920   4.471   3.427  0.7857 -0.0490 -0.5641
19891TIP3   OH281163   6.280   6.572  17.201 -0.1037 -0.2081  0.0790
19891TIP3    H181164   6.328   6.512  17.144 -0.4508  0.8869 -1.3967
19891TIP3    H281165   6.347   6.617  17.251  0.3124 -0.0125 -0.6398
19892TIP3   OH281166   6.411   5.865   5.002 -0.3217  0.4053 -0.2630
19892TIP3    H181167   6.398   5.857   4.907  0.3208 -0.9469 -0.2428
19892TIP3    H281168   6.455   5.784   5.028 -0.9737  0.5262  1.2856
19893TIP3   OH281169   1.734   5.743   0.376 -0.0519 -0.6296 -0.1453
19893TIP3    H181170   1.812   5.795   0.358  0.2757 -0.5481  1.3668
19893TIP3    H281171   1.760   5.686   0.449 -0.6155 -2.4211 -1.3217
19894TIP3   OH281172   1.134   1.863  10.925  0.3752 -0.0220 -0.4757
19894TIP3    H181173   1.144   1.839  10.833  0.3437  0.4678 -0.6125
19894TIP3    H281174   1.139   1.959  10.925 -0.4357  0.0260 -0.0652
19895TIP3   OH281175   1.917   4.779  13.333  0.2882 -0.5394 -0.0569
19895TIP3    H181176   1.876   4.753  13.416  0.2322  0.3070  0.1950
19895TIP3    H281177   1.971   4.855  13.356 -1.7449  1.3590 -1.2183
19896TIP3   OH281178   2.863   6.037  14.456 -0.2097  0.1617 -0.3489
19896TIP3    H181179   2.868   5.992  14.540  1.5847 -0.8714 -0.9844
19896TIP3    H281180   2.944   6.087  14.450 -1.0697  1.5295 -0.7522
19897TIP3   OH281181   5.623   6.325   4.544 -0.0610 -0.2201  0.6040
19897TIP3    H181182   5.576   6.258   4.494  0.0287  1.1434 -1.3665
19897TIP3    H281183   5.714   6.316   4.516  0.2223 -0.2796  1.5146
19898TIP3   OH281184   5.536   2.303  13.848 -0.2890  0.3759 -0.1034
19898TIP3    H181185   5.458   2.292  13.795 -0.4007 -1.8709  0.5036
19898TIP3    H281186   5.519   2.253  13.928  0.9097  1.6105  0.9521
19899TIP3   OH281187   5.112   2.662   1.308  1.0418  0.0428  0.3691
19899TIP3    H181188   5.204   2.656   1.283  1.0395 -1.5941  0.7588
19899TIP3    H281189   5.081   2.572   1.311 -1.6924  0.6956 -3.8703
19900TIP3   OH281190   3.181   1.958  16.473 -0.4754  0.3814  0.5774
19900TIP3    H181191   3.128   1.965  16.394  0.2834 -1.3276 -0.0847
19900TIP3    H281192   3.125   1.994  16.542 -1.3370  1.3882 -0.6292
19901TIP3   OH281193   1.463   6.796  15.314 -0.0405 -0.6675 -0.1437
19901TIP3    H181194   1.431   6.775  15.226 -2.0835 -0.6461  0.5747
19901TIP3    H281195   1.538   6.854  15.299 -0.6824 -0.2564 -1.8499
19902TIP3   OH281196   1.304   6.325   3.031  0.3678 -0.4563 -0.4033
19902TIP3    H181197   1.224   6.288   3.068  0.7612 -1.2307 -0.3038
19902TIP3    H281198   1.350   6.363   3.106  0.5643 -0.9032 -0.2931
19903TIP3   OH281199   5.060   5.200   5.944  0.0580 -0.2285 -0.3084
19903TIP3    H181200   5.089   5.111   5.922 -0.1249  0.3823 -3.1697
19903TIP3    H281201   5.136   5.255   5.924 -1.3096  0.7736 -2.9853
19904TIP3   OH281202   3.273   3.302  16.132 -0.0110 -0.0690  0.1841
19904TIP3    H181203   3.226   3.280  16.213 -0.6202 -1.1058 -0.4434
19904TIP3    H281204   3.341   3.234  16.125  0.2168  0.1829 -0.0357
19905TIP3   OH281205   4.253   5.141  10.904 -0.8030  0.0340  0.1363
19905TIP3    H181206   4.319   5.177  10.844  0.3795 -0.2273  1.2598
19905TIP3    H281207   4.187   5.103  10.846 -0.7967  1.7479 -1.0277
19906TIP3   OH281208   2.452   4.130   3.308 -0.2301  0.1647  0.1925
19906TIP3    H181209   2.461   4.161   3.218 -0.7357 -2.9995 -1.0027
19906TIP3    H281210   2.541   4.131   3.344  0.0108  1.1679 -0.4277
19907TIP3   OH281211   3.120   6.634   1.719  0.3538  0.0941  0.4928
19907TIP3    H181212   3.113   6.716   1.769  1.6523 -0.3829  1.4893
19907TIP3    H281213   3.116   6.565   1.785 -0.5082 -0.6564 -0.3232
19908TIP3   OH281214   2.309   4.870   0.959  0.7075 -0.6386 -0.0508
19908TIP3    H181215   2.299   4.798   1.022 -0.5970 -1.1570 -0.8188
19908TIP3    H281216   2.287   4.830   0.874 -1.3227  0.9782 -0.3100
19909TIP3   OH281217   1.180   3.263   4.382 -0.1559 -0.0773 -0.0812
19909TIP3    H181218   1.123   3.266   4.306  1.6578 -0.6378 -1.5103
19909TIP3    H281219   1.182   3.170   4.407  0.5524 -0.1428 -0.3739
19910TIP3   OH281220   5.501   6.509   1.330  0.1336 -0.6324 -0.2885
19910TIP3    H181221   5.486   6.543   1.242  3.2490 -0.2389 -0.7253
19910TIP3    H281222   5.547   6.426   1.316 -0.8567 -1.4031  0.9357
19911TIP3   OH281223   4.019   5.943  16.805  0.0745 -0.3744  0.0672
19911TIP3    H181224   4.031   5.954  16.711 -0.7862  2.6634  0.2814
19911TIP3    H281225   4.107   5.929  16.839  1.0493  3.6287 -0.5958
19912TIP3   OH281226   3.504   1.756  10.746  0.0771 -0.4740  0.3493
19912TIP3    H181227   3.509   1.677  10.800 -0.7118  0.5128  1.8910
19912TIP3    H281228   3.595   1.780  10.730  0.3158 -0.9267  1.0213
19913TIP3   OH281229   0.544   1.282  17.085  0.0929  0.2431 -0.0592
19913TIP3    H181230   0.577   1.316  17.002 -0.0059  0.3259 -0.0636
19913TIP3    H281231   0.517   1.192  17.065  1.3411 -0.2069  0.2015
19914TIP3   OH281232   4.103   6.583  12.909  0.1145 -0.2140  0.2904
19914TIP3    H181233   4.063   6.661  12.870 -0.4443 -0.6975 -0.1258
19914TIP3    H281234   4.166   6.553  12.844 -0.1449 -0.4819  0.1584
19915TIP3   OH281235   5.615   1.299  16.311  0.2002  0.0651 -0.5069
19915TIP3    H181236   5.565   1.250  16.375  3.5149 -1.3720  1.1139
19915TIP3    H281237   5.565   1.379  16.296 -2.5028 -1.2990  1.0042
19916TIP3   OH281238   4.581   4.841  11.016  0.6148 -0.1801  0.3874
19916TIP3    H181239   4.674   4.862  11.012  0.5828  0.1595  1.2915
19916TIP3    H281240   4.576   4.770  11.080  0.2206 -0.0450  0.5046
19917TIP3   OH281241   3.438   0.098  14.993 -0.3429  0.0507  0.5846
19917TIP3    H181242   3.424   0.138  14.907  0.3555 -0.4891  0.2137
19917TIP3    H281243   3.384   0.150  15.052  0.0004  1.1035 -0.0080
19918TIP3   OH281244   6.056   1.200   4.694 -0.0217  0.2642 -0.4866
19918TIP3    H181245   6.054   1.143   4.771 -0.2039 -1.3153 -1.6356
19918TIP3    H281246   6.128   1.261   4.711 -0.7496  0.6317  1.4044
19919TIP3   OH281247   1.748   1.250   3.945  0.2868 -0.0351  0.7345
19919TIP3    H181248   1.723   1.292   4.028 -1.3056  1.0596 -0.2762
19919TIP3    H281249   1.702   1.167   3.946 -0.8678  0.5864  0.3334
19920TIP3   OH281250   0.093   0.672   2.522  0.3236 -0.1829 -0.4494
19920TIP3    H181251   0.142   0.596   2.490  0.2200 -0.1584 -0.6641
19920TIP3    H281252   0.160   0.735   2.546  0.4112 -0.3408 -0.2732
19921TIP3   OH281253   3.283   5.029  11.636  0.0481  0.0041  0.1945
19921TIP3    H181254   3.314   5.099  11.580  0.7702 -0.4105  0.0677
19921TIP3    H281255   3.198   5.005  11.600 -1.2830  2.3795  1.6281
19922TIP3   OH281256   3.326   0.632  15.477 -0.1991  0.0502 -0.0499
19922TIP3    H181257   3.382   0.710  15.477 -0.9962  0.6382  1.2673
19922TIP3    H281258   3.348   0.587  15.558  0.2492 -1.1082 -0.8041
19923TIP3   OH281259   1.836   2.831   1.961 -0.0492 -0.4065  0.2874
19923TIP3    H181260   1.907   2.892   1.941  0.0933 -1.6600 -3.3341
19923TIP3    H281261   1.764   2.858   1.905 -1.0196 -1.7354  0.8614
19924TIP3   OH281262   0.965   6.058   1.045  0.0664  0.0487  0.4698
19924TIP3    H181263   1.011   5.976   1.057  0.1441  0.2642  1.7578
19924TIP3    H281264   0.914   6.046   0.965  0.2604 -1.1615  0.5189
19925TIP3   OH281265   3.128   5.225  15.430  0.0639 -0.5241  0.1663
19925TIP3    H181266   3.211   5.185  15.405 -0.0968 -0.3854 -0.6192
19925TIP3    H281267   3.130   5.312  15.390 -0.9883 -0.9830 -0.9302
19926TIP3   OH281268   4.533   4.958   3.575  0.6619 -0.4013 -0.2978
19926TIP3    H181269   4.446   4.921   3.588  0.5507 -0.2488 -0.6067
19926TIP3    H281270   4.581   4.935   3.655 -0.4622  1.7865  1.0760
19927TIP3   OH281271   5.444   2.395  11.280 -0.3445  0.2398  0.9617
19927TIP3    H181272   5.437   2.477  11.231 -1.3450 -0.2212  0.3024
19927TIP3    H281273   5.537   2.389  11.303  0.6106 -0.4894 -2.6436
19928TIP3   OH281274   4.829   5.260   2.289 -0.7719  0.7607 -0.2454
19928TIP3    H181275   4.826   5.317   2.213 -0.9987 -1.0515 -1.6207
19928TIP3    H281276   4.922   5.257   2.313 -0.8010  1.9720  0.0664
19929TIP3   OH281277   0.765   5.692  10.687  0.4657  0.0046  0.2144
19929TIP3    H181278   0.759   5.743  10.606 -2.6437  0.3581  0.6161
19929TIP3    H281279   0.768   5.601  10.657  1.8028  0.2161 -0.3537
19930TIP3   OH281280   1.013   3.573  11.034 -0.0612  0.1534  0.0756
19930TIP3    H181281   0.918   3.563  11.036 -0.1229  0.6851 -0.3332
19930TIP3    H281282   1.046   3.496  11.081 -0.7099  0.2278  0.6548
19931TIP3   OH281283   1.856   6.638  15.609  0.0270 -0.4149  0.5003
19931TIP3    H181284   1.787   6.593  15.560  0.8067 -0.6564 -0.4164
19931TIP3    H281285   1.920   6.664  15.542  0.6591  0.1030  1.2849
19932TIP3   OH281286   6.162   4.070   3.618 -0.2549  0.0417  0.1822
19932TIP3    H181287   6.147   4.118   3.536  1.6277 -0.7071 -0.6252
19932TIP3    H281288   6.152   4.136   3.687  0.4678  1.1892 -0.7964
19933TIP3   OH281289   4.777   4.610   3.019 -0.3793 -0.3228 -0.9750
19933TIP3    H181290   4.742   4.647   3.100 -1.5345 -1.1672 -1.0746
19933TIP3    H281291   4.838   4.542   3.049  1.0604  1.0077 -0.8042
19934TIP3   OH281292   1.493   1.786   5.573 -0.3450  0.1355 -0.3817
19934TIP3    H181293   1.485   1.864   5.518 -2.6719  1.4184  1.6707
19934TIP3    H281294   1.530   1.818   5.655  1.2088 -1.4103 -0.4461
19935TIP3   OH281295   0.704   0.137  15.199  0.6981 -0.4174 -0.0540
19935TIP3    H181296   0.791   0.176  15.209  1.5082 -2.2185  0.2416
19935TIP3    H281297   0.718   0.044  15.214 -1.1724 -0.8344 -0.7260
19936TIP3   OH281298   2.118   0.867  14.591  0.5185 -0.1981  0.2909
19936TIP3    H181299   2.078   0.834  14.671  3.1932 -1.2974  1.2491
19936TIP3    H281300   2.081   0.814  14.521 -1.8858  0.8022  0.7678
19937TIP3   OH281301   1.792   3.513  16.177  0.3112  0.2460 -0.2327
19937TIP3    H181302   1.873   3.563  16.172  0.1184  0.5247 -0.6816
19937TIP3    H281303   1.790   3.464  16.095 -0.1007  0.4434 -0.3436
19938TIP3   OH281304   2.251   1.686   0.368  0.4549 -0.4591 -0.3998
19938TIP3    H181305   2.186   1.755   0.380  1.0841  0.0020  0.4341
19938TIP3    H281306   2.267   1.686   0.273 -0.8563 -0.6872 -0.6300
19939TIP3   OH281307   0.851   5.551   4.114 -0.2635  0.3769 -0.1501
19939TIP3    H181308   0.812   5.628   4.072  0.3149  0.7463 -0.0099
19939TIP3    H281309   0.838   5.481   4.051 -0.1319  0.7536 -0.6030
19940TIP3   OH281310   5.691   2.923   5.886 -0.2463 -0.7370 -0.5780
19940TIP3    H181311   5.666   2.909   5.977  1.8332  0.3873  0.1910
19940TIP3    H281312   5.644   2.855   5.837 -0.9579 -1.6811  1.3826
19941TIP3   OH281313   3.560   3.747   1.040 -0.2828 -0.1762 -0.6343
19941TIP3    H181314   3.505   3.810   0.994  1.1823  1.5103 -0.1342
19941TIP3    H281315   3.587   3.685   0.972  0.2784  1.1676 -1.6673
19942TIP3   OH281316   0.444   6.085  15.043 -0.0184 -0.1400 -0.0531
19942TIP3    H181317   0.396   6.007  15.013 -0.5018  0.3626 -0.5996
19942TIP3    H281318   0.427   6.089  15.137 -0.8891 -0.0769 -0.2099
19943TIP3   OH281319   0.177   5.968   0.802  0.0016  0.5085  0.6450
19943TIP3    H181320   0.125   5.894   0.831 -0.6248  1.6039  2.3851
19943TIP3    H281321   0.266   5.948   0.832  0.2534 -0.4945 -0.7165
19944TIP3   OH281322   0.870   1.387   6.220  0.2008 -0.3637 -0.3611
19944TIP3    H181323   0.849   1.402   6.312 -1.4920  1.7685 -1.0619
19944TIP3    H281324   0.790   1.352   6.181  0.1853  0.8563 -1.4840
19945TIP3   OH281325   2.962   6.507  14.937 -0.2051  0.1021 -0.7351
19945TIP3    H181326   3.017   6.500  15.015 -0.7377  1.5315 -0.2154
19945TIP3    H281327   2.873   6.494  14.970 -0.4701  1.1498 -1.0156
19946TIP3   OH281328   3.070   1.394   4.109 -0.2546 -0.1563  0.3591
19946TIP3    H181329   3.133   1.415   4.041 -0.5082 -0.0646  0.1497
19946TIP3    H281330   3.073   1.299   4.117 -0.8477 -0.2499 -0.3939
19947TIP3   OH281331   3.933   5.000   4.858 -0.2671 -0.6049 -0.2005
19947TIP3    H181332   3.930   5.078   4.914 -1.0583  0.2755 -1.4384
19947TIP3    H281333   3.881   5.025   4.781 -0.6460 -2.4125 -0.5352
19948TIP3   OH281334   1.141   1.362  17.051 -0.3580  0.1342  0.0736
19948TIP3    H181335   1.149   1.334  17.142  0.4729  1.4075  0.3987
19948TIP3    H281336   1.132   1.280  17.002  1.3654 -0.6752  1.0693
19949TIP3   OH281337   3.645   3.035  12.700  0.3828  0.3368  0.1301
19949TIP3    H181338   3.605   2.962  12.749  0.2869  0.0616 -0.3534
19949TIP3    H281339   3.575   3.100  12.693  0.4023  0.3852  0.3766
19950TIP3   OH281340   5.418   4.095  10.770 -1.2832 -0.4635  0.2118
19950TIP3    H181341   5.349   4.031  10.749  0.2898 -1.4160 -2.2533
19950TIP3    H281342   5.465   4.108  10.688  1.8539 -0.2641  1.9485
19951TIP3   OH281343   2.928   5.733   5.739 -0.4702 -0.3088  0.6233
19951TIP3    H181344   2.975   5.650   5.746  0.0402  0.0174  1.0882
19951TIP3    H281345   2.886   5.743   5.825  0.0018  0.2307  0.7929
19952TIP3   OH281346   0.228   6.481  16.152 -0.1269 -0.7283 -0.1015
19952TIP3    H181347   0.172   6.424  16.204 -1.5644 -0.1919 -1.0450
19952TIP3    H281348   0.230   6.440  16.065 -1.3927  0.7584 -0.8662
19953TIP3   OH281349   2.427   2.368  17.040  0.3581  0.1097 -0.3132
19953TIP3    H181350   2.495   2.432  17.018 -0.0870  1.0272  0.8953
19953TIP3    H281351   2.471   2.284  17.036  1.6631  0.7218  0.7779
19954TIP3   OH281352   1.133   3.117  15.439 -0.4750  0.3086  0.0854
19954TIP3    H181353   1.147   3.069  15.521 -1.4187  1.0765  0.7056
19954TIP3    H281354   1.141   3.209  15.463 -2.2990  0.5999 -0.3791
19955TIP3   OH281355   0.613   0.866   5.821 -0.3458 -0.1703  0.3088
19955TIP3    H181356   0.585   0.875   5.913 -1.6332  3.4239 -0.3208
19955TIP3    H281357   0.552   0.803   5.784  0.4994 -2.0509  2.0182
19956TIP3   OH281358   1.612   1.591  16.146  0.1934 -0.0695 -0.6146
19956TIP3    H181359   1.660   1.622  16.223  0.5276  0.7968 -1.1656
19956TIP3    H281360   1.520   1.613  16.166  0.0012 -1.7721  0.4587
19957TIP3   OH281361   6.262   4.653   5.382 -0.0534  0.2406  0.4760
19957TIP3    H181362   6.201   4.666   5.454 -0.4171  0.5454  0.1140
19957TIP3    H281363   6.340   4.617   5.423 -0.4709 -0.1365  0.9427
19958TIP3   OH281364   4.672   0.969  16.324  0.2150  0.5730  0.5582
19958TIP3    H181365   4.754   0.981  16.276  1.3981  0.8124  2.5932
19958TIP3    H281366   4.663   1.050  16.376 -2.3270  1.4177 -1.1150
19959TIP3   OH281367   2.370   4.790   4.243 -0.1732 -0.4144 -0.0698
19959TIP3    H181368   2.415   4.778   4.327 -2.2864 -4.0376  0.6760
19959TIP3    H281369   2.278   4.801   4.267 -0.6130  0.0088 -1.8665
19960TIP3   OH281370   4.287   4.241  12.944 -0.5552  0.0745  0.3772
19960TIP3    H181371   4.314   4.190  12.868 -0.4557  2.0357 -0.9515
19960TIP3    H281372   4.233   4.311  12.908  0.8654  2.0272  1.8865
19961TIP3   OH281373   0.491   5.702   6.149 -0.1667  0.2872  0.2636
19961TIP3    H181374   0.560   5.732   6.208  0.2203 -0.0093 -0.0327
19961TIP3    H281375   0.516   5.612   6.127 -2.0552 -0.7455  2.2374
19962TIP3   OH281376   5.803   1.139  17.284 -0.1744  0.3154  0.6170
19962TIP3    H181377   5.833   1.096  17.204 -1.2120  0.4948  0.1176
19962TIP3    H281378   5.810   1.071  17.352 -0.0161 -0.0688  0.2183
19963TIP3   OH281379   0.302   5.136   4.411 -0.2446  0.0505  0.0245
19963TIP3    H181380   0.368   5.067   4.420 -0.6510 -0.1390  1.7389
19963TIP3    H281381   0.261   5.141   4.497 -1.6081  1.0438 -0.6643
19964TIP3   OH281382   6.202   5.836  16.892 -0.6823 -0.7621  0.0849
19964TIP3    H181383   6.269   5.778  16.855 -0.6303 -1.6171  1.4924
19964TIP3    H281384   6.133   5.778  16.922 -0.2418 -0.1868  2.2936
19965TIP3   OH281385   2.772   1.279  12.871  0.2406 -0.2472  0.1135
19965TIP3    H181386   2.840   1.222  12.835  0.6397  0.5174 -0.3454
19965TIP3    H281387   2.755   1.342  12.802 -1.3006 -0.7304  0.0248
19966TIP3   OH281388   4.429   5.278   2.924  0.3163  0.1583 -0.0919
19966TIP3    H181389   4.388   5.216   2.865 -2.5678  1.5504  0.3748
19966TIP3    H281390   4.477   5.224   2.987 -2.0321 -1.6256  0.2273
19967TIP3   OH281391   1.771   0.325   2.457 -0.0645  0.4371  0.2282
19967TIP3    H181392   1.764   0.421   2.452 -2.2883  0.1981 -2.2024
19967TIP3    H281393   1.825   0.301   2.382  1.2337 -0.1882  1.3374
19968TIP3   OH281394   5.306   3.106  14.409  0.1320 -0.0926 -0.6928
19968TIP3    H181395   5.284   3.073  14.496 -0.5405  1.3793 -0.2946
19968TIP3    H281396   5.228   3.088  14.356  0.5448 -0.9984 -0.9953
19969TIP3   OH281397   3.905   0.211  16.932 -0.0081 -0.4630 -0.3274
19969TIP3    H181398   3.910   0.194  16.838  0.8324  2.4663 -0.8772
19969TIP3    H281399   3.819   0.253  16.944  0.3042  0.0878  0.0268
19970TIP3   OH281400   5.552   1.114  12.169  0.3284  0.2172 -0.0216
19970TIP3    H181401   5.604   1.058  12.112  0.2799 -0.9839  1.0824
19970TIP3    H281402   5.490   1.055  12.211 -1.0312  1.4251 -0.3061
19971TIP3   OH281403   2.093   3.923   3.457  0.0093 -0.3895 -0.1773
19971TIP3    H181404   2.183   3.893   3.444  0.7997  0.9743  1.9019
19971TIP3    H281405   2.038   3.855   3.418  1.7773 -3.5593  2.6425
19972TIP3   OH281406   2.452   1.569   0.523 -0.3288  0.1670 -0.6088
19972TIP3    H181407   2.446   1.641   0.586  0.9614  0.9654 -1.3738
19972TIP3    H281408   2.379   1.585   0.463 -0.6758  0.2369 -0.1764
19973TIP3   OH281409   1.373   0.485   4.472 -0.5237 -0.1900 -0.0185
19973TIP3    H181410   1.372   0.405   4.419  0.0630 -1.5205  1.9217
19973TIP3    H281411   1.439   0.469   4.539 -0.8863  1.6628  0.8290
19974TIP3   OH281412   4.327   1.717   4.760  0.0223 -0.2502 -0.0501
19974TIP3    H181413   4.322   1.700   4.854  0.6259 -0.9314 -0.1375
19974TIP3    H281414   4.382   1.646   4.726 -0.6325 -0.3140 -0.9921
19975TIP3   OH281415   0.610   3.008  15.748  0.4808 -0.4051  0.3431
19975TIP3    H181416   0.663   2.936  15.713 -0.0389 -1.1799  1.1224
19975TIP3    H281417   0.530   2.966  15.779 -1.1053  0.9122 -1.8746
19976TIP3   OH281418   2.775   4.439  13.920  0.1793 -0.0808 -0.0685
19976TIP3    H181419   2.766   4.529  13.889  2.7674 -0.1330 -1.1002
19976TIP3    H281420   2.714   4.389  13.865 -1.0048  0.9864  0.2698
19977TIP3   OH281421   3.768   6.663  16.412  1.1429  0.7412 -0.1221
19977TIP3    H181422   3.846   6.689  16.363  1.0168  1.8323  0.2389
19977TIP3    H281423   3.713   6.742  16.413 -0.1742 -0.1518 -0.7739
19978TIP3   OH281424   4.774   3.870   2.447 -0.2044 -0.3709  1.0378
19978TIP3    H181425   4.850   3.888   2.502  1.2025 -0.2218 -0.9259
19978TIP3    H281426   4.790   3.919   2.367 -2.4079 -0.2939  0.6249
19979TIP3   OH281427   2.977   5.728   3.351  0.0761 -0.0786 -0.5750
19979TIP3    H181428   2.966   5.745   3.257 -1.6595 -1.1891 -0.5866
19979TIP3    H281429   2.891   5.743   3.389  0.6035 -0.3201  0.7343
19980TIP3   OH281430   4.623   1.715   2.740 -0.0292  0.8884  0.4560
19980TIP3    H181431   4.534   1.729   2.773 -0.9056  1.6506 -2.0955
19980TIP3    H281432   4.622   1.624   2.707 -0.1169  1.1314 -0.2332
19981TIP3   OH281433   3.307   1.709   6.998 -0.1833  0.0114  0.3272
19981TIP3    H181434   3.357   1.776   6.952 -1.2829  1.9990  1.9400
19981TIP3    H281435   3.224   1.702   6.949 -0.4271  0.4660  0.6765
19982TIP3   OH281436   4.950   2.646  14.335  0.0803 -0.2360 -0.3515
19982TIP3    H181437   4.865   2.674  14.368  0.0183 -0.0781 -0.6428
19982TIP3    H281438   4.939   2.554  14.311  0.0263 -0.2518 -0.2616
19983TIP3   OH281439   6.181   2.683  12.824 -0.1686  0.0484  0.5088
19983TIP3    H181440   6.166   2.589  12.827 -0.1379  0.0763  1.9828
19983TIP3    H281441   6.252   2.694  12.761 -0.6250 -0.8471 -0.1716
19984TIP3   OH281442   4.598   4.014   4.783  0.0873 -0.2801  0.1381
19984TIP3    H181443   4.520   4.020   4.727 -0.2116  1.2048  0.6829
19984TIP3    H281444   4.563   3.995   4.870  0.3084  0.4446  0.3944
19985TIP3   OH281445   6.524   3.632  15.696 -0.0295  0.1522  0.6182
19985TIP3    H181446   6.484   3.714  15.724  1.4323  1.2810 -0.5346
19985TIP3    H281447   6.464   3.596  15.631  0.1574  1.1848 -0.1434
19986TIP3   OH281448   5.865   1.733   4.368 -0.0041 -0.7364 -0.2742
19986TIP3    H181449   5.906   1.648   4.355 -1.0902 -1.1745 -0.9101
19986TIP3    H281450   5.771   1.715   4.369 -0.2594  0.5003 -0.7786
19987TIP3   OH281451   5.443   1.372   4.618  0.2084 -0.2661  0.0360
19987TIP3    H181452   5.469   1.445   4.562 -0.4910 -0.5866 -0.7072
19987TIP3    H281453   5.430   1.298   4.559 -0.6066 -0.5890  0.5973
19988TIP3   OH281454   4.075   5.687  11.619 -0.2393  0.3707 -0.1343
19988TIP3    H181455   4.002   5.750  11.620 -0.0255  0.6164  0.4508
19988TIP3    H281456   4.144   5.730  11.669 -0.7413 -1.0709  1.8818
19989TIP3   OH281457   4.562   1.212  12.799 -0.1507 -0.1716 -0.4536
19989TIP3    H181458   4.612   1.134  12.777 -1.9593 -1.3933 -0.3441
19989TIP3    H281459   4.472   1.192  12.772 -1.0302  1.0792  1.3701
19990TIP3   OH281460   1.777   5.224  13.995 -0.5982 -0.0633  0.5314
19990TIP3    H181461   1.870   5.201  14.003 -1.1520 -1.5736  3.1606
19990TIP3    H281462   1.755   5.202  13.904  1.3082 -0.8956  0.2375
19991TIP3   OH281463   3.789   0.634  17.113 -0.1674  0.6322  0.1181
19991TIP3    H181464   3.829   0.650  17.028 -1.0458  2.5656  0.0480
19991TIP3    H281465   3.854   0.583  17.162 -0.0218 -1.2809 -2.0059
19992TIP3   OH281466   4.423   4.362  16.687 -0.0824  0.0691  0.2423
19992TIP3    H181467   4.379   4.436  16.727  1.0378 -0.1191  1.8749
19992TIP3    H281468   4.514   4.391  16.676  0.6151 -1.4098  1.8734
19993TIP3   OH281469   1.693   4.499  15.209 -0.5467 -0.5366 -0.7035
19993TIP3    H181470   1.663   4.408  15.218 -1.1597 -0.6090 -3.1034
19993TIP3    H281471   1.718   4.525  15.297 -3.7746 -1.8561  0.6776
19994TIP3   OH281472   4.742   0.614   1.329 -0.4453 -0.2124  0.0402
19994TIP3    H181473   4.710   0.560   1.401 -2.1017  0.3794 -0.2458
19994TIP3    H281474   4.752   0.701   1.367 -0.0913 -0.1732 -0.1347
19995TIP3   OH281475   0.188   0.633  15.543  0.4165  0.2604  0.4587
19995TIP3    H181476   0.182   0.540  15.562  0.0604 -0.2623 -2.1102
19995TIP3    H281477   0.278   0.646  15.512  0.9142  1.0660  2.1309
19996TIP3   OH281478   3.027   0.041  15.882 -0.2495  0.0778  0.5475
19996TIP3    H181479   2.976   0.116  15.913 -0.7259 -0.3125  0.7182
19996TIP3    H281480   3.113   0.051  15.923  0.2334  1.4417 -0.7531
19997TIP3   OH281481   3.830   3.929  14.725 -0.0378 -0.4750 -0.4184
19997TIP3    H181482   3.902   3.921  14.663 -1.3170 -2.4655 -1.7106
19997TIP3    H281483   3.827   3.844  14.769 -0.2003  0.3549  1.2232
19998TIP3   OH281484   5.294   1.860   3.105  0.5506 -0.1809 -0.3073
19998TIP3    H181485   5.353   1.883   3.034  0.9193  0.6605  0.2755
19998TIP3    H281486   5.308   1.927   3.172 -1.3953  0.3067 -0.3519
19999TIP3   OH281487   3.064   0.529  13.519  0.4534 -0.0378 -0.0464
19999TIP3    H181488   3.111   0.446  13.526 -2.1375 -1.6467 -0.7272
19999TIP3    H281489   3.027   0.542  13.607  1.4891  0.8059  0.2693
20000TIP3   OH281490   5.926   1.729  15.641  0.2408 -0.2198  0.8117
20000TIP3    H181491   6.011   1.766  15.617 -0.3163  0.6069  0.1188
20000TIP3    H281492   5.911   1.758  15.731  0.2889  0.3449  0.6321
20001TIP3   OH281493   0.049   3.523   3.051 -0.4475  0.8874 -0.1468
20001TIP3    H181494   0.039   3.465   3.127  0.9224 -1.5767 -1.8058
20001TIP3    H281495   0.128   3.574   3.071 -0.0615  0.2133  0.0732
20002TIP3   OH281496   6.670   3.710   3.158 -0.7386  0.1146 -0.3097
20002TIP3    H181497   6.699   3.673   3.075 -0.9763  1.0623 -0.8226
20002TIP3    H281498   6.751   3.721   3.209 -0.8197 -2.5807  0.4876
20003TIP3   OH281499   4.974   1.012  14.754 -0.0185 -0.1491  0.0807
20003TIP3    H181500   4.998   1.091  14.801  1.6842  0.0739 -1.1329
20003TIP3    H281501   4.882   0.996  14.779  0.1594  1.2112  1.6701
20004TIP3   OH281502   4.359   6.637   0.359  0.1438  0.0171  0.0841
20004TIP3    H181503   4.338   6.545   0.344 -0.4670 -0.3321  2.8583
20004TIP3    H281504   4.295   6.666   0.424  1.6061  1.8397  0.7573
20005TIP3   OH281505   6.082   0.709  11.768  0.1606 -0.0551  0.4211
20005TIP3    H181506   6.105   0.790  11.721  2.0732 -0.7219  0.1323
20005TIP3    H281507   6.056   0.738  11.855 -0.5150  0.9803 -0.1182
20006TIP3   OH281508   2.587   0.644  13.842  0.1692 -0.0397  0.0753
20006TIP3    H181509   2.512   0.666  13.897 -2.0892 -0.2989 -2.7553
20006TIP3    H281510   2.621   0.728  13.812 -0.0601  0.0248 -0.0029
20007TIP3   OH281511   5.698   4.009   5.222 -0.2938  0.1445 -0.2840
20007TIP3    H181512   5.618   4.029   5.173 -0.7729 -0.3707  0.2880
20007TIP3    H281513   5.701   3.914   5.225  0.1536  0.1694  0.0081
20008TIP3   OH281514   6.625   0.954   3.718 -0.4228 -0.3830 -0.0379
20008TIP3    H181515   6.590   0.875   3.759 -2.4041 -0.3161 -1.5140
20008TIP3    H281516   6.686   0.922   3.651  0.6645 -0.5731  1.0385
20009TIP3   OH281517   0.848   2.857  12.929  0.3703  0.3809 -0.4890
20009TIP3    H181518   0.942   2.873  12.943  0.4459  1.7255 -2.2538
20009TIP3    H281519   0.807   2.941  12.949 -0.2774  0.2297 -1.1752
20010TIP3   OH281520   6.718   5.489  15.390  0.4140  0.0342 -0.4559
20010TIP3    H181521   6.689   5.416  15.444  0.5620  0.8536  0.7429
20010TIP3    H281522   6.638   5.533  15.363  0.2568 -1.2463 -2.1699
20011TIP3   OH281523   3.240   2.572   5.675 -0.1511 -0.2279  0.1339
20011TIP3    H181524   3.159   2.620   5.694  0.2974 -0.1059  1.7756
20011TIP3    H281525   3.291   2.578   5.755  2.0619  0.8223 -1.3049
20012TIP3   OH281526   1.448   2.647  14.316 -1.0124 -0.1433 -0.1144
20012TIP3    H181527   1.435   2.741  14.307 -0.4834 -0.1494 -0.9899
20012TIP3    H281528   1.539   2.637  14.342 -1.6474 -0.3141  2.1797
20013TIP3   OH281529   5.396   1.321   3.161 -0.4791 -0.0127 -0.4486
20013TIP3    H181530   5.349   1.387   3.211 -2.0413 -1.0463 -0.5137
20013TIP3    H281531   5.488   1.338   3.179 -0.8179  2.4397 -0.7876
20014TIP3   OH281532   0.647   6.194   4.255 -0.3176 -0.4889 -0.5172
20014TIP3    H181533   0.664   6.269   4.311 -1.5347 -0.6805  0.1367
20014TIP3    H281534   0.695   6.122   4.295 -2.0597 -0.8759  0.9190
20015TIP3   OH281535   3.423   2.658   4.012 -0.3108 -0.2868 -0.0881
20015TIP3    H181536   3.332   2.648   4.042  0.2941 -0.3666  1.7799
20015TIP3    H281537   3.443   2.576   3.967  0.0870 -1.8832  2.9217
20016TIP3   OH281538   4.972   6.349   5.687 -0.3801  0.7236  0.2067
20016TIP3    H181539   4.975   6.414   5.617  1.8572 -0.1987 -0.6104
20016TIP3    H281540   4.978   6.400   5.767  0.9073  1.5722 -0.4076
20017TIP3   OH281541   4.641   1.849   3.705 -0.2917  1.0851  0.6945
20017TIP3    H181542   4.578   1.862   3.634  0.2266  2.2839  0.4298
20017TIP3    H281543   4.608   1.905   3.775  0.1714  1.2831  0.7520
20018TIP3   OH281544   1.578   5.400   1.332  0.7087  0.0115 -0.0742
20018TIP3    H181545   1.484   5.401   1.351  0.6372 -0.9152 -0.3622
20018TIP3    H281546   1.604   5.492   1.337 -0.3279  0.3446 -0.5778
20019TIP3   OH281547   2.247   5.097   1.681 -0.1496 -0.5556  0.1692
20019TIP3    H181548   2.307   5.153   1.631 -1.5505  1.5131  0.7663
20019TIP3    H281549   2.283   5.096   1.769 -0.6045  0.1413  0.3677
20020TIP3   OH281550   0.210   2.542   2.774 -0.6025 -0.6166 -0.1554
20020TIP3    H181551   0.129   2.592   2.765 -1.1713 -1.4863  0.0686
20020TIP3    H281552   0.204   2.501   2.861  0.2420 -0.4019  0.0143
20021TIP3   OH281553   5.080   0.215   0.702  0.0365 -0.1645 -0.5813
20021TIP3    H181554   5.015   0.275   0.739 -1.3463 -0.9828 -1.6164
20021TIP3    H281555   5.138   0.270   0.651  1.0340  0.7763  1.5250
20022TIP3   OH281556   3.012   5.417   5.145  0.0247 -0.1541  0.4670
20022TIP3    H181557   3.065   5.337   5.147  0.8701  0.3825  0.0484
20022TIP3    H281558   3.074   5.487   5.168 -0.5460  0.4657  0.1314
20023TIP3   OH281559   3.510   6.443   3.569 -0.1360  0.8742  0.0506
20023TIP3    H181560   3.425   6.435   3.528 -0.4775  1.7099  0.5737
20023TIP3    H281561   3.570   6.466   3.498  0.0861 -1.8713 -0.7104
20024TIP3   OH281562   4.472   4.942   4.805  0.5129  0.3594 -0.1236
20024TIP3    H181563   4.410   4.915   4.874 -0.3179 -1.3018 -1.4831
20024TIP3    H281564   4.555   4.951   4.851 -0.5735  1.9376  1.6159
20025TIP3   OH281565   3.426   1.594   1.528  0.0919 -0.3557 -0.1946
20025TIP3    H181566   3.437   1.670   1.584 -1.7164 -0.9260  0.9830
20025TIP3    H281567   3.391   1.629   1.446 -1.7893 -0.0071  0.7348
20026TIP3   OH281568   1.877   1.123   2.478 -0.5966 -0.5791  0.0299
20026TIP3    H181569   1.919   1.186   2.536 -2.0741 -0.4706  1.0005
20026TIP3    H281570   1.844   1.175   2.406 -0.3944 -0.4645  0.0191
20027TIP3   OH281571   1.390   6.677   2.546 -0.0078 -0.0137 -0.6509
20027TIP3    H181572   1.463   6.738   2.557 -0.4452  0.7916 -2.0791
20027TIP3    H281573   1.424   6.593   2.577  2.0038  0.0224 -2.6323
20028TIP3   OH281574   1.564   2.614  13.225  0.7863 -0.3047  0.0315
20028TIP3    H181575   1.523   2.636  13.309  1.7903  0.9167  0.2158
20028TIP3    H281576   1.578   2.519  13.230 -0.8017 -0.5454  0.4862
20029TIP3   OH281577   2.837   3.559   1.482 -0.5856  0.0166  0.5417
20029TIP3    H181578   2.819   3.601   1.566  1.3077  1.0073  0.4924
20029TIP3    H281579   2.931   3.539   1.485 -0.7440 -1.0570 -0.8549
20030TIP3   OH281580   0.324   6.812   0.919 -0.6722 -0.0445 -0.3573
20030TIP3    H181581   0.299   6.731   0.963 -0.2434  0.2995  0.5389
20030TIP3    H281582   0.248   6.869   0.929 -0.5736  0.0358 -0.0331
20031TIP3   OH281583   5.187   4.212   0.712  0.2196  0.6646 -0.0587
20031TIP3    H181584   5.261   4.197   0.771 -0.2200  0.2777  0.3998
20031TIP3    H281585   5.227   4.245   0.631  0.9014  0.3829  0.1567
20032TIP3   OH281586   0.812   5.936   4.996  0.2460  0.4365  0.0627
20032TIP3    H181587   0.787   5.990   5.071 -0.5185  0.8211 -0.4578
20032TIP3    H281588   0.901   5.906   5.016 -0.8092 -1.3763  2.1730
20033TIP3   OH281589   6.776   4.009  11.996  0.2210 -0.2641 -0.4717
20033TIP3    H181590   6.770   4.097  12.033 -0.4958 -0.1114 -0.9508
20033TIP3    H281591   6.699   3.964  12.030  0.8838 -0.8795  0.2242
20034TIP3   OH281592   3.316   1.902   2.309 -0.2458 -0.6002 -0.0493
20034TIP3    H181593   3.278   1.866   2.229 -2.7897  1.7418  0.0385
20034TIP3    H281594   3.359   1.983   2.281 -2.7456  1.2139  1.1789
20035TIP3   OH281595   4.905   6.004   6.008 -1.2112  0.1380 -0.0752
20035TIP3    H181596   4.887   6.005   5.914  3.4445 -0.2541 -1.0842
20035TIP3    H281597   4.940   6.091   6.027 -2.1264  0.2243  1.3416
20036TIP3   OH281598   3.585   4.498   5.606 -0.8805  0.4187  0.3326
20036TIP3    H181599   3.679   4.488   5.597 -1.1812 -1.5800 -0.6407
20036TIP3    H281600   3.566   4.468   5.695 -0.7702 -0.3844  0.0825
20037TIP3   OH281601   3.839   4.382  17.265  0.5293  0.3839 -0.0890
20037TIP3    H181602   3.879   4.379  17.178  0.4785  1.3785 -0.1545
20037TIP3    H281603   3.747   4.405  17.248  0.3233 -0.2480  0.1709
20038TIP3   OH281604   1.948   5.556   5.384  0.3761 -0.1527 -0.0882
20038TIP3    H181605   1.960   5.479   5.329 -0.1216  0.6264 -1.3231
20038TIP3    H281606   2.020   5.553   5.447  0.4009 -1.5705 -0.1740
20039TIP3   OH281607   0.736   1.999  17.141  0.4910  0.2228 -0.4785
20039TIP3    H181608   0.748   1.918  17.091 -1.5650  0.3875 -1.3252
20039TIP3    H281609   0.757   1.976  17.231  0.5104 -1.1142 -0.8152
20040TIP3   OH281610   4.669   1.164  13.880  0.7171 -0.4353  0.0225
20040TIP3    H181611   4.731   1.227  13.843 -0.5057  0.6015 -0.2742
20040TIP3    H281612   4.584   1.208  13.876 -0.1806 -2.1732 -0.3456
20041TIP3   OH281613   0.002   0.173  11.211  0.6977 -0.5682  0.2601
20041TIP3    H181614   0.040   0.257  11.239 -0.3069 -0.0201 -0.0293
20041TIP3    H281615   0.076   0.126  11.173  0.8910  0.9482 -1.3254
20042TIP3   OH281616   6.606   2.412  16.270  0.5489  0.3020 -0.1468
20042TIP3    H181617   6.542   2.427  16.200 -1.5700 -1.3701  1.3719
20042TIP3    H281618   6.688   2.391  16.224 -0.5176  0.3582 -2.1190
20043TIP3   OH281619   6.324   0.253  17.129 -0.0399  0.4728 -0.0387
20043TIP3    H181620   6.367   0.170  17.107 -1.2018  0.0979 -0.9499
20043TIP3    H281621   6.256   0.263  17.063  1.0119  2.8963 -0.7867
20044TIP3   OH281622   1.593   2.574  11.228  0.6078  0.5236  0.1848
20044TIP3    H181623   1.653   2.617  11.167 -0.7210  0.1623 -1.4253
20044TIP3    H281624   1.522   2.637  11.239 -0.5809 -0.5869 -0.9562
20045TIP3   OH281625   5.781   2.657  17.093 -0.8200 -0.1530  0.3568
20045TIP3    H181626   5.755   2.748  17.107 -0.0293  0.0095  0.8341
20045TIP3    H281627   5.702   2.606  17.113 -0.8411  0.3368  1.6041
20046TIP3   OH281628   0.028   3.248   2.017  0.5122  0.2967 -0.0291
20046TIP3    H181629   0.035   3.337   2.051  2.0424 -0.8054  2.6520
20046TIP3    H281630  -0.051   3.213   2.058  1.0068 -0.2243  0.4886
20047TIP3   OH281631   1.172   1.633  12.731 -0.2705  0.1535  0.6256
20047TIP3    H181632   1.218   1.549  12.728 -1.4097 -0.4693  0.3480
20047TIP3    H281633   1.126   1.633  12.815 -0.2875  0.4991  0.6183
20048TIP3   OH281634   4.799   0.870   1.430  0.1300 -0.8638 -0.6114
20048TIP3    H181635   4.728   0.900   1.487  0.7592  0.0919 -0.3209
20048TIP3    H281636   4.872   0.851   1.489 -0.5691 -4.0197 -0.6737
20049TIP3   OH281637   6.675   6.450   4.789 -0.1716  0.7512  0.3046
20049TIP3    H181638   6.625   6.531   4.790 -0.9453  0.2748  1.4529
20049TIP3    H281639   6.705   6.438   4.879 -0.5594 -0.5248  0.2768
20050TIP3   OH281640   0.734   1.403  14.225  0.1335 -0.4185  0.3540
20050TIP3    H181641   0.717   1.494  14.250  2.0813 -0.0129  0.2322
20050TIP3    H281642   0.827   1.390  14.241  0.1921 -1.9346 -1.0634
20051TIP3   OH281643   6.462   1.880  11.905 -0.1414 -0.1656  0.3254
20051TIP3    H181644   6.417   1.833  11.975 -0.1966  0.9775  1.0793
20051TIP3    H281645   6.490   1.962  11.946  0.1836  0.3374 -0.8884
20052TIP3   OH281646   6.794   4.934   2.007 -0.2471 -0.5489 -0.2273
20052TIP3    H181647   6.774   4.900   2.094 -0.2031 -1.6450 -0.6292
20052TIP3    H281648   6.827   5.022   2.022  0.9958 -1.1992  0.9826
20053TIP3   OH281649   1.162   5.769  12.741  0.1011  0.4421 -0.1435
20053TIP3    H181650   1.075   5.742  12.710  0.3903  0.5633 -1.0698
20053TIP3    H281651   1.143   5.833  12.810 -0.5579 -0.7418  0.7843
20054TIP3   OH281652   0.307   0.464  14.802  0.4812 -0.0394 -0.6120
20054TIP3    H181653   0.288   0.370  14.794  2.2666 -0.4660 -0.0583
20054TIP3    H281654   0.225   0.502  14.835 -0.0069 -1.5356 -0.0272
20055TIP3   OH281655   4.001   4.619  15.093  0.2664 -0.8605 -0.1527
20055TIP3    H181656   4.046   4.688  15.045  0.3175 -0.7297  0.0876
20055TIP3    H281657   4.033   4.538  15.052 -1.3506 -0.6884 -1.8205
20056TIP3   OH281658   3.163   3.955   0.627 -0.4544  0.0616 -0.4147
20056TIP3    H181659   3.141   3.921   0.541 -2.1255 -0.0786  0.0507
20056TIP3    H281660   3.170   3.878   0.683  1.2378  0.1012 -0.5291
20057TIP3   OH281661   6.046   3.874   1.668 -0.3379 -0.6411  0.1429
20057TIP3    H181662   6.103   3.798   1.673  0.3913  0.0140  2.6398
20057TIP3    H281663   6.054   3.916   1.754 -3.9795 -0.0970  0.2879
20058TIP3   OH281664   6.768   0.622   0.470  0.0548 -0.1586  0.2404
20058TIP3    H181665   6.838   0.687   0.463 -1.0868  1.6603  4.0749
20058TIP3    H281666   6.763   0.603   0.564 -4.5310 -0.2638  0.0709
20059TIP3   OH281667   5.508   1.250  11.085 -0.4560 -0.2558  0.1007
20059TIP3    H181668   5.464   1.286  11.009 -0.9318  1.0040  0.9515
20059TIP3    H281669   5.458   1.172  11.108 -2.0337  0.9522  0.8325
20060TIP3   OH281670   1.644   0.167  13.272  0.1661  0.3437 -0.2730
20060TIP3    H181671   1.661   0.130  13.185  0.4957  1.2683 -0.6114
20060TIP3    H281672   1.658   0.261  13.261 -0.5917  0.5646  0.5924
20061TIP3   OH281673   4.247   5.810  14.593  0.3812  0.7096  0.0481
20061TIP3    H181674   4.292   5.726  14.603  1.6827  1.4590  0.5545
20061TIP3    H281675   4.317   5.873  14.577 -0.4875  1.8843  0.8031
20062TIP3   OH281676   6.616   1.703  15.487  0.4120 -0.1023  0.2446
20062TIP3    H181677   6.661   1.771  15.538 -0.8427  0.0005  1.2364
20062TIP3    H281678   6.625   1.624  15.540  0.8504 -0.4451 -0.3462
20063TIP3   OH281679   3.741   6.151  15.558  0.1608 -0.5236 -0.1693
20063TIP3    H181680   3.735   6.231  15.610  0.4953 -2.0165  2.2308
20063TIP3    H281681   3.794   6.175  15.482 -0.0397  1.6053  0.3396
20064TIP3   OH281682   2.087   2.047  12.034 -1.0469  0.6178 -0.1555
20064TIP3    H181683   2.164   1.993  12.051 -0.8501  0.8253 -0.3686
20064TIP3    H281684   2.116   2.108  11.965 -0.9837  1.5823  0.7070
20065TIP3   OH281685   4.194   2.674   4.631  0.1159  0.3750  0.5718
20065TIP3    H181686   4.207   2.726   4.710 -1.5427  2.2608 -0.3386
20065TIP3    H281687   4.125   2.611   4.654  2.6483 -2.0164  1.9079
20066TIP3   OH281688   6.736   2.239  15.715 -0.3070  0.6432 -0.3749
20066TIP3    H181689   6.817   2.210  15.758  0.2884  0.2023 -1.7631
20066TIP3    H281690   6.667   2.187  15.756  0.5725 -1.7482 -1.8013
20067TIP3   OH281691   1.290   4.483   2.569  0.1553 -0.1480  0.1959
20067TIP3    H181692   1.255   4.407   2.521 -0.4901  0.1153  0.2379
20067TIP3    H281693   1.368   4.450   2.613  0.3719 -0.5704 -0.4940
20068TIP3   OH281694   0.225   0.007   4.814  0.2159  0.8051 -0.0567
20068TIP3    H181695   0.296  -0.049   4.844  1.0474  1.8990  0.0546
20068TIP3    H281696   0.146  -0.032   4.851  0.9678  0.7382  1.5050
20069TIP3   OH281697   4.897   4.616   0.820 -0.4102 -0.1386 -0.0967
20069TIP3    H181698   4.806   4.590   0.836 -0.0897  0.0531  2.2654
20069TIP3    H281699   4.949   4.547   0.859  0.4552  0.5155 -0.0848
20070TIP3   OH281700   0.387   3.571   2.499 -0.4237  0.1445 -0.2592
20070TIP3    H181701   0.442   3.558   2.421  1.6113  2.0151  0.7968
20070TIP3    H281702   0.330   3.494   2.502  1.4046 -1.3258 -2.0074
20071TIP3   OH281703   1.179   6.254   6.281  0.1137 -0.5262 -0.0496
20071TIP3    H181704   1.177   6.176   6.336 -0.7441  0.4190  1.2855
20071TIP3    H281705   1.150   6.223   6.195  0.5604 -1.8230  0.2520
20072TIP3   OH281706   1.172   5.589   3.392 -0.1883 -0.0461  0.0992
20072TIP3    H181707   1.199   5.564   3.480  1.6326 -1.3295 -0.7824
20072TIP3    H281708   1.092   5.540   3.376  0.3364 -1.0460  0.4744
20073TIP3   OH281709   4.512   5.482   5.415  0.1880 -0.5887  0.5865
20073TIP3    H181710   4.440   5.502   5.475 -1.6352  2.4569 -2.4138
20073TIP3    H281711   4.485   5.402   5.371 -0.4224 -0.5290  0.8457
20074TIP3   OH281712   1.390   0.608  14.797 -0.0546 -0.2520  0.2279
20074TIP3    H181713   1.327   0.643  14.733  1.1781  0.0641 -0.8330
20074TIP3    H281714   1.442   0.684  14.822  0.1651 -0.5931  0.8088
20075TIP3   OH281715   2.067   3.662   1.834  0.0302  0.2540  0.3830
20075TIP3    H181716   2.080   3.633   1.743 -0.6744 -1.8128  0.9335
20075TIP3    H281717   2.004   3.734   1.827 -0.1484  0.0061 -0.7442
20076TIP3   OH281718   6.034   2.070  12.225  0.1087 -0.3638  0.0604
20076TIP3    H181719   5.953   2.121  12.230 -0.1354 -0.8010  0.6250
20076TIP3    H281720   6.099   2.126  12.268  0.2154  0.1846 -0.7986
20077TIP3   OH281721   1.677   2.913   3.442  0.5651  0.0302 -0.5826
20077TIP3    H181722   1.665   2.818   3.450  0.1952 -0.0724 -2.2512
20077TIP3    H281723   1.764   2.929   3.478  0.2398 -0.8060  0.6105
20078TIP3   OH281724   2.546   5.713  13.129  0.2389 -0.4684  0.7035
20078TIP3    H181725   2.473   5.667  13.170 -0.7120  0.3754 -0.0290
20078TIP3    H281726   2.574   5.777  13.195  0.6291 -1.0969  1.1600
20079TIP3   OH281727   0.809   5.995   0.823  0.4822  0.3954  0.5001
20079TIP3    H181728   0.810   5.966   0.732  1.2433 -1.1601  0.9844
20079TIP3    H281729   0.721   6.030   0.836  0.4562  0.8885 -0.9095
20080TIP3   OH281730   3.734   0.164  15.499 -0.0651  0.5165 -0.0942
20080TIP3    H181731   3.813   0.130  15.457  0.6308  0.4936  1.2127
20080TIP3    H281732   3.662   0.126  15.449  0.7202 -1.5787  0.3513
20081TIP3   OH281733   5.430   4.742  15.020  0.6037  0.2906  0.2707
20081TIP3    H181734   5.384   4.760  14.939  1.5006  1.6940  0.0565
20081TIP3    H281735   5.397   4.806  15.083  0.3112 -0.4334  0.8695
20082TIP3   OH281736   5.941   1.442   4.549 -0.0868 -0.3615 -0.6161
20082TIP3    H181737   5.962   1.381   4.619 -0.9033 -0.1640 -0.1993
20082TIP3    H281738   5.929   1.386   4.472  1.5411 -0.5144 -0.7842
20083TIP3   OH281739   0.172   5.915  12.050 -0.0244 -0.3392 -0.2755
20083TIP3    H181740   0.205   6.002  12.074  0.6444 -1.2657  2.3801
20083TIP3    H281741   0.088   5.908  12.094  0.6097 -1.5776  0.7943
20084TIP3   OH281742   0.749   3.507  15.367  0.8420 -0.3023  0.0005
20084TIP3    H181743   0.674   3.509  15.307  0.8372  1.8505  0.0135
20084TIP3    H281744   0.714   3.471  15.448  0.2256 -0.8573 -0.5026
20085TIP3   OH281745   0.547   1.641  14.806 -0.1268  0.1689 -0.4174
20085TIP3    H181746   0.523   1.654  14.714 -2.1114 -1.1484 -0.1119
20085TIP3    H281747   0.634   1.601  14.803 -0.3634 -0.2597 -1.7407
20086TIP3   OH281748   3.854   3.572  16.262  0.2126  0.1787 -0.2832
20086TIP3    H181749   3.944   3.575  16.232  0.2191 -2.4316 -0.6001
20086TIP3    H281750   3.840   3.481  16.288 -1.7556  0.9598  1.5321
20087TIP3   OH281751   6.245   4.352   3.233  0.0284  0.0488  0.2779
20087TIP3    H181752   6.315   4.374   3.172  0.9524 -1.6751  0.6706
20087TIP3    H281753   6.250   4.420   3.300  0.7160  0.4772 -0.1924
20088TIP3   OH281754   6.311   6.255   4.229 -0.3833  0.2671 -0.5910
20088TIP3    H181755   6.246   6.200   4.186  0.3477 -0.0767 -1.2771
20088TIP3    H281756   6.389   6.247   4.174  0.6668 -0.4314  0.9730
20089TIP3   OH281757   3.081   2.187   3.445  0.0737  0.3087 -0.1038
20089TIP3    H181758   3.115   2.194   3.535  0.8861 -0.5155 -0.3345
20089TIP3    H281759   3.102   2.271   3.404  2.1850 -0.3181 -0.3530
20090TIP3   OH281760   1.354   0.882  16.456 -0.6987  0.0851  0.2307
20090TIP3    H181761   1.426   0.913  16.510 -0.9760 -0.9129  1.2026
20090TIP3    H281762   1.372   0.916  16.368  1.1122 -0.4542  0.3904
20091TIP3   OH281763   4.380   3.681   3.400  0.1458 -0.0764 -0.2866
20091TIP3    H181764   4.315   3.641   3.458 -0.8082 -0.9092 -1.8949
20091TIP3    H281765   4.448   3.712   3.459 -1.1668 -0.2008  1.3475
20092TIP3   OH281766   2.397   3.615  15.427  0.1887 -0.7705  0.1375
20092TIP3    H181767   2.423   3.526  15.402 -0.3386 -0.4886 -1.4621
20092TIP3    H281768   2.337   3.603  15.501 -0.6077 -1.8214 -0.6571
20093TIP3   OH281769   4.380   0.888  11.813 -0.4296 -0.2868 -0.3936
20093TIP3    H181770   4.398   0.794  11.806 -0.1170 -0.4537  2.2385
20093TIP3    H281771   4.456   0.929  11.772  1.4548 -1.1702  2.0492
20094TIP3   OH281772   4.812   5.794   6.129 -0.0968 -0.5821  0.1523
20094TIP3    H181773   4.832   5.885   6.109 -1.0576 -0.2749  0.5427
20094TIP3    H281774   4.719   5.795   6.153 -0.6847 -2.0149 -1.9704
20095TIP3   OH281775   6.787   4.410  12.815  0.8018  0.3538  0.1118
20095TIP3    H181776   6.860   4.415  12.876  1.5259 -1.2706 -0.6008
20095TIP3    H281777   6.756   4.320  12.821  0.4035  0.3791 -1.3589
20096TIP3   OH281778   0.768   0.874  14.433  0.0401 -0.1187 -0.0631
20096TIP3    H181779   0.744   0.961  14.464 -1.4046 -0.8757  1.0272
20096TIP3    H281780   0.787   0.825  14.513 -0.0884 -1.0692 -0.6069
20097TIP3   OH281781   5.684   3.344  14.474  0.4271  0.8479  0.2866
20097TIP3    H181782   5.712   3.303  14.392  1.6814  1.2548  0.5123
20097TIP3    H281783   5.732   3.296  14.542  0.9822  1.8944  0.6368
20098TIP3   OH281784   1.539   4.058   6.430  0.4251 -0.3945  0.3523
20098TIP3    H181785   1.468   4.077   6.368 -0.4317  0.2632  1.5277
20098TIP3    H281786   1.619   4.075   6.379 -0.2842  3.0405  0.2586
20099TIP3   OH281787   5.450   4.237  12.091 -0.0048 -0.1263 -0.7556
20099TIP3    H181788   5.437   4.292  12.167  1.5897  2.0923 -2.0357
20099TIP3    H281789   5.365   4.194  12.078 -1.2493  1.9110  0.3565
20100TIP3   OH281790   3.811   2.642   4.853 -0.2969  0.1034  0.0836
20100TIP3    H181791   3.895   2.689   4.855  0.7674 -1.4313 -3.5181
20100TIP3    H281792   3.830   2.555   4.887 -0.1734 -0.5228 -1.5200
20101TIP3   OH281793   0.010   1.530  13.534  0.2774 -0.1949  0.0022
20101TIP3    H181794  -0.012   1.593  13.466 -0.8015  0.3512  0.8383
20101TIP3    H281795   0.023   1.448  13.488 -0.1063  0.2427 -0.9001
20102TIP3   OH281796   1.067   0.751   3.910 -0.1822 -0.0802 -0.1517
20102TIP3    H181797   1.005   0.679   3.906 -0.5614  0.2647 -0.4244
20102TIP3    H281798   1.118   0.744   3.829 -0.9889  0.6553 -0.7282
20103TIP3   OH281799   4.951   2.901  16.318  0.9032 -0.0281  0.2885
20103TIP3    H181800   4.874   2.854  16.350  0.7597  0.7727  1.1553
20103TIP3    H281801   4.982   2.849  16.244 -1.1324  0.2619 -0.7814
20104TIP3   OH281802   3.904   3.998  13.723 -0.3076 -0.3010 -0.2182
20104TIP3    H181803   3.894   4.090  13.697 -1.9213 -0.7853 -1.4593
20104TIP3    H281804   3.853   3.990  13.804 -0.3305 -0.1309 -0.2154
20105TIP3   OH281805   6.270   2.036  13.870  0.1890  0.1316 -0.0027
20105TIP3    H181806   6.215   1.958  13.871 -1.7458  1.4377  2.3521
20105TIP3    H281807   6.221   2.099  13.817 -1.0667  1.5540  2.7417
20106TIP3   OH281808   6.353   2.139   1.170  0.5389  0.3274  0.0574
20106TIP3    H181809   6.420   2.109   1.108  0.1273  1.2463 -0.8555
20106TIP3    H281810   6.284   2.175   1.114  1.1549  3.2223  1.0961
20107TIP3   OH281811   4.658   1.059   3.089  0.3003 -0.2692 -0.4545
20107TIP3    H181812   4.574   1.028   3.058  0.4714 -1.2495  0.0407
20107TIP3    H281813   4.722   1.023   3.027  0.6742 -2.5251  1.1990
20108TIP3   OH281814   4.809   5.821   2.591  0.5684  0.2837 -0.1169
20108TIP3    H181815   4.769   5.811   2.505 -1.9523 -1.4433  1.1748
20108TIP3    H281816   4.767   5.899   2.627  1.0708  0.5773 -0.1687
20109TIP3   OH281817   4.135   3.461   4.298  0.1017  0.7128  0.5885
20109TIP3    H181818   4.043   3.436   4.302  0.0593  0.6572 -0.4938
20109TIP3    H281819   4.134   3.555   4.276  0.2955  0.2990 -1.3240
20110TIP3   OH281820   5.391   1.088   4.557  0.2654 -0.7987  0.3697
20110TIP3    H181821   5.335   1.011   4.548  0.5162 -0.9887  0.4591
20110TIP3    H281822   5.376   1.118   4.647 -1.5501  0.5748 -0.3497
20111TIP3   OH281823   2.275   5.110   2.640  0.4178 -0.1122  0.3098
20111TIP3    H181824   2.335   5.184   2.629 -0.4598  0.9338  2.3144
20111TIP3    H281825   2.331   5.033   2.638  1.6156  0.7322  0.3667
20112TIP3   OH281826   0.165   0.931   4.849 -0.4832 -0.7508  0.5990
20112TIP3    H181827   0.170   0.891   4.762  0.4466 -1.4833  0.9816
20112TIP3    H281828   0.119   1.013   4.835  1.5224  0.1398 -0.9419
20113TIP3   OH281829   3.014   6.014  15.366 -0.3265 -0.8318  0.0076
20113TIP3    H181830   2.974   5.928  15.353 -1.4014 -0.5893  1.5716
20113TIP3    H281831   3.063   6.006  15.448 -1.2875  0.3339  0.7136
20114TIP3   OH281832   5.549   6.092  12.344  0.3691 -0.2108  0.4073
20114TIP3    H181833   5.574   6.136  12.263  0.5872 -1.6306 -0.3176
20114TIP3    H281834   5.617   6.025  12.357 -0.3912 -0.8814  1.0357
20115TIP3   OH281835   1.050   1.679  13.183  0.3605 -0.5237 -0.2068
20115TIP3    H181836   1.006   1.728  13.114  0.5310  0.1760  0.1707
20115TIP3    H281837   1.025   1.588  13.168  1.6715 -0.5930 -2.1232
20116TIP3   OH281838   6.024   5.190  15.040 -0.4393  0.2311  0.4357
20116TIP3    H181839   6.051   5.103  15.069 -1.8772 -0.2228  0.4370
20116TIP3    H281840   5.929   5.189  15.047 -0.6568  0.9365 -1.9493
20117TIP3   OH281841   1.436   6.370   6.221 -0.1978  0.0840  0.6993
20117TIP3    H181842   1.344   6.356   6.245 -1.1154  0.6383 -2.2362
20117TIP3    H281843   1.463   6.446   6.272 -1.2642 -0.2558  1.8142
20118TIP3   OH281844   5.624   5.711   2.188  0.5046  0.3321  0.0133
20118TIP3    H181845   5.706   5.695   2.234 -0.6191 -0.5456  1.7833
20118TIP3    H281846   5.631   5.661   2.107  1.6065  0.0592  0.2750
20119TIP3   OH281847   1.344   6.675   4.760  0.2435  0.1440  0.3677
20119TIP3    H181848   1.357   6.687   4.666  0.5847  0.5548  0.4647
20119TIP3    H281849   1.274   6.736   4.783  0.6237  0.5252  0.5049
20120TIP3   OH281850   1.496   5.020  15.448  0.0383  0.3801 -0.4063
20120TIP3    H181851   1.406   4.994  15.468  0.5492 -1.9073 -0.9599
20120TIP3    H281852   1.509   5.100  15.498 -0.9792 -1.4283  2.9328
20121TIP3   OH281853   3.343   6.311   4.228  0.2218  0.0455 -0.0083
20121TIP3    H181854   3.336   6.246   4.298 -0.0429  0.2934  0.1945
20121TIP3    H281855   3.261   6.305   4.180  0.4413 -0.1900 -0.3564
20122TIP3   OH281856   1.153   3.599   3.198  0.4688  0.0427  0.7574
20122TIP3    H181857   1.081   3.539   3.216  1.1499 -1.6524 -1.7525
20122TIP3    H281858   1.111   3.676   3.160 -0.1811 -0.1863  1.0061
20123TIP3   OH281859   1.187   5.998  15.341 -0.3448 -0.0750  0.1407
20123TIP3    H181860   1.165   5.955  15.423 -0.4173 -0.5207 -0.1129
20123TIP3    H281861   1.233   6.078  15.368 -3.7539  1.7581  0.7247
20124TIP3   OH281862   2.668   4.725  17.241 -0.2992  0.1696 -0.1714
20124TIP3    H181863   2.641   4.808  17.280  0.6541  0.4069 -0.0203
20124TIP3    H281864   2.728   4.687  17.304 -0.3418 -0.3986 -0.4745
20125TIP3   OH281865   4.739   3.510   3.560  0.0388 -0.0964 -0.2124
20125TIP3    H181866   4.811   3.536   3.617  1.1250  0.3156 -1.7391
20125TIP3    H281867   4.717   3.589   3.510 -1.8734 -0.0584  0.6370
20126TIP3   OH281868   1.213   0.063  14.151  0.0891 -0.1864  0.0048
20126TIP3    H181869   1.202  -0.032  14.158  1.9151 -0.3290  1.0996
20126TIP3    H281870   1.169   0.098  14.229  0.0649 -0.1880 -0.0078
20127TIP3   OH281871   2.488   3.997   0.509  0.5294 -0.6041 -0.7262
20127TIP3    H181872   2.569   3.950   0.527  0.8141  0.5211  1.0412
20127TIP3    H281873   2.419   3.941   0.546  0.8542  0.2448  1.2436
20128TIP3   OH281874   1.990   3.687   5.392 -0.0319 -0.1193 -0.6505
20128TIP3    H181875   1.912   3.635   5.370 -0.4945  1.4598 -2.9074
20128TIP3    H281876   1.976   3.713   5.483 -1.6131 -0.7613 -0.6894
20129TIP3   OH281877   0.290   0.388   6.106  0.6327 -0.0446  0.3696
20129TIP3    H181878   0.245   0.364   6.186 -0.8079  0.3499 -0.3085
20129TIP3    H281879   0.327   0.474   6.124  0.0764  0.1628  0.5167
20130TIP3   OH281880   4.118   6.609  10.577  0.0774 -0.2234 -0.0698
20130TIP3    H181881   4.084   6.650  10.656 -0.7410 -0.0948 -0.4769
20130TIP3    H281882   4.162   6.529  10.608 -1.8158 -1.1320  0.3523
20131TIP3   OH281883   2.377   0.936  14.884  0.3645  0.3019 -0.3072
20131TIP3    H181884   2.285   0.957  14.866  0.4915  0.6089 -0.5861
20131TIP3    H281885   2.400   0.992  14.958 -0.2106 -1.0896  0.9646
20132TIP3   OH281886   5.692   1.861   0.953 -0.7008 -0.1576 -0.3662
20132TIP3    H181887   5.759   1.929   0.954  0.3000 -1.1033 -1.3590
20132TIP3    H281888   5.704   1.813   1.035 -0.7229  0.2212 -0.1457
20133TIP3   OH281889   0.618   0.817  14.887 -0.0543  0.3594 -0.4951
20133TIP3    H181890   0.679   0.748  14.915 -0.8341 -0.5489 -1.0243
20133TIP3    H281891   0.597   0.864  14.968 -1.2118 -1.3906  0.2694
20134TIP3   OH281892   0.774   2.007   5.007  0.6451  0.8074 -0.0325
20134TIP3    H181893   0.700   1.951   4.984  3.1841 -3.4959  1.5721
20134TIP3    H281894   0.747   2.052   5.087 -1.6872  2.4642 -1.6998
20135TIP3   OH281895   4.111   4.449  12.871  0.1489  0.3621  0.6149
20135TIP3    H181896   4.074   4.445  12.783  0.2021  0.5175  0.5864
20135TIP3    H281897   4.036   4.465  12.928  0.0820  0.0312  0.6201
20136TIP3   OH281898   1.946   2.038  16.006  0.1161  0.4212 -0.1355
20136TIP3    H181899   2.008   1.985  15.956  0.1393 -0.5949  0.9683
20136TIP3    H281900   1.984   2.126  16.005  1.4906 -0.1650  0.3924
20137TIP3   OH281901   4.704   6.271   6.103 -0.4273 -0.3204  0.1794
20137TIP3    H181902   4.797   6.289   6.088 -0.7445 -0.0193 -1.5774
20137TIP3    H281903   4.659   6.345   6.061 -1.4852 -0.9785  0.1535
20138TIP3   OH281904   4.068   4.312   2.475  0.5777  0.0176 -0.1461
20138TIP3    H181905   3.996   4.352   2.427  0.9315 -0.0505 -0.7489
20138TIP3    H281906   4.146   4.337   2.426  0.7354 -2.1193 -1.0721
20139TIP3   OH281907   3.242   4.057   1.502 -0.1784 -0.2932 -0.8317
20139TIP3    H181908   3.330   4.079   1.472 -0.2228 -0.6164 -1.1941
20139TIP3    H281909   3.248   3.967   1.532 -0.2946 -0.1906 -0.4939
20140TIP3   OH281910   2.036   0.503  11.600  0.0796  0.1146  0.0050
20140TIP3    H181911   2.062   0.560  11.673  0.5607  0.6441 -0.5735
20140TIP3    H281912   1.941   0.509  11.597 -0.0594 -1.0308  1.4955
20141TIP3   OH281913   6.091   2.605   1.062 -0.3927 -0.5753  0.0991
20141TIP3    H181914   6.012   2.650   1.093 -2.2152 -1.6320 -2.8695
20141TIP3    H281915   6.095   2.525   1.114 -0.4646  0.1627  1.2549
20142TIP3   OH281916   4.591   3.446   4.657 -0.5511  0.2594 -0.6610
20142TIP3    H181917   4.675   3.462   4.699 -0.3083 -1.2405 -0.5636
20142TIP3    H281918   4.533   3.512   4.695  0.5545  1.2664 -0.6878
20143TIP3   OH281919   5.817   6.795   0.146  0.1798 -0.0818  0.1971
20143TIP3    H181920   5.909   6.776   0.165  0.2351  0.7708  0.7913
20143TIP3    H281921   5.771   6.770   0.226 -0.0981 -0.3861 -0.0542
20144TIP3   OH281922   3.544   0.446  16.164 -0.1718 -0.3461  0.8307
20144TIP3    H181923   3.555   0.375  16.100  0.6647  1.7685 -1.4627
20144TIP3    H281924   3.449   0.457  16.172 -0.2911  0.8507 -1.8069
20145TIP3   OH281925   1.741   5.156  15.694 -0.0001  0.2364  0.4713
20145TIP3    H181926   1.804   5.163  15.622 -0.5950  0.8287  0.0103
20145TIP3    H281927   1.656   5.173  15.654 -0.0628  3.3431  1.8173
20146TIP3   OH281928   5.697   1.448   4.715  0.1919  0.0001  0.4277
20146TIP3    H181929   5.745   1.403   4.644 -0.5367 -0.5227  0.2604
20146TIP3    H281930   5.605   1.435   4.693 -0.0863  3.3469 -0.7407
20147TIP3   OH281931   1.166   6.317   1.592  0.0257 -0.0311 -1.0021
20147TIP3    H181932   1.093   6.266   1.629  1.1052 -0.7545  0.1822
20147TIP3    H281933   1.150   6.406   1.623 -0.7273 -0.0509 -1.3153
20148TIP3   OH281934   4.062   1.375  16.660 -0.2171 -0.1574 -0.1105
20148TIP3    H181935   4.072   1.448  16.721 -1.1027 -1.0987  1.1841
20148TIP3    H281936   4.004   1.408  16.592 -0.5280  0.3801  0.4139
20149TIP3   OH281937   5.153   6.670   4.266  0.2286 -0.0277 -0.2396
20149TIP3    H181938   5.131   6.745   4.322 -0.9450 -1.1564  0.8491
20149TIP3    H281939   5.152   6.706   4.177 -2.4654  0.8044  0.0746
20150TIP3   OH281940   1.723   2.950   0.618 -0.1819 -0.2696 -0.5073
20150TIP3    H181941   1.679   2.961   0.702 -0.2856 -1.6128 -0.3803
20150TIP3    H281942   1.813   2.978   0.634 -0.4302  0.3517 -0.1895
20151TIP3   OH281943   4.215   1.129  15.465  0.7875 -0.0237  0.0690
20151TIP3    H181944   4.205   1.101  15.374  0.5706  0.0655  0.0657
20151TIP3    H281945   4.190   1.222  15.465  3.4079  0.7216 -0.2914
20152TIP3   OH281946   3.650   1.414   0.748  0.6379  0.5057  0.3345
20152TIP3    H181947   3.556   1.423   0.767  0.2394 -1.0163 -0.7803
20152TIP3    H281948   3.689   1.494   0.783 -1.2893  1.8632 -0.4993
20153TIP3   OH281949   0.795   2.316  10.576  0.3880 -0.1901 -0.1834
20153TIP3    H181950   0.711   2.311  10.530 -0.5154 -0.9958  1.5056
20153TIP3    H281951   0.817   2.225  10.596 -0.3929  0.2590  2.9763
20154TIP3   OH281952   3.347   4.317  12.939  0.1337  0.0039 -0.5790
20154TIP3    H181953   3.349   4.386  12.872  0.8650  1.6920  1.1603
20154TIP3    H281954   3.287   4.351  13.006  1.7079 -0.3531  1.0165
20155TIP3   OH281955   6.419   1.487  16.888 -0.0144 -0.1758 -0.1165
20155TIP3    H181956   6.432   1.418  16.953 -0.3820 -1.1478 -1.0454
20155TIP3    H281957   6.330   1.472  16.854 -0.3472  1.1587  0.1328
20156TIP3   OH281958   2.432   1.053   5.664  0.2656 -0.6822  0.1380
20156TIP3    H181959   2.392   0.977   5.622  0.1565 -0.4407 -0.2005
20156TIP3    H281960   2.381   1.067   5.743 -0.2361 -0.4599 -0.2213
20157TIP3   OH281961   2.092   4.114   2.716  0.1874 -0.4832 -0.2852
20157TIP3    H181962   2.109   4.020   2.725 -2.9231 -1.0063  0.6461
20157TIP3    H281963   2.053   4.123   2.629  1.1603  0.0623 -0.6702
20158TIP3   OH281964   1.085   5.928  15.614  0.1298 -0.4694 -0.0042
20158TIP3    H181965   1.088   5.877  15.695 -1.6453 -2.0709 -0.9036
20158TIP3    H281966   1.056   5.866  15.548  3.4454  0.2976 -2.3212
20159TIP3   OH281967   3.792   4.933  13.546 -0.0578 -0.4569 -0.1346
20159TIP3    H181968   3.706   4.968  13.523 -0.3891 -0.1983  1.4149
20159TIP3    H281969   3.784   4.839  13.532 -0.8051 -0.5078  0.6069
20160TIP3   OH281970   0.475   4.293  16.510 -0.2374  0.5905  0.5615
20160TIP3    H181971   0.412   4.238  16.463 -0.0947  0.3281  0.6698
20160TIP3    H281972   0.438   4.301  16.598 -0.7356  1.4674  0.2740
20161TIP3   OH281973   1.533   2.948   4.625 -0.2633  0.0115  0.5212
20161TIP3    H181974   1.548   2.943   4.720  1.7364  2.7494  0.4087
20161TIP3    H281975   1.587   3.022   4.597  1.0010 -2.1969 -3.1275
20162TIP3   OH281976   0.751   1.196   4.411 -0.1426  0.4291 -0.1567
20162TIP3    H181977   0.687   1.127   4.430 -0.9680  1.0774 -0.5646
20162TIP3    H281978   0.835   1.150   4.412 -0.6152 -0.4617  0.2429
20163TIP3   OH281979   1.640   2.695  13.660  0.2257  0.0024  0.6497
20163TIP3    H181980   1.658   2.760  13.728  2.0175 -0.4629  0.6614
20163TIP3    H281981   1.727   2.668  13.630 -0.5374 -0.3865 -1.2701
20164TIP3   OH281982   1.144   4.753  11.824  0.2216 -0.1262 -0.1136
20164TIP3    H181983   1.214   4.713  11.874 -0.2118 -1.4248 -0.5175
20164TIP3    H281984   1.068   4.696  11.839 -0.7178  1.1725  0.2078
20165TIP3   OH281985   3.561   4.495  16.843  0.2399 -0.2991 -0.3095
20165TIP3    H181986   3.556   4.407  16.882  0.8480  0.0518  0.5757
20165TIP3    H281987   3.487   4.499  16.784  1.0628 -1.9843 -1.5027
20166TIP3   OH281988   0.609   6.038   1.002 -0.3074  0.1452  0.2568
20166TIP3    H181989   0.549   5.963   0.996  1.8565 -1.5521 -0.7657
20166TIP3    H281990   0.649   6.030   1.088  0.2898 -0.1731 -0.0469
20167TIP3   OH281991   4.351   2.015  10.478  0.1552 -0.5486 -0.3441
20167TIP3    H181992   4.428   2.067  10.456 -0.3451  0.0812 -0.6583
20167TIP3    H281993   4.278   2.067  10.444 -0.3930 -1.1881 -0.1450
20168TIP3   OH281994   5.604   5.828  17.286  0.1800  0.4936  0.1818
20168TIP3    H181995   5.531   5.854  17.342 -0.5664 -0.7165 -0.1982
20168TIP3    H281996   5.626   5.739  17.314 -1.5558 -0.9580 -2.7172
20169TIP3   OH281997   4.267   5.748   4.389  0.0099  0.5521  0.5834
20169TIP3    H181998   4.249   5.749   4.483 -1.6145  1.2905  0.2883
20169TIP3    H281999   4.182   5.730   4.349  1.0309 -1.7201 -0.6921
20170TIP3   OH282000   5.782   0.334  17.109  0.1296 -0.2167 -0.5848
20170TIP3    H182001   5.687   0.322  17.101 -0.1482 -1.1007  3.1859
20170TIP3    H282002   5.817   0.247  17.125  1.2352  0.4596  0.8395
20171TIP3   OH282003   4.925   2.057  12.843  0.2607 -0.1675 -0.1858
20171TIP3    H182004   4.932   2.018  12.756 -0.9272 -0.9749  0.0702
20171TIP3    H282005   5.014   2.085  12.864  0.5123  0.2541 -1.7581
20172TIP3   OH282006   4.069   1.278  16.327  0.0484 -0.3030 -0.2479
20172TIP3    H182007   4.121   1.259  16.405 -1.2435  0.4886  0.8162
20172TIP3    H282008   4.030   1.194  16.304  1.6596 -0.8753 -0.9735
20173TIP3   OH282009   3.146   1.673   3.912  0.0008 -0.9290  0.0103
20173TIP3    H182010   3.231   1.657   3.871  0.4250 -1.0263  0.8984
20173TIP3    H282011   3.084   1.624   3.859  0.6173 -1.5085 -0.1849
20174TIP3   OH282012   3.581   0.580   4.429 -0.6960  0.3688 -0.3903
20174TIP3    H182013   3.500   0.596   4.479 -0.9808  0.0780 -0.7585
20174TIP3    H282014   3.552   0.572   4.338 -0.5395 -1.9378 -0.2767
20175TIP3   OH282015   0.025   5.640  11.745 -0.3716 -0.1419  0.7494
20175TIP3    H182016   0.038   5.716  11.688  0.3349  1.2375  2.6877
20175TIP3    H282017   0.045   5.565  11.689  0.8629  1.1886 -0.6615
20176TIP3   OH282018   0.861   2.653  13.986  0.3729  0.3315 -0.1852
20176TIP3    H182019   0.859   2.712  14.061  1.0853  0.2530 -0.1014
20176TIP3    H282020   0.900   2.706  13.916  2.1873 -0.4088  0.2264
20177TIP3   OH282021   1.031   5.000  15.800 -0.5098 -0.3921 -0.2418
20177TIP3    H182022   1.010   4.948  15.722 -0.7987  0.1956 -0.5533
20177TIP3    H282023   0.946   5.023  15.837 -0.4223  1.2824 -1.0415
20178TIP3   OH282024   5.340   4.090  16.957  0.1059 -0.2599 -0.3913
20178TIP3    H182025   5.266   4.125  16.909  1.2889  0.3151 -1.8349
20178TIP3    H282026   5.413   4.149  16.936  0.4428  0.6500  2.9170
20179TIP3   OH282027   0.140   6.648   5.813 -0.0285 -0.0712  0.0972
20179TIP3    H182028   0.094   6.730   5.795  0.6930  0.3909  0.3129
20179TIP3    H282029   0.203   6.671   5.882  1.0948 -0.4757 -0.7663
20180TIP3   OH282030   5.211   3.156   4.029 -0.2855 -0.2429 -0.6109
20180TIP3    H182031   5.173   3.139   4.115 -1.8739 -1.5308 -1.5464
20180TIP3    H282032   5.297   3.113   4.032 -0.9850 -1.6280 -0.2038
20181TIP3   OH282033   0.689   4.091  16.131  0.1667  0.2078 -0.5424
20181TIP3    H182034   0.756   4.049  16.185 -0.1751 -0.0073 -0.2885
20181TIP3    H282035   0.728   4.094  16.043 -0.1665 -1.4540 -0.7612
20182TIP3   OH282036   3.759   4.433   2.052 -0.3684  0.7261  0.4625
20182TIP3    H182037   3.815   4.442   1.974  0.4951  1.0677  1.1108
20182TIP3    H282038   3.744   4.523   2.080  0.6772  0.5521  1.6340
20183TIP3   OH282039   1.294   1.401  12.885  0.4412  0.2609  0.2065
20183TIP3    H182040   1.327   1.382  12.973  1.5313  0.3805 -0.1604
20183TIP3    H282041   1.336   1.335  12.830 -0.2714  0.1616 -0.2209
20184TIP3   OH282042   0.553   1.679   5.194  0.0303  0.2568 -0.0302
20184TIP3    H182043   0.564   1.726   5.111  1.6340 -0.6713 -0.3589
20184TIP3    H282044   0.574   1.744   5.262 -1.3202  1.0279 -0.3324
20185TIP3   OH282045   3.649   4.733  13.393  0.3375  0.3737  0.5124
20185TIP3    H182046   3.583   4.767  13.334 -0.8487  1.1353  2.2420
20185TIP3    H282047   3.732   4.763  13.355 -0.2840 -0.4702 -1.5870
20186TIP3   OH282048   2.408   2.732   5.333  0.4960 -0.4232 -0.1295
20186TIP3    H182049   2.401   2.828   5.327 -1.1651 -0.5964 -1.2469
20186TIP3    H282050   2.376   2.712   5.421 -0.2362 -0.0216 -0.2940
20187TIP3   OH282051   0.105   4.991  13.854 -0.1242  0.5776  0.8186
20187TIP3    H182052   0.077   4.961  13.767 -0.0037 -0.3560  1.1004
20187TIP3    H282053   0.098   5.086  13.849 -0.7202  0.5017 -0.0154
20188TIP3   OH282054   3.481   3.535   2.089 -0.0550 -0.0298 -0.0960
20188TIP3    H182055   3.436   3.463   2.045  0.2713 -0.6288  0.5328
20188TIP3    H282056   3.411   3.587   2.129 -0.3966  0.8709 -1.8287
20189TIP3   OH282057   0.223   4.352   6.132 -0.1753  0.2917  0.3421
20189TIP3    H182058   0.311   4.320   6.114  0.7380  2.0977  1.4763
20189TIP3    H282059   0.236   4.432   6.183 -2.4805 -0.1473  1.7111
20190TIP3   OH282060   1.798   4.933   2.073  0.0003  0.0362  0.5829
20190TIP3    H182061   1.806   5.026   2.093 -1.6055  0.0993  0.9576
20190TIP3    H282062   1.819   4.927   1.980  1.6147  0.5531  0.8957
20191TIP3   OH282063   0.649   0.067  14.030 -0.2526  0.2935  0.4384
20191TIP3    H182064   0.702   0.113  14.095  1.1143  1.7823 -1.6733
20191TIP3    H282065   0.569   0.120  14.022  0.4314  1.2089 -0.4915
20192TIP3   OH282066   2.558   1.577   6.052  0.0787 -0.1232 -0.1476
20192TIP3    H182067   2.638   1.530   6.074 -0.0244 -0.2197  0.0245
20192TIP3    H282068   2.514   1.520   5.988  0.3771  0.1566 -0.6041
20193TIP3   OH282069   1.437   3.432   1.257 -0.2875  0.7869 -0.2436
20193TIP3    H182070   1.522   3.461   1.291 -0.5285  0.2422  0.8528
20193TIP3    H282071   1.376   3.445   1.330 -1.3627  2.1110 -1.3238
20194TIP3   OH282072   6.600   0.074  14.760  0.0673 -0.5339  0.4578
20194TIP3    H182073   6.655  -0.003  14.744  0.4257 -0.2180  0.1690
20194TIP3    H282074   6.662   0.147  14.761  0.0297 -0.4780  2.8122
20195TIP3   OH282075   0.534   6.679  14.598  0.0349 -0.1511  0.1285
20195TIP3    H182076   0.514   6.727  14.679 -1.2599 -0.3473 -0.0607
20195TIP3    H282077   0.534   6.587  14.625 -1.8920 -0.3280 -0.3540
20196TIP3   OH282078   1.324   0.369  14.011  0.0709 -0.0949  0.0186
20196TIP3    H182079   1.247   0.316  14.031  1.4267 -1.5137  1.6837
20196TIP3    H282080   1.398   0.309  14.021  1.5092  1.6260  0.0503
20197TIP3   OH282081   5.771   2.048  10.198 -0.2008  0.3195 -0.3466
20197TIP3    H182082   5.815   1.975  10.242 -0.9331  0.6082  0.8919
20197TIP3    H282083   5.691   2.061  10.248 -1.3509  0.2814 -2.1437
20198TIP3   OH282084   3.934   0.290  13.586  0.7303  0.0543  0.2424
20198TIP3    H182085   4.018   0.334  13.593  0.9624 -0.3438 -0.0165
20198TIP3    H282086   3.869   0.360  13.592  0.9960  0.1340  2.8791
20199TIP3   OH282087   2.610   0.017  16.262 -0.4043 -0.0285  0.1178
20199TIP3    H182088   2.662   0.055  16.191 -0.2205 -1.3445 -0.4740
20199TIP3    H282089   2.531   0.070  16.266 -0.2015  0.3437 -0.7627
20200TIP3   OH282090   0.449   3.873  11.365 -0.4470 -0.2627  0.7663
20200TIP3    H182091   0.387   3.876  11.293  0.6624  0.0929 -0.1793
20200TIP3    H282092   0.466   3.779  11.378  1.8173 -0.2261 -1.5952
20201TIP3   OH282093   3.541   5.393   1.306 -0.4868 -0.0436 -0.1460
20201TIP3    H182094   3.464   5.378   1.250 -0.4704  2.4076 -0.8523
20201TIP3    H282095   3.609   5.339   1.267 -1.1576 -0.2671 -1.0332
20202TIP3   OH282096   1.222   1.613  11.474 -0.4069 -0.0238  0.4049
20202TIP3    H182097   1.195   1.704  11.486 -1.7106 -0.2654 -0.5433
20202TIP3    H282098   1.156   1.561  11.521 -1.9481 -0.6383 -2.2656
20203TIP3   OH282099   0.259   3.664   2.711  0.0426 -0.1269  0.0074
20203TIP3    H182100   0.319   3.680   2.784  0.6875 -3.1897  0.2352
20203TIP3    H282101   0.314   3.632   2.640 -1.1271 -1.7650 -0.2068
20204TIP3   OH282102   0.287   2.062  14.245 -0.6036  0.3562  0.0893
20204TIP3    H182103   0.250   2.018  14.169  0.9669 -2.4770  0.8799
20204TIP3    H282104   0.213   2.105  14.287 -2.1011 -1.0019 -1.1167
20205TIP3   OH282105   6.006   6.093   4.808  0.3031  0.3443  0.0741
20205TIP3    H182106   5.960   6.106   4.892  2.0209 -1.0066  1.2658
20205TIP3    H282107   6.051   6.176   4.793 -3.0184  1.9848 -1.5043
20206TIP3   OH282108   1.022   1.279  12.954 -0.3951  0.1677 -0.5276
20206TIP3    H182109   1.088   1.327  12.904 -1.6889  1.8293 -0.6987
20206TIP3    H282110   1.034   1.309  13.044 -0.2115 -0.3313 -0.3869
20207TIP3   OH282111   2.689   6.398  16.771  0.0987 -0.5599  0.2292
20207TIP3    H182112   2.623   6.423  16.835 -0.6367 -1.6315 -0.0869
20207TIP3    H282113   2.652   6.425  16.687  1.1931  1.1159  0.2702
20208TIP3   OH282114   0.089   4.700   3.059 -0.2221  0.3280  0.4193
20208TIP3    H182115   0.061   4.716   3.149  0.2845 -2.9098  1.2379
20208TIP3    H282116   0.020   4.647   3.021 -0.7417  2.2114 -1.3624
20209TIP3   OH282117   4.213   0.477   0.362 -0.4835  0.8766  0.0220
20209TIP3    H182118   4.175   0.557   0.324 -1.2371  0.8132  0.6177
20209TIP3    H282119   4.158   0.406   0.328 -1.5185  0.8682  1.6344
20210TIP3   OH282120   3.321   5.932  12.637 -0.0552 -0.4471  0.0861
20210TIP3    H182121   3.363   6.002  12.587 -0.3454  0.9585  1.7293
20210TIP3    H282122   3.305   5.972  12.723 -0.5625 -2.4353  0.9269
20211TIP3   OH282123   5.502   3.646  12.910  0.7273 -0.2156  0.5876
20211TIP3    H182124   5.424   3.611  12.867 -0.2408  2.0497  0.4278
20211TIP3    H282125   5.488   3.627  13.003  0.1610 -0.1315  0.5218
20212TIP3   OH282126   2.421   0.807   6.124 -0.1508 -0.6377  0.2647
20212TIP3    H182127   2.485   0.787   6.193  1.2355 -0.6327 -1.0049
20212TIP3    H282128   2.463   0.777   6.043 -1.2531  0.4748 -0.7348
20213TIP3   OH282129   6.408   4.408   5.533  0.3077  0.2616  0.0522
20213TIP3    H182130   6.333   4.349   5.543 -0.6502  1.7173  1.7581
20213TIP3    H282131   6.380   4.489   5.575  2.9874  0.7202  1.0052
20214TIP3   OH282132   2.745   4.437   5.393 -0.1290  0.2228  0.1273
20214TIP3    H182133   2.686   4.511   5.379 -0.6661 -0.1244  0.5410
20214TIP3    H282134   2.703   4.385   5.461 -0.4230 -1.1872 -1.1016
20215TIP3   OH282135   0.912   3.734  17.182  0.0393  0.0207 -0.3782
20215TIP3    H182136   0.941   3.754  17.271 -0.3171 -1.2167  0.0411
20215TIP3    H282137   0.992   3.715  17.134  0.1493 -0.4537 -0.0089
20216TIP3   OH282138   3.101   4.472   0.772  0.2013 -0.7340  0.1560
20216TIP3    H182139   3.131   4.384   0.749 -0.1109 -0.2314 -2.2954
20216TIP3    H282140   3.169   4.506   0.829  2.5419 -0.9534 -2.4038
20217TIP3   OH282141   6.772   0.373  16.628 -0.4953  0.4250 -0.3517
20217TIP3    H182142   6.711   0.374  16.701 -0.6057  1.4810 -0.4490
20217TIP3    H282143   6.720   0.344  16.553 -0.1624 -1.5858  0.1593
20218TIP3   OH282144   1.483   5.252  15.574  0.1694 -0.3994 -0.0310
20218TIP3    H182145   1.500   5.295  15.491  2.1777 -0.2650  0.4366
20218TIP3    H282146   1.423   5.311  15.620 -0.0861  0.0490 -0.9407
20219TIP3   OH282147   2.185   0.622  13.978  0.5598 -0.0614  0.1190
20219TIP3    H182148   2.182   0.608  13.883 -0.6460 -0.8825  0.2739
20219TIP3    H282149   2.222   0.710  13.987 -0.5513  0.5687 -1.1658
20220TIP3   OH282150   4.235   1.496   0.834  0.2449  0.2163  0.5266
20220TIP3    H182151   4.319   1.475   0.876 -0.0598  1.4872  1.8130
20220TIP3    H282152   4.188   1.413   0.832  1.1216 -0.2999  0.7463
20221TIP3   OH282153   2.991   2.348  15.134  0.5250  0.2593 -0.0284
20221TIP3    H182154   2.899   2.320  15.130  0.4768  0.4877 -0.5011
20221TIP3    H282155   2.990   2.439  15.102  0.8242  0.4689  0.5481
20222TIP3   OH282156   5.378   5.374  13.362  0.1043  0.1345  0.1261
20222TIP3    H182157   5.293   5.402  13.330  0.3959 -0.1759 -0.9201
20222TIP3    H282158   5.431   5.454  13.363 -0.5688  0.6014  2.0557
20223TIP3   OH282159   3.390   2.826  13.091  0.1236  0.1380 -0.0039
20223TIP3    H182160   3.397   2.738  13.127 -0.7694  0.2582  0.4561
20223TIP3    H282161   3.322   2.869  13.143  1.6136  1.6120  0.8008
20224TIP3   OH282162   0.624   5.295  14.805 -0.3033 -0.1310  0.0027
20224TIP3    H182163   0.603   5.388  14.813 -0.5843 -0.2064  0.1478
20224TIP3    H282164   0.582   5.269  14.722  1.3111  0.2919 -0.9683
20225TIP3   OH282165   0.444   2.983  16.079  0.0627  0.1623 -0.0381
20225TIP3    H182166   0.403   2.946  16.158  1.5512  0.0045  0.6654
20225TIP3    H282167   0.520   3.031  16.111  0.7427  0.0166 -1.3922
20226TIP3   OH282168   0.040   6.601   5.278 -0.3673  0.1905  0.3841
20226TIP3    H182169  -0.017   6.554   5.217  0.0694  1.9083 -1.4345
20226TIP3    H282170   0.116   6.625   5.225  1.2749 -0.6147  2.3499
20227TIP3   OH282171   1.972   4.989  14.790 -0.2114  0.0230 -0.4753
20227TIP3    H182172   2.010   5.064  14.745 -0.5025 -0.6681 -1.9091
20227TIP3    H282173   2.048   4.934  14.812  0.0006  0.7381  0.5778
20228TIP3   OH282174   1.447   6.580   6.366 -0.0389 -0.0383 -0.6471
20228TIP3    H182175   1.388   6.565   6.439  0.4470  0.3261 -0.1819
20228TIP3    H282176   1.395   6.629   6.302 -0.3322  0.0057 -0.3727
20229TIP3   OH282177   1.312   1.649   0.920  0.2827 -0.6356 -0.2764
20229TIP3    H182178   1.244   1.647   0.853  0.6955  0.5818 -0.7384
20229TIP3    H282179   1.323   1.557   0.945 -1.7706 -0.8211  0.0699
20230TIP3   OH282180   1.583   0.363  11.859 -0.3067 -0.8342 -0.2278
20230TIP3    H182181   1.627   0.419  11.923 -1.2680 -1.1420  0.7390
20230TIP3    H282182   1.618   0.275  11.876 -0.2520 -0.8421 -0.3894
20231TIP3   OH282183   2.483   5.680   4.803  0.3470  0.4876 -0.0890
20231TIP3    H182184   2.538   5.603   4.812  0.8719  0.8942  0.2212
20231TIP3    H282185   2.450   5.676   4.713  1.1347  0.4019 -0.3801
20232TIP3   OH282186   2.978   0.102   4.962  0.2607 -0.4621  0.3596
20232TIP3    H182187   2.961   0.018   5.005 -1.7825 -0.1953  0.1350
20232TIP3    H282188   3.016   0.078   4.878  0.7406 -1.1142  0.7501
20233TIP3   OH282189   1.651   4.130   0.152  0.1110  0.5127  0.3356
20233TIP3    H182190   1.578   4.188   0.174  1.1478  2.3035 -0.8072
20233TIP3    H282191   1.686   4.102   0.236 -1.2432  0.4626  0.8941
20234TIP3   OH282192   1.224   6.021   1.307 -0.0811  0.2423 -0.3890
20234TIP3    H182193   1.175   5.990   1.230  0.2704  1.6736 -1.1975
20234TIP3    H282194   1.214   6.116   1.305 -0.7738  0.2337  1.8376
20235TIP3   OH282195   4.540   1.917  11.793 -0.0520  0.4722 -0.4116
20235TIP3    H182196   4.540   2.007  11.759  1.0870 -0.4520 -2.9159
20235TIP3    H282197   4.626   1.883  11.770 -0.5174 -1.3267  0.4517
20236TIP3   OH282198   6.027   0.074   2.382  0.6737  0.1905 -0.3099
20236TIP3    H182199   6.035   0.078   2.287 -0.5671 -0.6713 -0.4637
20236TIP3    H282200   5.936   0.048   2.398  0.8203  0.4977  1.1141
20237TIP3   OH282201   0.251   2.122  16.096  0.0712  1.2239 -0.0523
20237TIP3    H182202   0.241   2.046  16.154  0.4411  1.5911  0.5037
20237TIP3    H282203   0.312   2.180  16.143  0.8552  1.2542 -1.0942
20238TIP3   OH282204   3.970   6.225   0.910 -0.3160  0.1998 -0.0103
20238TIP3    H182205   3.995   6.255   0.997  0.4774  1.1614 -0.5512
20238TIP3    H282206   3.948   6.132   0.921 -2.2549  0.8262  1.5860
20239TIP3   OH282207   3.783   0.871   2.736  0.2440 -0.4273  0.0466
20239TIP3    H182208   3.703   0.817   2.739  0.1975 -0.4156 -0.8145
20239TIP3    H282209   3.852   0.809   2.711  0.1410 -0.0480 -1.2348
20240TIP3   OH282210   0.281   2.857   2.573 -0.4125  0.0643 -0.0842
20240TIP3    H182211   0.374   2.850   2.548  0.3441 -2.2058  3.1085
20240TIP3    H282212   0.239   2.784   2.527 -0.2166 -0.1981  0.1503
20241TIP3   OH282213   5.159   5.148   1.181 -0.6130 -0.5896  0.4806
20241TIP3    H182214   5.188   5.209   1.114  1.9799 -0.4007  1.7209
20241TIP3    H282215   5.065   5.166   1.190 -0.2127  2.1350 -0.2783
20242TIP3   OH282216   4.538   0.943  14.240 -0.3647  0.4462 -0.5229
20242TIP3    H182217   4.522   1.034  14.217 -0.2435  0.3297 -1.0782
20242TIP3    H282218   4.589   0.908  14.167  1.5104  0.5074  0.7203
20243TIP3   OH282219   4.901   6.168  12.671  0.4415  0.3274 -0.2553
20243TIP3    H182220   4.867   6.256  12.652  0.5613  0.1770 -1.1981
20243TIP3    H282221   4.994   6.174  12.650  0.6538  0.2657  0.6864
20244LIG      S82222   2.907   3.268  16.890 -0.4048 -0.4909 -0.3605
20244LIG      O82223   3.934   3.457  16.614  0.1814 -0.0612  0.3837
20244LIG     N182224   3.146   3.122  16.716 -0.7314  0.0411  0.0458
20244LIG     N282225   3.825   3.280  16.386  0.2197 -0.2956  0.3227
20244LIG     N382226   3.911   3.266  16.721  0.4194 -0.1287 -0.4100
20244LIG     N482227   3.898   3.360  16.810  0.4149  0.1786 -0.1853
20244LIG     C182228   3.264   3.204  16.691  0.2570 -0.0278 -0.2632
20244LIG     C282229   3.020   3.162  16.642  0.6505 -0.0567 -0.6277
20244LIG     C382230   3.131   3.101  16.858 -0.0184  0.4954 -0.0314
20244LIG     C482231   3.288   3.192  16.537  0.7943 -0.0695  0.3515
20244LIG     C582232   2.955   3.288  16.704 -0.2217  0.4317 -0.5912
20244LIG     C682233   3.078   3.219  16.938 -0.3985  0.0293 -0.2064
20244LIG     C782234   3.430   3.220  16.498 -0.1086  0.1131 -0.5533
20244LIG     C882235   3.526   3.126  16.530  0.3782  0.1514  0.2442
20244LIG     C982236   3.459   3.329  16.414  0.1829  0.1800 -0.1127
20244LIG    C1082237   3.692   3.260  16.424 -0.0620  0.0210 -0.6669
20244LIG    C1182238   3.941   3.258  16.474  0.2203 -0.4293  0.6171
20244LIG    C1282239   3.663   3.151  16.504 -0.4276  0.2450  1.3907
20244LIG    C1382240   3.590   3.344  16.378  0.3336  0.0267  0.5667
20244LIG    C1482241   3.930   3.323  16.608 -0.6722 -0.2736 -0.1214
20244LIG    C1582242   4.069   3.297  16.391  0.1749  0.6910 -0.4293
20244LIG    C1682243   3.912   3.479  16.743 -0.8376 -0.0724 -0.7835
20244LIG    C1782244   3.892   3.615  16.798  0.3710  0.1954  0.3136
20244LIG    C1882245   3.888   3.627  16.934 -0.1223 -0.1461  0.1148
20244LIG    C1982246   3.885   3.733  16.717 -0.0262  0.0146 -0.5567
20244LIG    C2082247   3.859   3.753  16.994 -0.2343 -0.5841  0.2592
20244LIG    C2182248   3.861   3.857  16.774  0.2447 -0.9500  0.2655
20244LIG    C2282249   3.838   3.868  16.910 -0.6601 -0.1600 -0.1376
20244LIG     H182250   3.356   3.164  16.739  0.7065  0.7260 -0.4775
20244LIG     H282251   3.245   3.310  16.716  0.6737  0.0976 -0.4645
20244LIG     H382252   2.954   3.073  16.650 -0.6137  1.0369  1.8500
20244LIG     H482253   3.037   3.176  16.534  1.8560  2.1723 -0.1816
20244LIG     H582254   3.223   3.070  16.912  0.0740 -0.1499 -0.5533
20244LIG     H682255   3.050   3.025  16.865  0.4577 -0.0110  0.0425
20244LIG     H782256   3.228   3.266  16.480 -0.2498  0.2913  1.9007
20244LIG     H882257   3.271   3.086  16.508 -1.3158  1.3028 -3.7672
20244LIG     H982258   3.032   3.368  16.698  1.2543 -0.8535  0.7085
20244LIG    H1082259   2.858   3.306  16.653  0.1171  0.3007 -1.2808
20244LIG    H1182260   3.090   3.188  17.044  1.3455 -1.2731 -0.7627
20244LIG    H1282261   3.142   3.310  16.934 -0.8398  0.3542 -0.0002
20244LIG    H1382262   3.497   3.041  16.590  0.8987  1.5075  2.4968
20244LIG    H1482263   3.382   3.398  16.383  1.1004  1.1052 -0.3400
20244LIG    H1582264   3.956   3.149  16.492  0.1289 -0.5844 -0.2564
20244LIG    H1682265   3.740   3.088  16.545 -0.0618  1.2188  2.2232
20244LIG    H1782266   3.609   3.423  16.307  1.0099  0.5557  1.3313
20244LIG    H1882267   3.834   3.228  16.299 -1.1436  0.9963 -0.6216
20244LIG    H1982268   4.064   3.235  16.299 -0.4828 -0.0031  0.0774
20244LIG    H2082269   4.168   3.281  16.440 -0.4460 -2.8290 -0.2066
20244LIG    H2182270   4.055   3.404  16.364  1.6762  0.7755 -0.9395
20244LIG    H2282271   3.890   3.536  16.993  0.1546  0.2626  0.7362
20244LIG    H2382272   3.883   3.717  16.610 -0.1360 -3.4046 -0.0989
20244LIG    H2482273   3.854   3.746  17.101  0.2608 -0.1307  0.3114
20244LIG    H2582274   3.856   3.942  16.708 -1.3124 -1.5872 -0.4347
20244LIG    H2682275   3.815   3.962  16.959 -0.7467 -0.0767 -0.3407
   6.82013   6.82013  17.29240
